Control file title. For DL_FIELD 4.10
49852
    1MOL     C1    1   7.191   1.637   5.658  0.1888 -0.1196  0.2336
    1MOL     C2    2   7.268   1.576   5.777 -0.4640  0.6629  0.7354
    1MOL     O3    3   7.172   1.559   5.886  0.3230  0.1729 -0.1614
    1MOL     C4    4   7.179   1.628   5.992 -0.6145  0.1232 -0.1133
    1MOL     C5    5   7.074   1.574   6.089 -0.1688  0.1230 -0.3846
    1MOL     O6    6   7.261   1.711   6.028  0.0982  0.6861  0.4729
    1MOL     H7    7   7.114   1.566   5.629 -0.2624  0.3283  0.3409
    1MOL     H8    8   7.256   1.658   5.574  1.6282 -0.3210  1.2731
    1MOL     H9    9   7.324   1.666   5.802  0.1919 -0.2119  2.4861
    1MOL    H10   10   7.129   1.562   6.182  0.3387 -1.8926 -0.9364
    1MOL    H11   11   7.039   1.476   6.058 -3.1133  0.5697  1.2890
    1MOL    H12   12   6.994   1.647   6.104  1.4998  2.5056 -2.4801
    1MOL    H13   13   7.149   1.735   5.679  2.3198 -0.1363  5.3727
    1MOL    C14   14   7.347   1.451   5.746  0.4523  0.6700  0.1819
    1MOL    C15   15   7.406   1.367   5.863  0.4105 -0.5720 -0.1551
    1MOL    O16   16   7.457   1.247   5.802  0.3436 -0.4579 -0.8473
    1MOL    C17   17   7.372   1.146   5.789 -0.0285  0.6718 -0.3069
    1MOL    C18   18   7.444   1.016   5.785  0.2848  0.1503 -0.2253
    1MOL    O19   19   7.247   1.154   5.792 -0.4235 -1.2314 -0.2102
    1MOL    H20   20   7.275   1.389   5.693 -1.1210 -1.5119  4.6355
    1MOL    H21   21   7.420   1.480   5.670 -0.6605 -1.5650 -1.8184
    1MOL    H22   22   7.331   1.352   5.941  1.1508  2.1929  1.1515
    1MOL    H23   23   7.382   0.931   5.759 -0.9786  0.6578  1.0859
    1MOL    H24   24   7.475   0.995   5.887 -1.5822 -2.9110 -0.2347
    1MOL    H25   25   7.530   1.017   5.717  0.2631  2.7529 -0.2864
    1MOL    C26   26   7.517   1.443   5.939  0.8235 -0.1401 -0.1863
    1MOL    C27   27   7.562   1.372   6.067  0.3794 -0.5031 -0.0646
    1MOL    O28   28   7.646   1.270   6.026 -0.1967  0.1768  0.0759
    1MOL    C29   29   7.627   1.135   6.060 -0.4129  0.4439 -0.4316
    1MOL    C30   30   7.723   1.038   5.991 -0.2111  0.1540 -0.1187
    1MOL    O31   31   7.538   1.086   6.130  0.1278  0.3374 -0.9763
    1MOL    H32   32   7.611   1.451   5.884  0.3888  1.1796 -0.7594
    1MOL    H33   33   7.491   1.545   5.968 -0.9867 -1.1505  1.8859
    1MOL    H34   34   7.476   1.333   6.122  0.1037  2.1956  1.5614
    1MOL    H35   35   7.809   1.076   5.936 -1.1189  0.1724 -1.5540
    1MOL    H36   36   7.658   0.982   5.924 -1.6772  1.8873 -0.1797
    1MOL    H37   37   7.763   0.969   6.065 -0.6726 -0.5726 -0.5412
    1MOL    C38   38   7.644   1.458   6.170 -0.2644  0.3392  0.1083
    1MOL    C39   39   7.575   1.547   6.270  0.1268  0.9196  0.0085
    1MOL    O40   40   7.544   1.668   6.198  0.1437  0.0202  0.2361
    1MOL    C41   41   7.560   1.795   6.258  0.0986 -0.0283  0.1290
    1MOL    C42   42   7.514   1.913   6.166 -0.0871 -0.5342 -0.0008
    1MOL    O43   43   7.588   1.820   6.375  0.1361  0.3567 -0.1126
    1MOL    H44   44   7.687   1.377   6.229  0.7833  1.7287  1.3100
    1MOL    H45   45   7.720   1.525   6.128 -0.5681  2.3076  2.5748
    1MOL    H46   46   7.652   1.566   6.345  0.4461 -1.5040  0.3487
    1MOL    H47   47   7.516   2.013   6.210  0.2021 -1.1764  1.4499
    1MOL    H48   48   7.406   1.900   6.157 -0.0087 -0.9915 -0.3244
    1MOL    H49   49   7.562   1.918   6.068  0.0106  1.0883  0.1162
    1MOL    C50   50   7.454   1.500   6.347 -0.2711 -0.1069 -0.5728
    1MOL    C51   51   7.499   1.417   6.467 -0.1008  0.1003 -0.1119
    1MOL    O52   52   7.513   1.502   6.581  0.6551 -0.1052 -0.2389
    1MOL    C53   53   7.632   1.539   6.627 -0.7991 -0.6667  0.7783
    1MOL    C54   54   7.621   1.647   6.731 -0.2654  0.0962  0.4781
    1MOL    O55   55   7.731   1.504   6.568  0.3676  0.5752 -0.8482
    1MOL    H56   56   7.389   1.578   6.388  0.2523 -0.5444  1.1124
    1MOL    H57   57   7.405   1.449   6.264  0.3787 -2.2918  0.3746
    1MOL    H58   58   7.598   1.378   6.441 -0.4961 -1.0535  0.0695
    1MOL    H59   59   7.542   1.632   6.805 -1.8801  0.6166 -1.0938
    1MOL    H60   60   7.630   1.748   6.693  0.3632 -1.2961 -3.2854
    1MOL    H61   61   7.706   1.633   6.798  2.0067  0.1176 -2.2829
    1MOL    C62   62   7.420   1.287   6.477  0.1957 -0.1277 -0.5112
    1MOL    C63   63   7.461   1.203   6.598 -0.9703  0.1073 -0.1771
    1MOL    O64   64   7.365   1.224   6.696 -0.6855 -0.0885  0.0176
    1MOL    C65   65   7.395   1.267   6.819  0.2248  0.2239 -0.0096
    1MOL    C66   66   7.274   1.300   6.902 -0.2181  0.5603  0.0008
    1MOL    O67   67   7.506   1.282   6.863 -0.1265  0.4789  0.3967
    1MOL    H68   68   7.311   1.293   6.472 -0.0064 -0.4029  2.5968
    1MOL    H69   69   7.455   1.251   6.381 -1.2248  0.4778 -1.2613
    1MOL    H70   70   7.560   1.238   6.628 -0.4598 -1.2848 -0.2062
    1MOL    H71   71   7.189   1.286   6.836 -0.0621  1.0537 -0.3088
    1MOL    H72   72   7.263   1.403   6.938 -0.2603  0.6056 -0.1425
    1MOL    H73   73   7.271   1.238   6.992 -0.7705  0.8808  0.2073
    1MOL    C74   74   7.457   1.049   6.574 -0.0162 -0.0002  0.0906
    1MOL    C75   75   7.548   1.001   6.456 -0.3422 -0.1315  0.4160
    1MOL    O76   76   7.683   1.008   6.500  0.4344  0.1268  0.3769
    1MOL    C77   77   7.780   1.092   6.447 -0.5349 -0.2514  0.5142
    1MOL    C78   78   7.912   1.063   6.514  0.5271  0.0331  0.3314
    1MOL    O79   79   7.764   1.176   6.363  0.0467  0.1442 -0.0767
    1MOL    H80   80   7.462   0.990   6.665 -2.6355 -3.2784 -1.7441
    1MOL    H81   81   7.356   1.023   6.541  0.6698 -2.0358 -0.4712
    1MOL    H82   82   7.550   1.050   6.358  1.4288 -3.2056 -1.1446
    1MOL    H83   83   7.994   1.071   6.442 -1.3536  0.6323 -1.8144
    1MOL    H84   84   7.915   0.962   6.553  2.7011 -1.3033 -3.0865
    1MOL    H85   85   7.932   1.127   6.600 -1.5650  0.2101  0.7079
    1MOL    C86   86   7.520   0.850   6.439 -0.0808  0.5097 -1.0030
    1MOL    C87   87   7.482   0.801   6.298 -0.6065 -1.0837 -0.0122
    1MOL    O88   88   7.599   0.747   6.228 -0.0716 -0.5915  0.4842
    1MOL    C89   89   7.609   0.744   6.096 -0.2938  0.1407  0.1868
    1MOL    C90   90   7.729   0.669   6.039  0.9122  0.2043  0.3754
    1MOL    O91   91   7.523   0.781   6.020 -0.3850 -1.1086  0.7492
    1MOL    H92   92   7.606   0.792   6.472  0.4691  1.1948 -1.2268
    1MOL    H93   93   7.439   0.820   6.506  1.6783 -1.2300  0.4129
    1MOL    H94   94   7.451   0.887   6.239  0.2552  0.0246  1.1232
    1MOL    H95   95   7.738   0.710   5.938  0.6215  0.6975  0.5461
    1MOL    H96   96   7.721   0.562   6.023 -1.6361  0.4055  0.1035
    1MOL    H97   97   7.811   0.681   6.109  1.2552 -1.4599  0.2853
    1MOL    C98   98   7.360   0.708   6.288 -0.2287 -0.4698 -0.0139
    1MOL    C99   99   7.221   0.787   6.309 -0.5307 -0.2049 -0.6883
    1MOL   O100  100   7.211   0.894   6.213  0.1321 -0.2218  0.8416
    1MOL   C101  101   7.187   1.016   6.252  0.0714 -0.3052  0.1778
    1MOL   C102  102   7.180   1.114   6.134 -0.1259  0.7467 -0.7054
    1MOL   O103  103   7.170   1.051   6.367 -0.1653  0.0017 -0.3661
    1MOL   H104  104   7.346   0.671   6.187 -1.3697 -0.7318  0.2284
    1MOL   H105  105   7.360   0.622   6.354 -1.4235  0.1743  0.8537
    1MOL   H106  106   7.229   0.830   6.409  1.0542 -2.5080  0.2109
    1MOL   H107  107   7.077   1.150   6.125  0.2903  2.6518  1.6779
    1MOL   H108  108   7.230   1.071   6.047  0.2839  2.0108 -1.1025
    1MOL   H109  109   7.230   1.206   6.164 -1.3368  2.0505 -2.5010
    1MOL   C110  110   7.093   0.702   6.289  0.1948  0.0788 -0.2426
    1MOL   C111  111   6.952   0.757   6.317  0.3242 -0.2411  0.2582
    1MOL   O112  112   6.861   0.665   6.273  0.4683 -0.2364  0.1269
    1MOL   C113  113   6.749   0.705   6.211  0.2288 -0.1721  1.0870
    1MOL   C114  114   6.658   0.581   6.178 -0.1727 -0.0679  0.4905
    1MOL   O115  115   6.725   0.819   6.167  0.3640 -0.8837 -0.1976
    1MOL   H116  116   7.102   0.679   6.183  0.5420 -2.4881  0.2925
    1MOL   H117  117   7.106   0.606   6.341 -1.4545  0.3955  0.8006
    1MOL   H118  118   6.950   0.848   6.257  0.4692  1.1314  2.3041
    1MOL   H119  119   6.598   0.607   6.090 -0.8800 -0.8290  0.7419
    1MOL   H120  120   6.585   0.558   6.255  0.7421  1.4722  1.8378
    1MOL   H121  121   6.720   0.492   6.169 -0.5881 -0.2832 -0.3754
    1MOL   C122  122   6.918   0.794   6.465  0.4597 -0.2122 -0.5019
    1MOL   C123  123   6.867   0.939   6.492 -0.5462 -0.3304 -0.6529
    1MOL   O124  124   6.729   0.946   6.460  0.1565  0.0570  0.0086
    1MOL   C125  125   6.689   1.047   6.388  0.1939 -0.3470  0.3061
    1MOL   C126  126   6.545   1.021   6.348 -0.3237 -0.0005 -0.1001
    1MOL   O127  127   6.759   1.139   6.353  1.0662 -0.2173 -0.1286
    1MOL   H128  128   6.847   0.720   6.502 -1.2449  1.5715 -0.1343
    1MOL   H129  129   7.010   0.783   6.522 -0.0158  0.6853  0.4378
    1MOL   H130  130   6.934   1.002   6.433  0.8892 -0.4597  0.7979
    1MOL   H131  131   6.472   1.073   6.410 -1.3853 -0.2763 -1.1051
    1MOL   H132  132   6.524   0.914   6.353  0.9166 -0.1882  2.1531
    1MOL   H133  133   6.533   1.051   6.244 -0.3720  2.1677  0.5055
    1MOL   C134  134   6.888   0.979   6.645  0.4177 -0.5245  0.4584
    1MOL   C135  135   6.860   1.127   6.688 -0.4420 -0.0471 -0.0192
    1MOL   O136  136   6.874   1.138   6.830 -0.3186  0.6993 -0.0324
    1MOL   C137  137   6.766   1.128   6.907 -0.1781 -0.1258 -0.0371
    1MOL   C138  138   6.798   1.159   7.052 -0.6265 -0.2756 -0.5104
    1MOL   O139  139   6.658   1.089   6.866 -0.3517 -0.9845 -0.2252
    1MOL   H140  140   6.821   0.917   6.704  0.2271 -1.0970 -0.3588
    1MOL   H141  141   6.992   0.969   6.678  0.3637  0.7363  1.0546
    1MOL   H142  142   6.761   1.150   6.647  0.1089  2.3064 -0.0810
    1MOL   H143  143   6.846   1.255   7.072 -0.0753 -1.0756  2.2036
    1MOL   H144  144   6.856   1.073   7.087 -1.0562  0.5524  2.4246
    1MOL   H145  145   6.710   1.161   7.116  0.2777 -1.9399  0.8365
    1MOL   C146  146   6.965   1.223   6.622 -0.2392  0.4270 -0.8836
    1MOL   C147  147   6.931   1.375   6.633 -0.4060 -0.0696  0.2107
    1MOL   O148  148   6.928   1.411   6.767  0.0586 -0.4748 -0.7120
    1MOL   C149  149   6.824   1.467   6.825  0.4551  0.1126  0.3888
    1MOL   C150  150   6.853   1.498   6.969 -0.3389 -0.3267  0.1145
    1MOL   O151  151   6.718   1.501   6.769 -0.2485  0.1174 -0.1900
    1MOL   H152  152   7.064   1.209   6.664 -0.7789  0.2020  0.3278
    1MOL   H153  153   6.966   1.203   6.515 -0.9311  1.6619 -1.1356
    1MOL   H154  154   6.834   1.387   6.587 -0.7657 -0.2502  0.9105
    1MOL   H155  155   6.868   1.606   6.976 -0.9960 -0.2385  0.2902
    1MOL   H156  156   6.936   1.448   7.017 -0.4607 -0.5491  0.0921
    1MOL   H157  157   6.759   1.497   7.025  0.5358  0.1120  1.6264
    1MOL   C158  158   7.043   1.458   6.568 -0.6018  0.3921 -0.0996
    1MOL   C159  159   7.031   1.615   6.573  0.1666  0.1681  0.1607
    1MOL   O160  160   7.153   1.679   6.532  0.4596  0.5212  0.3904
    1MOL   C161  161   7.253   1.693   6.617 -0.3162  0.7054  0.6972
    1MOL   C162  162   7.353   1.797   6.577  0.1385 -0.0428  0.0365
    1MOL   O163  163   7.265   1.634   6.724 -0.3504  0.4554 -0.0528
    1MOL   H164  164   7.137   1.431   6.618 -0.7481  0.0697  0.0017
    1MOL   H165  165   7.057   1.432   6.463 -2.7218  2.2965 -0.8784
    1MOL   H166  166   7.006   1.643   6.675 -0.5500 -4.0250  1.2233
    1MOL   H167  167   7.450   1.749   6.560  0.1166  0.1619 -0.6682
    1MOL   H168  168   7.361   1.858   6.667 -1.9174 -1.0475  0.9398
    1MOL   H169  169   7.318   1.847   6.487  3.5483 -1.6331 -2.2749
    1MOL   C170  170   6.908   1.653   6.477  0.0288 -0.3700 -0.0046
    1MOL   C171  171   6.884   1.805   6.466  0.1866 -0.2743 -0.1422
    1MOL   O172  172   6.949   1.855   6.349 -0.2514  0.2868 -0.6467
    1MOL   C173  173   7.051   1.947   6.344 -0.0579 -0.4989 -0.3193
    1MOL   C174  174   7.094   1.968   6.197  0.2535  0.3120  0.2998
    1MOL   O175  175   7.095   2.014   6.436 -0.2098  0.1463 -0.2405
    1MOL   H176  176   6.920   1.613   6.377 -0.1429 -2.4578  0.7896
    1MOL   H177  177   6.816   1.599   6.498  0.3942 -0.8763  0.3147
    1MOL   H178  178   6.926   1.851   6.555 -0.5782 -1.0388  0.6179
    1MOL   H179  179   7.060   1.887   6.132  0.2580  0.9154 -0.4621
    1MOL   H180  180   7.201   1.984   6.181 -0.2044  1.4894 -1.8921
    1MOL   H181  181   7.055   2.061   6.156  2.0805  1.0923  0.2848
    1MOL   C182  182   6.730   1.824   6.428  0.4666  0.8199 -0.6284
    1MOL   C183  183   6.639   1.793   6.547  0.1755 -0.6448 -0.0881
    1MOL   O184  184   6.649   1.900   6.638  0.0821  0.5323  0.2357
    1MOL   C185  185   6.726   1.888   6.751 -0.6180  0.0812  0.7870
    1MOL   C186  186   6.720   2.004   6.840 -0.5751 -0.4150 -0.0077
    1MOL   O187  187   6.792   1.786   6.780  0.4425  0.0019 -0.0668
    1MOL   H188  188   6.724   1.923   6.383 -1.5759 -0.2137 -2.7397
    1MOL   H189  189   6.700   1.755   6.349  1.2640 -1.4258  0.9809
    1MOL   H190  190   6.676   1.705   6.598  2.2000  0.0776 -0.2600
    1MOL   H191  191   6.700   1.982   6.945 -0.1734  0.9776  0.3795
    1MOL   H192  192   6.636   2.062   6.802 -0.3966  0.7752  1.3492
    1MOL   H193  193   6.808   2.068   6.829 -1.2610  0.6010  0.3166
    1MOL   C194  194   6.492   1.798   6.502  0.3646 -1.2349  0.3255
    1MOL   C195  195   6.400   1.692   6.565 -0.6513 -1.0016 -0.2577
    1MOL   O196  196   6.455   1.566   6.521  0.2022  0.3619  0.0317
    1MOL   C197  197   6.375   1.464   6.494  0.6837 -0.3127  0.3979
    1MOL   C198  198   6.442   1.328   6.459  0.0498 -0.1262 -0.0710
    1MOL   O199  199   6.250   1.470   6.487  0.4348 -0.2965 -0.5477
    1MOL   H200  200   6.456   1.900   6.515  0.6647 -0.7993 -1.9923
    1MOL   H201  201   6.484   1.779   6.395  2.3341 -1.3062  0.1817
    1MOL   H202  202   6.299   1.698   6.524 -1.0014  0.1171  0.7593
    1MOL   H203  203   6.366   1.253   6.480 -1.0822  0.8682 -0.5311
    1MOL   H204  204   6.529   1.307   6.521  1.2028  0.5124 -1.4483
    1MOL   H205  205   6.453   1.319   6.351  1.1800  0.6127 -0.0323
    1MOL   C206  206   6.390   1.699   6.722  0.3516  0.1286 -0.4849
    1MOL   C207  207   6.348   1.830   6.786 -0.2318  0.4306  0.0885
    1MOL   O208  208   6.208   1.855   6.772 -0.2874 -0.6233  0.1353
    1MOL   C209  209   6.157   1.913   6.665  0.3603  0.3719 -0.4570
    1MOL   C210  210   6.008   1.912   6.682  0.3418 -0.2606 -0.1231
    1MOL   O211  211   6.214   1.937   6.558  0.3111  0.2929 -0.0999
    1MOL   H212  212   6.314   1.628   6.754 -2.1515  2.2028 -1.6291
    1MOL   H213  213   6.486   1.675   6.769 -1.4573 -2.4978  2.0149
    1MOL   H214  214   6.398   1.912   6.733 -1.8548  2.0747  1.0312
    1MOL   H215  215   5.958   1.980   6.612  0.7396  0.6155  0.4399
    1MOL   H216  216   5.978   1.930   6.785  1.0396 -0.7913  0.1698
    1MOL   H217  217   5.976   1.811   6.657  1.2626 -0.7305  0.6179
    1MOL   C218  218   6.384   1.849   6.935  0.5248 -0.1462 -0.7907
    1MOL   C219  219   6.332   1.739   7.034  0.3137 -0.0975 -0.4561
    1MOL   O220  220   6.407   1.625   7.011  0.1697  0.0033  0.5107
    1MOL   C221  221   6.358   1.507   7.012 -0.0435 -0.4263 -0.3024
    1MOL   C222  222   6.463   1.404   6.970 -0.0504 -0.1861 -0.2337
    1MOL   O223  223   6.240   1.486   7.033  0.8798 -0.3312  0.2741
    1MOL   H224  224   6.492   1.864   6.937  0.2737  1.6190  1.0596
    1MOL   H225  225   6.341   1.945   6.964  0.4239 -0.7859  1.2748
    1MOL   H226  226   6.224   1.725   7.024  0.2163  0.2249  0.1526
    1MOL   H227  227   6.422   1.305   6.948  2.0446 -1.3217  0.7988
    1MOL   H228  228   6.535   1.382   7.048 -0.2767  0.7975  0.2697
    1MOL   H229  229   6.513   1.428   6.877  2.2878  2.1748  1.5748
    1MOL   C230  230   6.332   1.788   7.180 -0.0343  0.1318  0.0173
    1MOL   C231  231   6.260   1.689   7.274 -0.4907 -0.4983  0.7701
    1MOL   O232  232   6.265   1.745   7.407 -0.1677  0.7701  1.2134
    1MOL   C233  233   6.310   1.677   7.510 -0.5375  0.0768  0.5718
    1MOL   C234  234   6.333   1.755   7.644  0.0064 -0.1940  1.1388
    1MOL   O235  235   6.354   1.565   7.505  0.6773  0.1370 -0.5320
    1MOL   H236  236   6.434   1.796   7.218  0.8766  0.2118 -2.3681
    1MOL   H237  237   6.294   1.889   7.190 -0.5710 -0.0603 -0.0551
    1MOL   H238  238   6.321   1.599   7.273 -1.8830 -1.4795 -0.3063
    1MOL   H239  239   6.408   1.834   7.633 -1.0217  1.0960  3.1930
    1MOL   H240  240   6.373   1.703   7.731  0.0354 -1.3186  0.4604
    1MOL   H241  241   6.239   1.798   7.678 -0.7756 -1.7286  0.9325
    1MOL   H242  242   6.158   1.664   7.242 -0.8599 -2.7323  3.5363
    2MOL     C1  243   0.819   0.232   4.093 -0.5135 -0.5916 -0.6005
    2MOL     C2  244   0.699   0.243   4.005 -0.0299 -0.6462  0.3921
    2MOL     O3  245   0.711   0.163   3.892 -0.3675  0.2930 -0.2990
    2MOL     C4  246   0.714   0.212   3.765 -0.2858  0.6533  0.0920
    2MOL     C5  247   0.745   0.105   3.659  0.0639 -0.2274 -0.3832
    2MOL     O6  248   0.694   0.328   3.733  0.0132  0.2774  0.0602
    2MOL     H7  249   0.839   0.126   4.110 -2.2347 -1.1022 -1.6854
    2MOL     H8  250   0.788   0.272   4.189 -2.8646 -1.6326 -0.9002
    2MOL     H9  251   0.690   0.348   3.977  0.4085 -0.4788  0.8951
    2MOL    H10  252   0.670   0.107   3.579  0.8169  1.2401 -1.0769
    2MOL    H11  253   0.753   0.003   3.697 -1.6096 -0.0486  0.4884
    2MOL    H12  254   0.842   0.137   3.620  0.6832  0.4463  1.6550
    2MOL    H13  255   0.905   0.282   4.048 -0.7465  0.7415  0.4102
    2MOL    C14  256   0.568   0.201   4.064  0.4274 -0.1741  0.1620
    2MOL    C15  257   0.525   0.271   4.193  0.4343 -0.5783  0.4546
    2MOL    O16  258   0.487   0.399   4.146  0.0867 -0.2373 -0.2190
    2MOL    C17  259   0.533   0.514   4.200  0.8495  1.0723 -0.4432
    2MOL    C18  260   0.451   0.637   4.172 -0.7544 -0.4278  0.1939
    2MOL    O19  261   0.623   0.518   4.280  0.3424  0.1322  0.6926
    2MOL    H20  262   0.484   0.194   3.995  0.4947 -2.3745  0.2765
    2MOL    H21  263   0.586   0.095   4.081 -1.5508 -0.3607  1.3269
    2MOL    H22  264   0.608   0.277   4.263  1.9489 -0.4803 -1.3153
    2MOL    H23  265   0.381   0.618   4.091  0.3012 -0.0708 -0.8165
    2MOL    H24  266   0.517   0.723   4.158 -0.4479 -0.7966 -0.6337
    2MOL    H25  267   0.386   0.667   4.254 -0.5654 -0.8662  0.5157
    2MOL    C26  268   0.399   0.213   4.281  0.5099  0.1212  0.3692
    2MOL    C27  269   0.419   0.069   4.329  0.3802 -0.3251 -0.3447
    2MOL    O28  270   0.560   0.063   4.375  0.0238 -0.5699 -0.3558
    2MOL    C29  271   0.623   7.971   4.355 -0.9205 -0.1428 -0.2755
    2MOL    C30  272   0.776   7.980   4.371  0.3496  0.1156  0.1541
    2MOL    O31  273   0.574   7.866   4.325  0.4569  0.2466 -0.1539
    2MOL    H32  274   0.396   0.285   4.363 -0.4792 -0.0189  0.4612
    2MOL    H33  275   0.304   0.231   4.233 -0.1402 -3.5639  0.1068
    2MOL    H34  276   0.414   0.007   4.239  1.6329  0.7254 -1.1436
    2MOL    H35  277   0.832   7.887   4.375 -0.0397 -0.2121 -1.5651
    2MOL    H36  278   0.782   0.005   4.469 -0.0071  0.4241  0.0352
    2MOL    H37  279   0.824   0.016   4.291  1.6600 -2.3128 -0.8502
    2MOL    C38  280   0.320   0.014   4.436 -0.6545 -0.1141  0.0171
    2MOL    C39  281   0.180   8.021   4.373 -0.3689 -0.3929  0.0338
    2MOL    O40  282   0.188   7.920   4.279 -0.0980 -0.3035  0.4981
    2MOL    C41  283   0.175   7.946   4.149  0.3245  0.5303  0.0442
    2MOL    C42  284   0.178   7.825   4.055 -0.4421 -0.4919  0.3647
    2MOL    O43  285   0.150   0.036   4.098  0.1866 -0.1527 -0.2541
    2MOL    H44  286   0.368   7.947   4.477  1.1055  0.8216 -0.0125
    2MOL    H45  287   0.324   0.090   4.513  1.0154 -1.4802  1.3075
    2MOL    H46  288   0.144   0.096   4.338 -1.8616 -1.7568 -2.2728
    2MOL    H47  289   0.270   7.767   4.066 -1.1596 -1.9383 -0.8843
    2MOL    H48  290   0.160   7.844   3.949  0.8169 -2.0672 -0.1547
    2MOL    H49  291   0.093   7.767   4.089 -0.4117 -0.6361  0.1987
    2MOL    C50  292   0.077   7.972   4.472 -0.3013 -0.4602  0.3185
    2MOL    C51  293   0.032   0.056   4.583 -0.2096 -0.1132  0.7965
    2MOL    O52  294   8.000   0.169   4.505  0.2037 -0.2673  0.4113
    2MOL    C53  295   0.050   0.282   4.505 -0.1888  0.1647  0.2400
    2MOL    C54  296   0.012   0.374   4.391 -0.3867  0.5598 -0.3419
    2MOL    O55  297   0.145   0.301   4.571  0.0472 -0.4280 -0.6187
    2MOL    H56  298   8.006   7.951   4.419 -0.2989 -0.7011  0.4097
    2MOL    H57  299   0.115   7.878   4.513  0.5972  0.3663  1.4441
    2MOL    H58  300   0.118   0.077   4.646 -0.2367  0.9483  0.4918
    2MOL    H59  301   7.929   0.369   4.361 -0.4531 -0.4948  0.0409
    2MOL    H60  302   0.062   0.344   4.298 -1.4209 -0.5532 -0.5495
    2MOL    H61  303   0.053   0.474   4.405  1.8992 -0.6683  2.0817
    2MOL    C62  304   7.944   0.006   4.676 -0.2578 -0.7994 -0.2633
    2MOL    C63  305   7.985   7.909   4.762  1.0034 -0.0779  0.2107
    2MOL    O64  306   0.048   7.956   4.869 -0.7341 -0.2886  0.3127
    2MOL    C65  307   0.173   7.919   4.881  0.0805  0.9727 -0.0668
    2MOL    C66  308   0.231   7.992   4.996  0.3265  0.0982 -0.3034
    2MOL    O67  309   0.234   7.834   4.813  0.3661 -0.5996  0.4671
    2MOL    H68  310   7.922   0.089   4.742 -0.9453 -2.1065  1.1832
    2MOL    H69  311   7.860   8.005   4.610  0.3527  0.7915 -1.6404
    2MOL    H70  312   0.018   7.842   4.695 -0.1023 -0.5833 -0.1949
    2MOL    H71  313   0.188   0.071   4.999 -1.9468 -0.8484 -0.0040
    2MOL    H72  314   0.337   8.013   4.982  0.3438 -0.2799 -0.7383
    2MOL    H73  315   0.198   7.935   5.082  0.5117  2.7107  1.5468
    2MOL    C74  316   7.866   7.821   4.813 -0.8424  0.0389 -0.6169
    2MOL    C75  317   7.915   7.701   4.890 -0.1473 -0.1999 -0.4234
    2MOL    O76  318   7.811   7.669   4.984  0.1541 -0.0965  0.4206
    2MOL    C77  319   7.823   7.690   5.118 -0.1781  0.3945  0.5639
    2MOL    C78  320   7.700   7.638   5.194  0.1714  0.1908 -0.6471
    2MOL    O79  321   7.927   7.709   5.181  0.5946  0.1416  0.1381
    2MOL    H80  322   7.795   7.877   4.873  0.2837 -1.1553  1.9510
    2MOL    H81  323   7.806   7.779   4.733  1.4472  0.5964 -2.7024
    2MOL    H82  324   8.006   7.727   4.944  1.3807 -1.0162 -2.5371
    2MOL    H83  325   7.691   7.701   5.283  3.8258 -0.2696  0.1338
    2MOL    H84  326   7.711   7.534   5.224 -1.8494  0.5054  1.4356
    2MOL    H85  327   7.612   7.635   5.130 -1.4217 -1.1247  1.5208
    2MOL    C86  328   7.953   7.579   4.802 -0.7017  0.0648  0.1303
    2MOL    C87  329   8.016   7.464   4.888 -0.2452  0.1840  1.0262
    2MOL    O88  330   7.902   7.382   4.912  0.1797 -0.1317 -0.6230
    2MOL    C89  331   7.890   7.316   5.032 -0.0573 -0.1539 -0.9555
    2MOL    C90  332   7.763   7.235   5.053 -0.6523 -0.0677 -0.3531
    2MOL    O91  333   7.967   7.325   5.129  0.2343 -0.3465 -0.5642
    2MOL    H92  334   7.871   7.537   4.744 -0.5790  1.1837 -0.8666
    2MOL    H93  335   0.008   7.623   4.738 -0.3921  0.8300  1.0201
    2MOL    H94  336   0.034   7.501   4.983 -0.2174 -0.9265  1.4558
    2MOL    H95  337   7.770   7.163   5.135 -0.9036 -0.0121 -0.2809
    2MOL    H96  338   7.734   7.175   4.966  1.3767  0.8668 -1.6977
    2MOL    H97  339   7.686   7.310   5.073 -1.9590 -1.3210 -0.5381
    2MOL    C98  340   0.092   7.371   4.820  0.0240 -0.5199 -0.4457
    2MOL    C99  341   0.239   7.423   4.802 -0.4189 -0.7196  0.8537
    2MOL   O100  342   0.252   7.515   4.696  0.3991  0.5001  0.6016
    2MOL   C101  343   0.282   7.476   4.575  0.2192 -0.3968 -0.3227
    2MOL   C102  344   0.308   7.599   4.484 -0.3206 -0.2704  0.5019
    2MOL   O103  345   0.299   7.366   4.530 -0.3529  0.9576  0.3094
    2MOL   H104  346   0.096   7.272   4.866 -0.2143  0.1162  0.9750
    2MOL   H105  347   0.047   7.346   4.724  0.8705 -1.8963 -0.5058
    2MOL   H106  348   0.314   7.347   4.782 -0.6724 -0.5678 -0.7489
    2MOL   H107  349   0.222   7.664   4.469  0.5077  0.3029 -1.7853
    2MOL   H108  350   0.327   7.558   4.385 -0.9371  0.6757 -0.0142
    2MOL   H109  351   0.388   7.662   4.523 -0.2717  0.7616 -1.2431
    2MOL   C110  352   0.304   7.486   4.925 -0.5359  0.2461  0.6494
    2MOL   C111  353   0.285   7.413   5.060  0.3954 -0.7222 -0.5742
    2MOL   O112  354   0.376   7.304   5.044  0.0650  0.6039  0.0684
    2MOL   C113  355   0.348   7.186   5.097 -0.0251 -0.6747  0.2372
    2MOL   C114  356   0.464   7.091   5.095 -0.0328  0.6763  0.3509
    2MOL   O115  357   0.244   7.155   5.157  0.6479  0.4410 -0.1124
    2MOL   H116  358   0.411   7.501   4.916 -0.7396 -0.0644 -2.7345
    2MOL   H117  359   0.266   7.588   4.939 -0.6812  0.3438 -0.4332
    2MOL   H118  360   0.179   7.388   5.065  0.5755 -1.8691 -2.0932
    2MOL   H119  361   0.461   7.027   5.006 -1.5040  0.3913  0.6048
    2MOL   H120  362   0.466   7.020   5.178  2.8788  2.0180  1.5256
    2MOL   H121  363   0.560   7.143   5.100 -0.1027  0.7226  1.1650
    2MOL   C122  364   0.328   7.502   5.179 -0.6140 -0.4932 -0.7593
    2MOL   C123  365   0.287   7.439   5.318  0.5349 -0.0742  0.0874
    2MOL   O124  366   0.364   7.487   5.423 -0.1632  0.2010 -0.5657
    2MOL   C125  367   0.480   7.426   5.456  0.2119 -1.0397 -0.3015
    2MOL   C126  368   0.542   7.495   5.570  0.7425  0.6032 -0.3349
    2MOL   O127  369   0.545   7.342   5.393  0.5590 -0.2971 -0.5004
    2MOL   H128  370   0.436   7.509   5.185 -0.4578 -3.4024  0.4648
    2MOL   H129  371   0.300   7.607   5.170  0.0119 -0.4368 -2.1900
    2MOL   H130  372   0.306   7.333   5.310 -1.0119 -0.4598  1.2120
    2MOL   H131  373   0.543   7.431   5.658  1.7185  1.1152  0.0294
    2MOL   H132  374   0.489   7.589   5.586 -2.3178 -0.6185 -2.6859
    2MOL   H133  375   0.644   7.514   5.538  0.6663 -1.1844 -1.7330
    2MOL   C134  376   0.139   7.466   5.344 -0.5390 -0.4386  0.0198
    2MOL   C135  377   0.091   7.562   5.454 -0.3521 -0.2159  0.4516
    2MOL   O136  378   0.150   7.698   5.423 -0.3539  0.3743  0.3413
    2MOL   C137  379   0.205   7.768   5.527  0.1715  0.1784  0.0513
    2MOL   C138  380   0.279   7.897   5.487 -0.4542 -0.1768 -0.5521
    2MOL   O139  381   0.197   7.734   5.646 -0.3003 -0.1469  0.4003
    2MOL   H140  382   0.097   7.490   5.246  0.3668  0.8902 -0.0542
    2MOL   H141  383   0.092   7.369   5.366 -0.2334 -0.4950  0.4247
    2MOL   H142  384   0.131   7.524   5.548  1.6610  2.5561  0.7883
    2MOL   H143  385   0.291   7.905   5.378  1.7207 -0.1192 -0.3271
    2MOL   H144  386   0.375   7.897   5.537 -1.1995 -0.6416  0.8873
    2MOL   H145  387   0.206   7.969   5.522  0.3248 -0.0700  0.8642
    2MOL   C146  388   7.956   7.568   5.477  0.3492 -0.4706  0.0023
    2MOL   C147  389   7.906   7.645   5.594  0.5362 -0.2794  0.3724
    2MOL   O148  390   7.770   7.673   5.569  0.2914  0.4312 -0.4250
    2MOL   C149  391   7.717   7.806   5.574  0.0040  0.1232  0.0878
    2MOL   C150  392   7.568   7.806   5.566  0.6037 -0.0698 -0.2720
    2MOL   O151  393   7.787   7.909   5.583  0.0726 -0.3831  0.9830
    2MOL   H152  394   7.905   7.592   5.384 -1.8370  0.4384  1.4219
    2MOL   H153  395   7.926   7.465   5.493  0.5561 -1.2154 -3.9450
    2MOL   H154  396   7.963   7.738   5.600 -2.6253  1.7233  0.1661
    2MOL   H155  397   7.550   7.705   5.605  0.4294  0.5115  1.1954
    2MOL   H156  398   7.516   7.817   5.471  0.5540  2.9066  0.0527
    2MOL   H157  399   7.532   7.884   5.633  2.8071  1.3788 -0.7355
    2MOL   C158  400   7.924   7.571   5.726 -0.2578  0.3573 -0.0830
    2MOL   C159  401   7.877   7.657   5.850 -0.2812  0.7453  0.8359
    2MOL   O160  402   7.824   7.581   5.961 -0.3409  0.0143 -0.2484
    2MOL   C161  403   7.896   7.497   6.034 -0.3842  0.0806 -0.5037
    2MOL   C162  404   7.808   7.425   6.134 -0.0326 -0.3145 -0.2751
    2MOL   O163  405   8.017   7.484   6.023  0.2339 -0.5525  0.1380
    2MOL   H164  406   7.881   7.471   5.725  2.7942 -1.0087 -0.9306
    2MOL   H165  407   0.010   7.553   5.726  0.0571  2.1286 -1.8245
    2MOL   H166  408   7.780   7.696   5.818  0.7007  2.0558 -0.5511
    2MOL   H167  409   7.757   7.506   6.187 -1.4420 -2.0255  1.0585
    2MOL   H168  410   7.867   7.364   6.203 -0.1876  1.9473  1.9300
    2MOL   H169  411   7.747   7.361   6.071  0.6644 -0.3233 -0.9449
    2MOL   C170  412   7.971   7.776   5.881 -0.5590 -0.7220 -0.0751
    2MOL   C171  413   7.891   7.905   5.919 -0.6410 -0.1573  1.0510
    2MOL   O172  414   7.824   7.877   6.039 -0.0245 -0.0457 -0.0697
    2MOL   C173  415   7.681   7.878   6.049  0.3173  0.2774 -0.7578
    2MOL   C174  416   7.631   7.874   6.190  0.2827 -0.1917 -0.5894
    2MOL   O175  417   7.611   7.899   5.953  0.4670  0.4952  0.1044
    2MOL   H176  418   0.022   7.741   5.955 -0.8329 -2.1995 -0.4936
    2MOL   H177  419   0.009   7.811   5.797  1.0643 -2.5839  0.2739
    2MOL   H178  420   7.824   7.925   5.836  0.1073 -1.9540 -0.0310
    2MOL   H179  421   7.635   7.965   6.249  0.9275 -1.8843  2.0663
    2MOL   H180  422   7.693   7.804   6.246  0.6311 -0.5275 -1.3898
    2MOL   H181  423   7.536   7.820   6.187  0.1996 -0.0224 -1.0726
    2MOL   C182  424   7.974   0.011   5.936  0.5851 -0.1472  0.2897
    2MOL   C183  425   7.887   0.137   5.959 -0.1895  0.7973 -0.1749
    2MOL   O184  426   7.968   0.247   6.003  0.0094  0.3890  0.5166
    2MOL   C185  427   7.975   0.271   6.134  0.4230  0.1312 -0.2142
    2MOL   C186  428   0.037   0.397   6.157 -0.4600  0.1766  0.5748
    2MOL   O187  429   7.927   0.201   6.222  0.6206 -0.7141  0.0233
    2MOL   H188  430   0.014   0.005   6.026  2.9022  2.4298 -1.0347
    2MOL   H189  431   0.020   0.017   5.850  2.6162 -1.7988  1.7025
    2MOL   H190  432   7.816   0.110   6.037  1.5766 -1.5861  0.6611
    2MOL   H191  433   8.020   0.486   6.108 -0.1080 -0.8748 -1.6434
    2MOL   H192  434   0.138   0.377   6.123 -0.9392 -2.7061  0.7096
    2MOL   H193  435   0.046   0.416   6.264 -1.2529 -0.2783  0.7262
    2MOL   C194  436   7.830   0.179   5.822 -0.7677 -0.8411 -0.3116
    2MOL   C195  437   7.770   0.318   5.816  0.4747 -0.9149 -0.0684
    2MOL   O196  438   7.784   0.376   5.687 -0.5406  0.2945 -0.4664
    2MOL   C197  439   7.850   0.495   5.668 -0.1580 -0.0782 -0.4209
    2MOL   C198  440   7.814   0.554   5.532  0.5517 -0.4352  0.3722
    2MOL   O199  441   7.943   0.533   5.737 -0.0528  0.0289  0.0209
    2MOL   H200  442   7.910   0.171   5.749  0.6834 -0.3914  1.1876
    2MOL   H201  443   7.757   0.107   5.787 -1.8786 -0.7989  1.8142
    2MOL   H202  444   7.812   0.392   5.884 -0.9784 -0.6744  0.5952
    2MOL   H203  445   7.771   0.654   5.528  0.4334 -0.5018 -0.1588
    2MOL   H204  446   7.745   0.489   5.478  0.9146  0.3507 -1.0593
    2MOL   H205  447   7.900   0.576   5.468  0.4649 -0.6485  0.1820
    2MOL   C206  448   7.618   0.308   5.839  0.3714  0.2715 -0.2313
    2MOL   C207  449   7.561   0.257   5.977 -0.4730  0.0820  0.4312
    2MOL   O208  450   7.592   0.346   6.074 -0.5981  0.4631  0.0899
    2MOL   C209  451   7.622   0.307   6.195  0.1717 -0.6351  0.5064
    2MOL   C210  452   7.681   0.417   6.280  0.0194 -0.1299  0.6724
    2MOL   O211  453   7.605   0.196   6.241  0.1621 -0.2538 -0.1931
    2MOL   H212  454   7.578   0.407   5.815  0.3829  0.1439 -0.7809
    2MOL   H213  455   7.576   0.235   5.770  0.7180 -1.7607  1.6385
    2MOL   H214  456   7.590   0.154   6.002  1.1099  0.4983  0.4011
    2MOL   H215  457   7.708   0.387   6.381 -0.1070 -1.5694  0.2889
    2MOL   H216  458   7.614   0.502   6.283 -2.3591 -1.8608 -0.9972
    2MOL   H217  459   7.775   0.443   6.230  0.3452 -0.3334  1.1718
    2MOL   C218  460   7.412   0.244   5.952  0.0274  0.0976 -0.5503
    2MOL   C219  461   7.334   0.195   6.074 -0.0184  0.0458  0.4135
    2MOL   O220  462   7.202   0.230   6.078  0.3167  0.1396  0.0274
    2MOL   C221  463   7.161   0.352   6.113 -0.5797 -0.9380  0.3797
    2MOL   C222  464   7.009   0.370   6.129 -0.4245  0.5891  0.1244
    2MOL   O223  465   7.240   0.442   6.132 -0.2881 -0.1821 -0.0764
    2MOL   H224  466   7.365   0.337   5.918 -0.1288  0.8805  1.7079
    2MOL   H225  467   7.389   0.166   5.879 -0.0866 -0.7089  0.3360
    2MOL   H226  468   7.380   0.241   6.161  0.2700 -0.5590  0.5825
    2MOL   H227  469   6.986   0.429   6.217  0.4061 -1.5763  1.8387
    2MOL   H228  470   6.953   0.277   6.138 -1.2952  1.0763 -0.2529
    2MOL   H229  471   6.971   0.432   6.048  0.2468  1.3196  0.3647
    2MOL   C230  472   7.332   0.043   6.098  0.7546 -0.1734  0.1813
    2MOL   C231  473   7.276   8.015   6.235 -1.1068 -0.4687 -0.8404
    2MOL   O232  474   7.294   7.875   6.247  0.6124 -0.1143  0.7841
    2MOL   C233  475   7.314   7.826   6.366 -0.1434  0.1285 -0.8546
    2MOL   C234  476   7.336   7.672   6.359 -0.3738 -0.3513 -0.5519
    2MOL   O235  477   7.315   7.888   6.471 -0.3246 -0.1754  0.8342
    2MOL   H236  478   7.293   0.003   6.004 -0.6919  0.2886  0.5686
    2MOL   H237  479   7.438   0.017   6.093  0.6376 -1.0039  1.5806
    2MOL   H238  480   7.167   0.006   6.240 -0.9774  0.2024  0.7094
    2MOL   H239  481   7.438   7.651   6.390 -0.7872  0.8052  1.6188
    2MOL   H240  482   7.325   7.638   6.255  1.4122  0.2230 -0.9453
    2MOL   H241  483   7.275   7.616   6.430  0.1864 -2.1258 -1.4344
    2MOL   H242  484   7.318   0.051   6.318 -2.4803  1.5612 -1.5156
    3MOL     C1  485   7.286   5.592   2.860 -0.7582 -0.0814 -0.7421
    3MOL     C2  486   7.278   5.453   2.926  0.3544 -0.2600  1.0069
    3MOL     O3  487   7.195   5.366   2.839  0.6838 -0.1491  0.4270
    3MOL     C4  488   7.078   5.333   2.874  0.3708  0.1239  0.3515
    3MOL     C5  489   6.993   5.268   2.768 -0.3251  1.0418  0.1826
    3MOL     O6  490   7.027   5.365   2.984  0.3710  0.1453  0.6237
    3MOL     H7  491   7.327   5.674   2.919  1.5391 -1.6615 -0.0749
    3MOL     H8  492   7.181   5.619   2.849 -0.4238  1.0740 -1.1793
    3MOL     H9  493   7.240   5.469   3.027 -1.5689  0.9962  0.1044
    3MOL    H10  494   7.044   5.287   2.674 -1.2606  2.1357 -0.1179
    3MOL    H11  495   6.890   5.305   2.771  0.2096  2.8149 -2.1893
    3MOL    H12  496   6.998   5.162   2.794  0.8027 -0.4176 -5.3931
    3MOL    H13  497   7.327   5.595   2.759  1.6195 -1.2878  0.1707
    3MOL    C14  498   7.421   5.391   2.952  0.1745 -1.0251  0.0879
    3MOL    C15  499   7.425   5.249   3.017 -0.3062  0.0393  0.0356
    3MOL    O16  500   7.562   5.232   3.044 -1.0833  0.7990 -0.2303
    3MOL    C17  501   7.633   5.157   2.957  0.0894  0.3993  0.2332
    3MOL    C18  502   7.784   5.161   2.990  0.9133  0.0079  0.7483
    3MOL    O19  503   7.589   5.096   2.866  0.4386  0.0779 -0.4043
    3MOL    H20  504   7.473   5.382   2.857  0.4479  0.4277  0.0871
    3MOL    H21  505   7.478   5.470   3.002  2.1690 -2.2790 -0.1589
    3MOL    H22  506   7.382   5.169   2.956 -0.0595 -1.3399  1.6376
    3MOL    H23  507   7.802   5.155   3.097  1.5499  5.0656  1.0830
    3MOL    H24  508   7.837   5.244   2.942 -0.4904  0.6517  0.2741
    3MOL    H25  509   7.830   5.067   2.960  0.3098  0.2507 -1.0381
    3MOL    C26  510   7.347   5.252   3.155 -0.2885  0.0561 -0.6687
    3MOL    C27  511   7.353   5.131   3.247  0.5026 -0.2418  0.5452
    3MOL    O28  512   7.287   5.166   3.367 -0.2597 -0.1440  0.4723
    3MOL    C29  513   7.338   5.146   3.486 -0.0013 -0.3456  0.1812
    3MOL    C30  514   7.244   5.168   3.604  0.1840  0.2539 -0.5816
    3MOL    O31  515   7.454   5.115   3.502 -0.1360  0.3041 -0.3081
    3MOL    H32  516   7.387   5.340   3.204 -0.4983 -0.9813  1.4378
    3MOL    H33  517   7.240   5.256   3.132 -1.1496 -2.3699  2.5393
    3MOL    H34  518   7.457   5.111   3.272  0.5626 -0.3534  0.2119
    3MOL    H35  519   7.189   5.259   3.582 -0.6073  0.1483  0.8767
    3MOL    H36  520   7.309   5.176   3.690 -0.7655 -1.3143  0.3215
    3MOL    H37  521   7.172   5.086   3.616 -0.0538  0.4038 -0.9666
    3MOL    C38  522   7.296   5.012   3.173  1.1133 -0.3334 -0.3025
    3MOL    C39  523   7.317   4.882   3.258 -0.1753 -0.4514  0.0311
    3MOL    O40  524   7.193   4.840   3.303  0.1276  0.1256 -0.0497
    3MOL    C41  525   7.166   4.813   3.435  0.1177 -0.4102 -0.0042
    3MOL    C42  526   7.036   4.747   3.456  0.7629 -0.6440  0.3512
    3MOL    O43  527   7.242   4.847   3.524 -0.4789  0.4313  0.3837
    3MOL    H44  528   7.190   5.021   3.149  0.8414  0.7509  1.2357
    3MOL    H45  529   7.351   5.007   3.079 -1.7053  0.1220 -2.0277
    3MOL    H46  530   7.381   4.907   3.343 -1.7913  1.5728  0.6983
    3MOL    H47  531   7.057   4.640   3.467  4.1892 -0.0762 -0.0815
    3MOL    H48  532   6.969   4.759   3.370 -0.0156  1.3012  1.2176
    3MOL    H49  533   6.990   4.777   3.549 -1.0642  0.5973 -0.9258
    3MOL    C50  534   7.387   4.765   3.182  0.0541 -0.0478 -0.4739
    3MOL    C51  535   7.530   4.785   3.147 -0.6896 -0.5296  0.2378
    3MOL    O52  536   7.583   4.813   3.273  0.4128 -0.4810  0.5085
    3MOL    C53  537   7.677   4.906   3.296  0.5267 -0.5132  0.0982
    3MOL    C54  538   7.694   4.923   3.445 -0.0499  0.0040  0.0835
    3MOL    O55  539   7.754   4.964   3.218 -0.1766  0.1394 -0.0751
    3MOL    H56  540   7.386   4.675   3.244 -0.0212  0.5254  0.3703
    3MOL    H57  541   7.339   4.759   3.084  1.8169 -3.4499 -1.2035
    3MOL    H58  542   7.550   4.859   3.070  1.4970 -0.4964  0.8017
    3MOL    H59  543   7.788   4.871   3.460 -0.6169 -0.8247  0.7805
    3MOL    H60  544   7.623   4.861   3.500  1.0193  0.8408  2.4483
    3MOL    H61  545   7.681   5.029   3.468  1.1968  0.5217 -1.5202
    3MOL    C62  546   7.600   4.664   3.083 -0.8226 -0.1330 -0.5143
    3MOL    C63  547   7.537   4.598   2.952  0.5022  0.6186 -0.0449
    3MOL    O64  548   7.579   4.671   2.838 -0.0362  0.0971  0.5180
    3MOL    C65  549   7.484   4.747   2.773 -0.4319 -0.3175  0.3799
    3MOL    C66  550   7.518   4.792   2.631  0.0788  0.1637 -0.2654
    3MOL    O67  551   7.366   4.764   2.813  0.5947  0.4885 -0.3856
    3MOL    H68  552   7.702   4.689   3.053  0.3314 -0.3068  3.0862
    3MOL    H69  553   7.611   4.587   3.159  0.3310  1.2298  0.7333
    3MOL    H70  554   7.429   4.608   2.964  0.5515 -0.5217  1.3905
    3MOL    H71  555   7.496   4.897   2.615  2.1712  0.2113 -3.0908
    3MOL    H72  556   7.482   4.727   2.552  1.2111  0.6493 -1.2024
    3MOL    H73  557   7.625   4.790   2.612 -0.0645  0.4426 -1.0967
    3MOL    C74  558   7.578   4.452   2.918 -0.3097  0.3078  0.3549
    3MOL    C75  559   7.727   4.415   2.932 -0.0535  0.1788  0.2739
    3MOL    O76  560   7.749   4.389   3.070 -0.9458 -0.0645  0.3191
    3MOL    C77  561   7.870   4.417   3.127  0.2652  0.6821 -0.6817
    3MOL    C78  562   7.847   4.431   3.269  0.6113  0.0646 -0.2453
    3MOL    O79  563   7.973   4.419   3.069 -0.4873 -0.1563 -0.5214
    3MOL    H80  564   7.516   4.383   2.976 -1.1474 -1.3467 -2.4252
    3MOL    H81  565   7.546   4.444   2.814  3.9910  0.4952 -1.1000
    3MOL    H82  566   7.785   4.499   2.893 -0.3401  1.6790  2.9439
    3MOL    H83  567   7.926   4.388   3.331  2.7434  1.1663 -2.1451
    3MOL    H84  568   7.756   4.387   3.308  0.2953  2.6160  2.0034
    3MOL    H85  569   7.852   4.537   3.292  0.0497 -0.0117  0.2336
    3MOL    C86  570   7.759   4.287   2.850 -0.4957 -0.1813 -0.3082
    3MOL    C87  571   7.783   4.305   2.699 -0.5688  0.1006 -0.1932
    3MOL    O88  572   7.920   4.347   2.686 -0.1648 -0.1781  0.1474
    3MOL    C89  573   7.945   4.467   2.631 -0.0066  0.6491  0.0983
    3MOL    C90  574   0.070   4.493   2.628  0.0037 -0.7888 -0.0330
    3MOL    O91  575   7.863   4.553   2.611 -0.1808 -0.1972  0.6364
    3MOL    H92  576   7.847   4.241   2.895 -0.2131  0.6898  0.0561
    3MOL    H93  577   7.683   4.215   2.878 -1.6482  1.8672  2.0202
    3MOL    H94  578   7.703   4.376   2.676 -0.1763  0.9835  1.1308
    3MOL    H95  579   0.104   4.487   2.731 -0.6662 -0.4289  0.2106
    3MOL    H96  580   0.097   4.595   2.602  0.5922 -0.8492  0.3328
    3MOL    H97  581   0.125   4.428   2.560  2.9015 -0.4794  1.9550
    3MOL    C98  582   7.765   4.169   2.623  0.5211  0.1777  0.4276
    3MOL    C99  583   7.615   4.118   2.623 -0.2674  0.0206  0.0123
    3MOL   O100  584   7.522   4.214   2.595 -0.4954 -0.6024 -0.3065
    3MOL   C101  585   7.408   4.213   2.665 -0.5415 -0.4998  0.0781
    3MOL   C102  586   7.316   4.321   2.610  0.0567  0.4394 -0.2969
    3MOL   O103  587   7.381   4.150   2.765  0.0590  0.1551  0.0872
    3MOL   H104  588   7.806   4.198   2.526  0.7744 -2.2850 -0.2211
    3MOL   H105  589   7.838   4.094   2.653  1.3632  0.2901 -1.2222
    3MOL   H106  590   7.598   4.056   2.712 -0.2655  0.6520  0.4570
    3MOL   H107  591   7.352   4.361   2.515  0.1485 -0.2022 -0.5360
    3MOL   H108  592   7.315   4.402   2.683  1.7524  0.7930 -0.6335
    3MOL   H109  593   7.211   4.293   2.610  0.0368  0.3484  3.1615
    3MOL   C110  594   7.612   4.004   2.523  0.4667 -0.6025 -0.1107
    3MOL   C111  595   7.478   3.919   2.535  0.3291 -0.1798 -0.0947
    3MOL   O112  596   7.476   3.832   2.418 -1.0196  0.0535 -0.0097
    3MOL   C113  597   7.413   3.869   2.302  0.0637 -0.1278  0.1840
    3MOL   C114  598   7.427   3.778   2.180  0.1318 -0.7494 -0.2454
    3MOL   O115  599   7.361   3.981   2.280  0.9283  0.1360 -0.0879
    3MOL   H116  600   7.617   4.059   2.429  1.4961  2.2619  1.5628
    3MOL   H117  601   7.707   3.951   2.525  0.7012 -0.2069 -0.5841
    3MOL   H118  602   7.387   3.978   2.539  1.9084  2.4527 -1.3172
    3MOL   H119  603   7.364   3.805   2.095  2.0781 -1.5771 -1.9677
    3MOL   H120  604   7.391   3.676   2.195  0.1564 -1.0277 -1.9793
    3MOL   H121  605   7.529   3.767   2.144  1.0600 -1.6792  2.5239
    3MOL   C122  606   7.473   3.827   2.659 -0.2600  0.1871 -0.4341
    3MOL   C123  607   7.338   3.758   2.692  0.0402 -0.0022 -0.6026
    3MOL   O124  608   7.275   3.706   2.571 -0.1144 -0.3126  0.2236
    3MOL   C125  609   7.165   3.751   2.521 -0.0205  1.1769 -0.0116
    3MOL   C126  610   7.119   3.685   2.389  0.1922 -0.5285 -0.9631
    3MOL   O127  611   7.107   3.845   2.565  0.2581 -0.2105 -0.0290
    3MOL   H128  612   7.537   3.742   2.635  0.6523  0.9895 -0.8770
    3MOL   H129  613   7.530   3.868   2.742  1.0578 -0.4723 -1.0051
    3MOL   H130  614   7.264   3.827   2.730  0.9304 -0.4518  2.0476
    3MOL   H131  615   7.167   3.737   2.306  1.5424  0.6674  0.5346
    3MOL   H132  616   7.010   3.696   2.385  0.4176  1.6087 -2.4890
    3MOL   H133  617   7.146   3.579   2.393 -0.9804 -0.7427  2.3864
    3MOL   C134  618   7.363   3.642   2.788  0.1897  0.0391 -0.1098
    3MOL   C135  619   7.432   3.672   2.926 -0.3814  0.3827 -0.3099
    3MOL   O136  620   7.347   3.642   3.034  0.6031 -0.1827 -0.4521
    3MOL   C137  621   7.312   3.737   3.127 -0.5583  0.5761  0.5659
    3MOL   C138  622   7.238   3.683   3.243  0.0689 -0.6293 -0.2623
    3MOL   O139  623   7.342   3.855   3.117  0.1696 -0.3253 -0.0774
    3MOL   H140  624   7.259   3.618   2.812  0.3193  0.6030  1.0451
    3MOL   H141  625   7.409   3.559   2.734  0.9827  0.1588  0.3719
    3MOL   H142  626   7.453   3.778   2.915  0.0699  0.3874  0.5679
    3MOL   H143  627   7.139   3.665   3.200 -0.7405 -1.0253  1.7075
    3MOL   H144  628   7.235   3.754   3.326  1.0424 -1.6024  0.6186
    3MOL   H145  629   7.277   3.587   3.279  0.4870 -0.3077  0.1426
    3MOL   C146  630   7.562   3.594   2.944 -0.3093 -0.4919 -0.4067
    3MOL   C147  631   7.690   3.669   2.910  0.4735 -0.0182  0.5971
    3MOL   O148  632   7.692   3.782   3.007  0.0747 -0.2052 -0.0344
    3MOL   C149  633   7.728   3.905   2.972  0.3396  0.2925 -0.2235
    3MOL   C150  634   7.700   3.993   3.090 -0.0276 -0.3833 -0.2162
    3MOL   O151  635   7.777   3.942   2.860  0.0124  0.1568 -0.7194
    3MOL   H152  636   7.565   3.551   3.045  1.3014  3.0013  1.0956
    3MOL   H153  637   7.561   3.508   2.877  1.0784  0.7652 -2.0933
    3MOL   H154  638   7.673   3.714   2.813  2.9617 -1.7130 -0.6704
    3MOL   H155  639   7.593   3.984   3.112  0.0150 -1.4486 -0.4083
    3MOL   H156  640   7.748   4.090   3.081 -2.6698  0.9306 -0.5542
    3MOL   H157  641   7.749   3.942   3.174 -0.4345 -0.5230 -0.0603
    3MOL   C158  642   7.823   3.580   2.920 -0.6939 -0.2641 -0.0311
    3MOL   C159  643   7.949   3.650   2.861 -0.6481 -0.3441 -0.4042
    3MOL   O160  644   8.014   3.721   2.961  0.5899 -0.5443 -0.0643
    3MOL   C161  645   0.062   3.826   2.942 -0.2661  0.2500  0.2972
    3MOL   C162  646   0.111   3.883   3.063  0.0021  0.4296 -0.3096
    3MOL   O163  647   0.083   3.878   2.831 -0.1895 -0.8029  0.4520
    3MOL   H164  648   7.853   3.556   3.023 -1.1490 -1.0004 -0.0669
    3MOL   H165  649   7.807   3.487   2.865  0.2181 -1.0624  1.0069
    3MOL   H166  650   7.917   3.709   2.775 -0.2711 -0.0539 -0.3427
    3MOL   H167  651   0.053   3.970   3.093 -4.4151 -3.6522  3.7645
    3MOL   H168  652   0.219   3.887   3.053  0.0191  0.3292 -0.1731
    3MOL   H169  653   0.099   3.815   3.148  2.8971 -0.6997 -0.7623
    3MOL   C170  654   0.039   3.551   2.814  0.5451 -0.3043 -0.8886
    3MOL   C171  655   0.002   3.456   2.701  0.0452 -0.3785  0.1174
    3MOL   O172  656   7.999   3.512   2.570  0.6455 -0.1876 -0.0895
    3MOL   C173  657   7.874   3.563   2.543 -0.1608  0.7174  0.1553
    3MOL   C174  658   7.865   3.637   2.416  0.3588  0.1001 -0.7657
    3MOL   O175  659   7.769   3.554   2.608  0.4905 -0.2264  0.3732
    3MOL   H176  660   0.122   3.607   2.771  0.9005  0.2511  0.5200
    3MOL   H177  661   0.069   3.497   2.903 -1.5673  2.7145  1.7839
    3MOL   H178  662   7.927   3.412   2.727 -0.0830 -2.2789 -3.2397
    3MOL   H179  663   7.963   3.667   2.378  1.2900 -0.2141  1.3321
    3MOL   H180  664   7.810   3.731   2.426 -1.5647 -1.2193  1.6226
    3MOL   H181  665   7.817   3.574   2.341  1.6069 -2.5042  0.5846
    3MOL   C182  666   0.100   3.340   2.679 -0.0901 -0.2377  0.0200
    3MOL   C183  667   0.061   3.231   2.583  0.6680  0.2766 -0.0392
    3MOL   O184  668   0.145   3.119   2.602 -0.0155 -0.4924 -0.0338
    3MOL   C185  669   0.263   3.108   2.536 -0.0023 -0.1427  0.3540
    3MOL   C186  670   0.331   2.980   2.559  0.4210  0.9076 -0.4337
    3MOL   O187  671   0.311   3.188   2.456 -0.2509 -0.3785  0.5663
    3MOL   H188  672   0.197   3.373   2.642  0.3829  2.3348  3.2229
    3MOL   H189  673   0.128   3.301   2.777  0.7200 -0.7559 -0.4137
    3MOL   H190  674   0.072   3.264   2.480 -0.9249 -3.3048 -1.4588
    3MOL   H191  675   0.269   2.898   2.596 -0.0191  0.7632 -1.4857
    3MOL   H192  676   0.419   2.988   2.623  0.3442 -0.2392 -0.1730
    3MOL   H193  677   0.362   2.930   2.468 -2.4231 -0.5998 -0.6180
    3MOL   C194  678   7.933   3.180   2.593 -0.1719 -0.2545  0.2671
    3MOL   C195  679   7.863   3.151   2.730  0.0085 -0.6331 -0.2727
    3MOL   O196  680   7.717   3.126   2.707 -0.4811 -0.2148  0.1755
    3MOL   C197  681   7.616   3.167   2.794  0.0484  0.4611  0.9214
    3MOL   C198  682   7.481   3.114   2.756 -0.0969  0.1455  0.0570
    3MOL   O199  683   7.634   3.215   2.903  0.7286 -0.4477 -0.0491
    3MOL   H200  684   7.875   3.255   2.541 -0.6465 -1.0266 -0.3225
    3MOL   H201  685   7.939   3.086   2.539  1.3488  0.4491 -0.8272
    3MOL   H202  686   7.863   3.243   2.787  0.4686 -0.6640 -0.2205
    3MOL   H203  687   7.466   3.038   2.833 -1.6787 -1.8788 -2.1657
    3MOL   H204  688   7.477   3.072   2.656  0.6925  0.9612 -0.3223
    3MOL   H205  689   7.408   3.193   2.774 -0.3861 -0.1669  0.2629
    3MOL   C206  690   7.911   3.036   2.821  0.2120 -0.3897 -0.3143
    3MOL   C207  691   0.014   3.061   2.907 -0.1858  0.2433 -0.3080
    3MOL   O208  692   8.015   3.168   3.003 -0.2163 -0.0202 -0.5341
    3MOL   C209  693   7.923   3.166   3.096 -0.0351 -0.4764 -0.3001
    3MOL   C210  694   7.922   3.293   3.179  0.5759  0.1388  0.6001
    3MOL   O211  695   7.852   3.073   3.118 -0.1248  0.5981 -0.3142
    3MOL   H212  696   7.831   2.992   2.880  1.8325 -0.8081  1.5846
    3MOL   H213  697   7.930   2.948   2.759 -1.5151 -0.0122 -1.4373
    3MOL   H214  698   0.080   3.106   2.833 -1.6470  1.0896 -1.1185
    3MOL   H215  699   7.833   3.354   3.162  0.2437 -0.9158 -1.4811
    3MOL   H216  700   8.017   3.346   3.182  0.5697  0.1420  0.7342
    3MOL   H217  701   7.902   3.267   3.283 -0.5549  2.8745  1.1099
    3MOL   C218  702   0.081   2.932   2.971  0.1843 -0.6995 -0.0315
    3MOL   C219  703   0.230   2.937   2.990  0.3115  0.1854  0.4184
    3MOL   O220  704   0.250   3.064   3.046  0.2845 -0.0216  0.1530
    3MOL   C221  705   0.333   3.151   2.991 -0.2516  0.0697 -0.7421
    3MOL   C222  706   0.350   3.276   3.080  0.6927  0.7927  0.5304
    3MOL   O223  707   0.389   3.142   2.887 -0.5654  0.3768 -0.2588
    3MOL   H224  708   0.028   2.923   3.066  0.3053  0.4554  0.1460
    3MOL   H225  709   0.051   2.844   2.914 -0.9300  0.4908 -1.3273
    3MOL   H226  710   0.280   2.925   2.893 -1.1898 -2.1717 -0.0978
    3MOL   H227  711   0.454   3.306   3.071  1.1604 -0.8032  0.3784
    3MOL   H228  712   0.341   3.256   3.186  0.0983  1.6386  0.6449
    3MOL   H229  713   0.283   3.354   3.044 -0.4558 -0.6565 -0.5561
    3MOL   C230  714   0.282   2.825   3.080  0.4378  0.0326  1.1091
    3MOL   C231  715   0.435   2.805   3.073 -0.1064 -0.2089 -0.0227
    3MOL   O232  716   0.493   2.895   3.169 -0.0271 -0.1785  0.4655
    3MOL   C233  717   0.624   2.887   3.202 -0.1717  0.1209 -0.4970
    3MOL   C234  718   0.674   2.990   3.307 -0.7558 -0.1049 -0.1434
    3MOL   O235  719   0.699   2.813   3.141  0.2699 -0.2686 -0.5220
    3MOL   H236  720   0.259   2.839   3.186 -0.7049  1.8871  0.6297
    3MOL   H237  721   0.242   2.730   3.047 -1.8235  1.3648 -0.0554
    3MOL   H238  722   0.473   2.836   2.975 -1.6436 -1.4856 -1.0531
    3MOL   H239  723   0.762   3.048   3.279  0.1914 -1.3344  0.2151
    3MOL   H240  724   0.708   2.938   3.397 -0.0449  3.2038  1.5742
    3MOL   H241  725   0.596   3.064   3.325  0.1070  0.9548 -0.6593
    3MOL   H242  726   0.472   2.704   3.087  1.2308  0.3931  0.9601
    4MOL     C1  727   4.219   6.465   2.505  0.4510 -0.3583  0.5342
    4MOL     C2  728   4.210   6.351   2.605  0.5671 -0.1099  0.7474
    4MOL     O3  729   4.132   6.405   2.718  0.5323  0.0542 -0.2432
    4MOL     C4  730   4.189   6.403   2.841 -0.2791  0.1635 -0.8458
    4MOL     C5  731   4.100   6.451   2.951  0.3843 -0.7059  0.3863
    4MOL     O6  732   4.309   6.382   2.853 -0.3602  0.4334 -0.3323
    4MOL     H7  733   4.277   6.542   2.557 -1.5562  1.2470  0.4716
    4MOL     H8  734   4.118   6.501   2.485  0.9638  1.6538  1.3838
    4MOL     H9  735   4.315   6.337   2.632  1.1136 -0.0390 -1.2430
    4MOL    H10  736   4.077   6.553   2.922  2.2082  0.2100  1.9738
    4MOL    H11  737   4.152   6.454   3.047  1.3563 -0.7972 -0.1345
    4MOL    H12  738   4.015   6.383   2.960 -0.2686 -0.0179 -0.5214
    4MOL    H13  739   4.265   6.445   2.408 -1.9465 -1.0928 -0.4911
    4MOL    C14  740   4.148   6.216   2.558 -0.3975 -0.2468 -0.0717
    4MOL    C15  741   4.218   6.148   2.440  0.0087  0.5275  0.0775
    4MOL    O16  742   4.365   6.138   2.460  0.2467 -0.1178  0.1756
    4MOL    C17  743   4.452   6.112   2.355 -0.1141 -0.0753 -0.1491
    4MOL    C18  744   4.596   6.130   2.404  0.2057  0.6469  0.1051
    4MOL    O19  745   4.432   6.062   2.244 -0.0886 -0.7004  0.3740
    4MOL    H20  746   4.140   6.144   2.638  0.6098 -0.1951  0.0895
    4MOL    H21  747   4.048   6.252   2.535  0.9915  3.3550 -0.8671
    4MOL    H22  748   4.205   6.204   2.347 -0.0603  0.0353 -0.2111
    4MOL    H23  749   4.668   6.078   2.340 -0.4472  2.2728 -2.0166
    4MOL    H24  750   4.579   6.075   2.497  1.8061  0.2462  0.1855
    4MOL    H25  751   4.636   6.231   2.408  1.9258 -0.0376  0.7786
    4MOL    C26  752   4.161   6.007   2.414 -0.8700 -0.9005 -0.5471
    4MOL    C27  753   4.007   5.995   2.382  0.1481 -0.5309  0.3232
    4MOL    O28  754   3.974   6.061   2.260  0.0010  0.3943  0.4929
    4MOL    C29  755   3.863   6.123   2.250 -0.7169 -0.0903 -0.3711
    4MOL    C30  756   3.841   6.202   2.117 -0.1034  0.1150  0.0104
    4MOL    O31  757   3.768   6.117   2.330 -0.2407  0.0360 -0.3466
    4MOL    H32  758   4.202   5.956   2.326 -1.7347  2.0928 -2.7457
    4MOL    H33  759   4.189   5.941   2.496  0.7423  2.3489  1.6126
    4MOL    H34  760   3.954   6.043   2.465  1.0362  1.1613 -0.0633
    4MOL    H35  761   3.840   6.308   2.145 -1.0704  0.7253 -2.2700
    4MOL    H36  762   3.740   6.178   2.084 -0.2869  0.9055 -0.0332
    4MOL    H37  763   3.913   6.193   2.036 -0.2821  1.0117 -0.2549
    4MOL    C38  764   3.966   5.852   2.371  0.4476  0.1054  0.1096
    4MOL    C39  765   3.963   5.770   2.508  0.0559 -0.0880 -0.4187
    4MOL    O40  766   3.869   5.849   2.584  0.5879 -0.1276 -0.9020
    4MOL    C41  767   3.888   5.869   2.718 -0.6395 -0.1165 -0.3628
    4MOL    C42  768   3.767   5.917   2.789 -0.1290 -1.1385 -0.4836
    4MOL    O43  769   3.976   5.822   2.785 -0.0497 -0.6188  0.3339
    4MOL    H44  770   3.867   5.835   2.329  0.1519  1.1878  0.3532
    4MOL    H45  771   4.045   5.799   2.318  0.8902  1.2381 -0.3794
    4MOL    H46  772   4.058   5.788   2.558  0.3348  1.6498 -1.5367
    4MOL    H47  773   3.799   5.970   2.879 -3.7720 -1.2631  0.9847
    4MOL    H48  774   3.710   5.832   2.826 -2.0644  0.2447 -0.2159
    4MOL    H49  775   3.704   5.984   2.731  0.0660 -1.6646 -1.3096
    4MOL    C50  776   3.916   5.620   2.498  0.1713 -0.4958  0.7591
    4MOL    C51  777   3.949   5.521   2.612  0.3089  0.2697  0.0364
    4MOL    O52  778   3.891   5.392   2.599  0.1764  0.0006  0.7040
    4MOL    C53  779   3.763   5.386   2.627 -0.1172  0.0040  0.1904
    4MOL    C54  780   3.717   5.243   2.610  0.1632 -0.1601  0.1691
    4MOL    O55  781   3.695   5.473   2.678  0.2897  0.0200 -0.6840
    4MOL    H56  782   3.809   5.624   2.482  0.0999 -1.9967  0.8629
    4MOL    H57  783   3.948   5.571   2.406 -1.6612  0.8040 -0.6019
    4MOL    H58  784   3.916   5.548   2.712 -1.1083 -0.1636 -0.3028
    4MOL    H59  785   3.797   5.175   2.641 -0.5976 -0.9151  0.4882
    4MOL    H60  786   3.704   5.236   2.502 -0.0745 -0.8668  0.2374
    4MOL    H61  787   3.621   5.215   2.654 -0.8379 -0.2475 -2.0068
    4MOL    C62  788   4.104   5.498   2.625  0.4991 -0.1480 -0.0473
    4MOL    C63  789   4.154   5.464   2.765 -0.3019 -0.4582 -0.2081
    4MOL    O64  790   4.153   5.321   2.779  0.1872 -0.5156 -1.0802
    4MOL    C65  791   4.058   5.258   2.860 -0.2468  0.4038 -0.2709
    4MOL    C66  792   4.074   5.109   2.860  0.2821 -0.5566  0.2953
    4MOL    O67  793   3.960   5.310   2.913  0.1314 -0.4439 -0.3112
    4MOL    H68  794   4.124   5.414   2.559 -0.3320  0.6846 -1.3806
    4MOL    H69  795   4.156   5.584   2.581  1.8523 -1.5163 -1.1732
    4MOL    H70  796   4.095   5.510   2.844 -0.1597 -0.0878 -0.3181
    4MOL    H71  797   3.974   5.067   2.846  0.2226 -1.0365  2.0040
    4MOL    H72  798   4.100   5.086   2.963 -0.9562  2.2766  1.2937
    4MOL    H73  799   4.146   5.072   2.787  0.3466 -0.5855  0.3743
    4MOL    C74  800   4.303   5.500   2.782  0.0537  0.0190 -0.1034
    4MOL    C75  801   4.343   5.520   2.931  0.0021  0.4328 -0.8007
    4MOL    O76  802   4.323   5.405   3.011  0.2715 -0.0281 -0.7962
    4MOL    C77  803   4.273   5.414   3.136 -0.1116 -0.0983  0.0044
    4MOL    C78  804   4.248   5.276   3.201  0.7841  0.5097  0.2503
    4MOL    O79  805   4.249   5.518   3.194  0.2674  0.1440  0.2675
    4MOL    H80  806   4.357   5.416   2.736 -0.5163 -0.9357  0.9408
    4MOL    H81  807   4.320   5.598   2.738 -0.0591  0.7410  1.4410
    4MOL    H82  808   4.280   5.600   2.970 -1.7658  0.0207 -2.7219
    4MOL    H83  809   4.142   5.253   3.218  0.9195  0.4503  1.0419
    4MOL    H84  810   4.302   5.255   3.293 -0.9392 -1.5667  0.8381
    4MOL    H85  811   4.288   5.198   3.138 -2.5037 -1.5835  0.6201
    4MOL    C86  812   4.492   5.565   2.955  0.4842 -0.4991 -0.2444
    4MOL    C87  813   4.532   5.692   2.873 -0.3898 -0.3261  0.7449
    4MOL    O88  814   4.446   5.792   2.920  0.2714  0.3042 -0.4463
    4MOL    C89  815   4.366   5.865   2.837 -0.4337  0.2874  0.4820
    4MOL    C90  816   4.265   5.955   2.904 -0.8882  0.1555 -0.3530
    4MOL    O91  817   4.362   5.845   2.714  0.0569  0.5333  0.0900
    4MOL    H92  818   4.500   5.589   3.061 -0.4275  0.8081 -0.4493
    4MOL    H93  819   4.560   5.487   2.922  1.0679 -0.0112 -0.2076
    4MOL    H94  820   4.509   5.664   2.770 -0.8547 -0.3687  0.8592
    4MOL    H95  821   4.308   6.015   2.984 -0.9119  0.2278 -0.3950
    4MOL    H96  822   4.177   5.907   2.946 -0.0707  0.2756  1.5581
    4MOL    H97  823   4.226   6.023   2.828 -1.2990 -0.4275 -0.6687
    4MOL    C98  824   4.670   5.742   2.910 -0.6249  0.2678  0.6645
    4MOL    C99  825   4.777   5.632   2.882 -0.4681  0.3861 -0.1295
    4MOL   O100  826   4.884   5.699   2.818 -0.1475  0.3977 -0.2316
    4MOL   C101  827   4.901   5.697   2.684 -0.5075 -0.3645  0.4076
    4MOL   C102  828   5.003   5.804   2.648  0.4241 -1.2655 -0.2078
    4MOL   O103  829   4.854   5.615   2.603  0.3233 -1.0144 -0.0194
    4MOL   H104  830   4.690   5.830   2.848 -2.6669  1.4854  1.7006
    4MOL   H105  831   4.668   5.774   3.014 -2.2360  0.7126  0.5163
    4MOL   H106  832   4.739   5.555   2.815  0.4465  0.2351 -0.4830
    4MOL   H107  833   5.085   5.780   2.717 -0.9493 -0.5816  1.7109
    4MOL   H108  834   4.969   5.901   2.685 -1.1159 -1.6112 -0.6931
    4MOL   H109  835   5.027   5.810   2.542 -1.1285  0.0992 -0.4993
    4MOL   C110  836   4.843   5.588   3.011 -0.0037  0.0137 -0.0292
    4MOL   C111  837   4.877   5.437   3.001 -0.3131 -0.1706  0.3169
    4MOL   O112  838   4.948   5.412   2.878 -0.6152  0.5234 -0.2323
    4MOL   C113  839   4.921   5.296   2.814 -0.2493  0.3428  0.5482
    4MOL   C114  840   4.997   5.281   2.676 -0.2475 -0.3302  0.2943
    4MOL   O115  841   4.841   5.210   2.849  0.7951  0.4569  0.0366
    4MOL   H116  842   4.928   5.652   3.033 -0.7647  0.8539  0.5278
    4MOL   H117  843   4.785   5.584   3.103  2.2764 -1.4468  1.3892
    4MOL   H118  844   4.780   5.388   2.999 -0.8203  0.7390  1.6744
    4MOL   H119  845   5.058   5.371   2.670 -0.8319 -0.0049 -1.0959
    4MOL   H120  846   4.929   5.287   2.591 -0.1121 -0.4314  0.1775
    4MOL   H121  847   5.052   5.187   2.676 -1.1650 -0.8714  0.7115
    4MOL   C122  848   4.953   5.367   3.115 -0.0513  0.0668 -0.3629
    4MOL   C123  849   4.894   5.375   3.263 -0.2090  0.6813  0.2887
    4MOL   O124  850   4.814   5.268   3.293  0.4001  0.4845  0.0942
    4MOL   C125  851   4.681   5.272   3.280  0.4073 -0.6887 -0.6362
    4MOL   C126  852   4.604   5.142   3.299 -0.4160 -0.0433  0.3557
    4MOL   O127  853   4.613   5.372   3.250 -0.5104 -0.0458 -0.2694
    4MOL   H128  854   4.980   5.265   3.089  3.7841  0.4801  1.6272
    4MOL   H129  855   5.049   5.418   3.128 -0.3590  0.3663  0.7398
    4MOL   H130  856   4.836   5.467   3.260 -1.2275  0.0203 -1.5348
    4MOL   H131  857   4.502   5.167   3.328 -0.1170  0.2294  1.1924
    4MOL   H132  858   4.644   5.092   3.387  1.1982  0.8977  0.1877
    4MOL   H133  859   4.597   5.076   3.213 -1.6963  0.0829  0.3585
    4MOL   C134  860   5.008   5.388   3.364  0.2714  0.9998 -0.3513
    4MOL   C135  861   5.092   5.522   3.360 -0.1587  0.1018 -0.7243
    4MOL   O136  862   4.989   5.622   3.374  0.2828  0.0823 -0.2029
    4MOL   C137  863   5.013   5.745   3.324  0.2254 -0.4594 -0.0402
    4MOL   C138  864   4.900   5.843   3.334 -0.2980  0.8944 -0.3555
    4MOL   O139  865   5.117   5.774   3.262  0.1062 -0.2864 -0.3153
    4MOL   H140  866   4.965   5.367   3.462  1.1664  0.4633 -0.0667
    4MOL   H141  867   5.075   5.303   3.352  0.7295  1.2270  0.5030
    4MOL   H142  868   5.141   5.538   3.264  0.5718 -0.7976 -0.5076
    4MOL   H143  869   4.921   5.919   3.410 -1.4942  0.4095  0.4760
    4MOL   H144  870   4.806   5.796   3.365  0.3472 -0.2843 -0.1591
    4MOL   H145  871   4.891   5.895   3.239  0.8679 -1.9095 -2.0361
    4MOL   C146  872   5.185   5.533   3.476  0.2809  0.5746 -0.1902
    4MOL   C147  873   5.313   5.450   3.463 -0.3828  0.7048 -0.2166
    4MOL   O148  874   5.400   5.501   3.369  0.0511  0.2642  0.5653
    4MOL   C149  875   5.402   5.448   3.243  0.5764 -1.1270 -0.7453
    4MOL   C150  876   5.527   5.492   3.166 -0.1781 -0.0486 -0.1807
    4MOL   O151  877   5.319   5.362   3.204  0.5265 -0.4080 -0.1957
    4MOL   H152  878   5.223   5.629   3.512  0.6214  0.5476 -0.4735
    4MOL   H153  879   5.125   5.484   3.553 -0.1665 -0.6757 -1.3226
    4MOL   H154  880   5.288   5.349   3.430  2.0202  0.5448 -1.6313
    4MOL   H155  881   5.518   5.454   3.064  3.4237 -4.0345  0.8786
    4MOL   H156  882   5.620   5.459   3.212 -1.2078 -1.9728  0.5550
    4MOL   H157  883   5.516   5.601   3.160 -2.2306 -0.1974  0.6696
    4MOL   C158  884   5.390   5.438   3.599 -0.0829  0.2332 -0.1221
    4MOL   C159  885   5.307   5.383   3.716  0.8469 -0.3704 -0.0893
    4MOL   O160  886   5.265   5.252   3.691 -0.3681  0.4265 -0.1878
    4MOL   C161  887   5.155   5.199   3.749 -0.0253 -0.0872  0.4750
    4MOL   C162  888   5.096   5.084   3.666 -0.4405  0.0773 -0.3190
    4MOL   O163  889   5.117   5.221   3.866 -0.4014  0.4760 -0.1283
    4MOL   H164  890   5.472   5.366   3.588 -1.7488 -1.6254 -0.6082
    4MOL   H165  891   5.446   5.526   3.630  0.8016 -0.4128  0.1654
    4MOL   H166  892   5.221   5.448   3.734  1.1422  0.3025 -1.0653
    4MOL   H167  893   5.082   5.119   3.564  2.0588 -0.2662 -0.8100
    4MOL   H168  894   5.003   5.046   3.708 -0.9179  1.1405 -0.4038
    4MOL   H169  895   5.164   4.999   3.667  0.9215  1.1452  1.0755
    4MOL   C170  896   5.393   5.386   3.841  0.4402 -0.3569  0.6381
    4MOL   C171  897   5.421   5.522   3.893 -0.4533 -0.6483  0.7071
    4MOL   O172  898   5.302   5.580   3.931 -0.5381  0.0688 -0.9499
    4MOL   C173  899   5.229   5.670   3.857 -0.6340 -0.3512 -0.3541
    4MOL   C174  900   5.114   5.732   3.928 -0.6803 -0.9111 -0.4443
    4MOL   O175  901   5.251   5.705   3.740  0.0141 -0.5432 -0.9685
    4MOL   H176  902   5.341   5.328   3.917  0.2619 -0.2148  0.6250
    4MOL   H177  903   5.488   5.338   3.816  1.8674  2.2700  0.8039
    4MOL   H178  904   5.476   5.584   3.822 -1.8326 -0.7685 -0.4975
    4MOL   H179  905   5.114   5.703   4.033 -1.9670 -1.3692 -0.5564
    4MOL   H180  906   5.016   5.707   3.887 -0.7183 -0.7921 -0.4256
    4MOL   H181  907   5.126   5.840   3.930 -0.3824 -0.9603  1.1881
    4MOL   C182  908   5.498   5.516   4.024  0.4696  0.3344  1.1352
    4MOL   C183  909   5.550   5.638   4.104  0.1778  0.1116  0.2149
    4MOL   O184  910   5.623   5.613   4.226 -0.0777 -0.1892 -0.7877
    4MOL   C185  911   5.566   5.589   4.346  0.5971 -0.7793 -0.2861
    4MOL   C186  912   5.665   5.569   4.448 -0.6566  0.3899 -0.7453
    4MOL   O187  913   5.445   5.592   4.374 -0.2576  0.4964 -0.2324
    4MOL   H188  914   5.448   5.452   4.097 -0.2251  0.4283  0.7371
    4MOL   H189  915   5.589   5.460   4.002  0.5422  0.6606  0.6044
    4MOL   H190  916   5.457   5.690   4.125  0.6921  1.5817 -1.1035
    4MOL   H191  917   5.639   5.501   4.529 -0.1876  2.9928  1.6568
    4MOL   H192  918   5.669   5.660   4.507 -1.4131 -0.2925  0.3738
    4MOL   H193  919   5.763   5.552   4.402 -0.4662 -0.7949  0.0933
    4MOL   C194  920   5.632   5.737   4.021 -0.3536 -0.0429 -0.5099
    4MOL   C195  921   5.671   5.873   4.079 -0.2239  0.1095 -0.4235
    4MOL   O196  922   5.801   5.860   4.141  0.4318 -0.1545  0.4555
    4MOL   C197  923   5.814   5.875   4.272 -0.0170  0.6822 -0.1140
    4MOL   C198  924   5.956   5.857   4.314 -0.6979 -0.1793 -0.1516
    4MOL   O199  925   5.720   5.901   4.351  0.1931  0.2841  0.3915
    4MOL   H200  926   5.722   5.686   3.987  0.2869 -0.3234  1.5398
    4MOL   H201  927   5.589   5.744   3.920 -1.6608 -2.2431 -0.1349
    4MOL   H202  928   5.593   5.905   4.148 -1.4906  0.2462 -1.9131
    4MOL   H203  929   5.971   5.930   4.394 -1.4656 -1.0861  0.8356
    4MOL   H204  930   6.028   5.871   4.233  0.2091 -1.6060  0.3827
    4MOL   H205  931   5.970   5.756   4.353  2.0621 -0.0334 -0.6176
    4MOL   C206  932   5.689   5.981   3.973  0.9308 -0.2447 -0.7124
    4MOL   C207  933   5.697   6.122   4.025  0.4455 -0.8588  0.7982
    4MOL   O208  934   5.829   6.146   4.078  0.0573 -0.1118  0.0358
    4MOL   C209  935   5.842   6.185   4.203  0.8172 -0.1640  0.3266
    4MOL   C210  936   5.992   6.182   4.232 -0.0828  0.0405 -0.1417
    4MOL   O211  937   5.761   6.238   4.281  0.2151 -0.4330 -0.1612
    4MOL   H212  938   5.766   5.963   3.899 -0.4992 -2.9078 -1.6318
    4MOL   H213  939   5.593   5.977   3.921  0.0561  0.2248  0.8323
    4MOL   H214  940   5.623   6.135   4.105  0.4518  1.8378  0.4129
    4MOL   H215  941   6.014   6.086   4.278 -0.1481 -0.4303 -1.0734
    4MOL   H216  942   6.023   6.269   4.289 -0.0990  1.6314 -2.4761
    4MOL   H217  943   6.041   6.176   4.135 -1.7872  0.5840 -1.0645
    4MOL   C218  944   5.667   6.227   3.910  0.5464 -0.1343 -0.4750
    4MOL   C219  945   5.516   6.257   3.903  0.0569 -0.2672 -0.5173
    4MOL   O220  946   5.469   6.332   4.013 -0.1689 -0.0067 -0.1489
    4MOL   C221  947   5.395   6.279   4.112 -0.3612  0.1690  0.0448
    4MOL   C222  948   5.335   6.392   4.187  0.7211 -0.1500 -0.2099
    4MOL   O223  949   5.360   6.161   4.112 -0.0091 -0.5944 -0.6053
    4MOL   H224  950   5.726   6.315   3.932 -3.6035  2.1654  2.1322
    4MOL   H225  951   5.697   6.178   3.817 -0.4336  0.1743 -0.9663
    4MOL   H226  952   5.453   6.170   3.886 -0.3041 -0.0818 -0.1325
    4MOL   H227  953   5.230   6.388   4.158  1.5638 -1.7071 -3.2649
    4MOL   H228  954   5.369   6.489   4.151 -1.8575 -0.0013 -2.3990
    4MOL   H229  955   5.348   6.376   4.294  0.9230 -3.5281 -0.6979
    4MOL   C230  956   5.496   6.349   3.777  0.1753 -0.1022  0.0486
    4MOL   C231  957   5.355   6.399   3.750  0.4343  0.3933 -0.1553
    4MOL   O232  958   5.308   6.502   3.843  0.0787  0.1051  0.1020
    4MOL   C233  959   5.352   6.623   3.841 -0.2507 -0.2391 -0.4293
    4MOL   C234  960   5.286   6.712   3.954 -0.7703 -0.2939 -0.1948
    4MOL   O235  961   5.433   6.673   3.769 -0.2690  0.7438  0.1788
    4MOL   H236  962   5.565   6.432   3.786  0.2582  0.0533 -1.7423
    4MOL   H237  963   5.525   6.293   3.688 -1.8798 -2.6436  0.9098
    4MOL   H238  964   5.275   6.327   3.763 -0.0822  1.1016  0.6739
    4MOL   H239  965   5.268   6.652   4.044  0.7477 -1.0478 -0.3702
    4MOL   H240  966   5.188   6.750   3.926 -2.2199 -2.9451  1.0605
    4MOL   H241  967   5.361   6.787   3.975 -3.2666  2.2092  0.0418
    4MOL   H242  968   5.338   6.433   3.648 -0.3681  0.0349 -0.1381
    5MOL     C1  969   0.585   2.797   5.013  0.3559  0.3313  0.1792
    5MOL     C2  970   0.587   2.947   5.021 -1.1020 -0.2544 -0.3937
    5MOL     O3  971   0.489   2.994   5.121  0.0083  0.6147 -0.1021
    5MOL     C4  972   0.371   3.042   5.073  0.2769 -0.6720 -0.3182
    5MOL     C5  973   0.276   3.108   5.170  0.5142 -0.0376  0.4779
    5MOL     O6  974   0.341   3.051   4.954 -0.2483  0.3309 -0.2768
    5MOL     H7  975   0.595   2.748   5.111 -0.2308 -2.2406 -0.9963
    5MOL     H8  976   0.650   2.755   4.936  1.1189  1.4830  0.1772
    5MOL     H9  977   0.565   2.982   4.920  0.0600  1.0306 -0.2211
    5MOL    H10  978   0.180   3.069   5.139  0.9155  0.2003 -1.1103
    5MOL    H11  979   0.279   3.216   5.156  1.3890 -0.4153 -2.5421
    5MOL    H12  980   0.294   3.077   5.273  0.6580 -1.5203  0.0175
    5MOL    H13  981   0.491   2.772   4.964  1.1519 -2.1582 -0.1614
    5MOL    C14  982   0.724   3.004   5.065  0.2375  0.1452 -0.2951
    5MOL    C15  983   0.743   3.157   5.036 -0.5500  0.8283  0.1577
    5MOL    O16  984   0.687   3.225   5.144 -0.2391  0.1138  0.0329
    5MOL    C17  985   0.628   3.350   5.137 -0.7939 -0.2884 -0.2612
    5MOL    C18  986   0.589   3.408   5.266 -0.2314  0.2304 -0.7439
    5MOL    O19  987   0.633   3.421   5.033  0.4222  0.0593 -0.6959
    5MOL    H20  988   0.733   2.973   5.169  1.6455 -2.8334 -1.2548
    5MOL    H21  989   0.802   2.944   5.018 -0.2341 -2.5919  2.2605
    5MOL    H22  990   0.684   3.183   4.948 -1.0935  1.2682  0.6437
    5MOL    H23  991   0.675   3.468   5.297 -0.3729  0.1337 -0.1704
    5MOL    H24  992   0.558   3.334   5.339  1.4013 -1.1051 -1.3737
    5MOL    H25  993   0.508   3.479   5.247  0.2200  1.3962  1.5591
    5MOL    C26  994   0.890   3.205   5.014 -0.7046 -0.1537  0.1068
    5MOL    C27  995   0.933   3.232   4.859 -0.5416  0.2966 -1.0193
    5MOL    O28  996   0.911   3.107   4.795  0.0351  0.6578  0.4235
    5MOL    C29  997   0.995   3.041   4.714  0.6547  0.2139 -0.6525
    5MOL    C30  998   0.938   2.914   4.656 -0.1210  0.1401  0.2260
    5MOL    O31  999   1.103   3.077   4.678 -0.6903  0.0260 -0.6821
    5MOL    H32 1000   0.919   3.285   5.083  1.2668 -1.2772  0.6372
    5MOL    H33 1001   0.962   3.128   5.043 -0.2160  0.2573 -0.0089
    5MOL    H34 1002   1.041   3.244   4.854 -0.3760  1.3386  3.2489
    5MOL    H35 1003   1.021   2.846   4.642 -0.1334 -0.0236  0.9215
    5MOL    H36 1004   0.881   2.921   4.564  0.6841  0.4997 -0.2484
    5MOL    H37 1005   0.880   2.858   4.730 -0.3987 -0.6056 -0.5477
    5MOL    C38 1006   0.844   3.333   4.780 -0.0429  0.1675 -0.1887
    5MOL    C39 1007   0.878   3.482   4.800 -0.7487  0.0151  0.4534
    5MOL    O40 1008   0.988   3.505   4.718 -0.4302 -0.4347  0.6801
    5MOL    C41 1009   1.090   3.570   4.766 -0.5691  0.1310 -0.3142
    5MOL    C42 1010   1.207   3.548   4.668 -0.3442  0.4361 -0.3196
    5MOL    O43 1011   1.088   3.640   4.862  0.0609 -0.2955 -0.4632
    5MOL    H44 1012   0.847   3.320   4.672  1.9634 -0.2106 -0.1091
    5MOL    H45 1013   0.738   3.322   4.804 -0.0366 -2.2228 -1.1291
    5MOL    H46 1014   0.903   3.498   4.905 -2.5544  2.0849  0.6198
    5MOL    H47 1015   1.296   3.554   4.730  1.3034  2.1823 -2.7914
    5MOL    H48 1016   1.204   3.628   4.594  1.2586 -0.9221 -1.8570
    5MOL    H49 1017   1.202   3.451   4.620  2.0947 -0.7473  1.6824
    5MOL    C50 1018   0.768   3.571   4.759 -0.2086 -0.5447 -0.2042
    5MOL    C51 1019   0.775   3.718   4.812  0.2789 -0.5501  0.5578
    5MOL    O52 1020   0.857   3.790   4.725 -0.0584 -0.0442 -0.0370
    5MOL    C53 1021   0.935   3.901   4.768 -0.3244  0.1252 -0.5042
    5MOL    C54 1022   1.016   3.962   4.659  0.5675  0.0160  0.5790
    5MOL    O55 1023   0.936   3.941   4.885 -0.4691  0.7881  0.1302
    5MOL    H56 1024   0.769   3.567   4.650 -1.3828 -1.6698 -0.1895
    5MOL    H57 1025   0.676   3.523   4.793  0.3973 -0.7101  1.2352
    5MOL    H58 1026   0.827   3.707   4.906 -3.2511  1.3061  2.8447
    5MOL    H59 1027   1.120   3.973   4.688  0.1563  0.7477  1.8129
    5MOL    H60 1028   0.977   4.062   4.641  2.1092  0.1326 -2.4747
    5MOL    H61 1029   1.023   3.911   4.564 -0.8008  0.7052  0.0944
    5MOL    C62 1030   0.639   3.786   4.831 -0.2483  0.3031  0.5714
    5MOL    C63 1031   0.583   3.801   4.980  0.3205  0.8399  0.6699
    5MOL    O64 1032   0.668   3.896   5.044  0.4125 -0.6444  0.7337
    5MOL    C65 1033   0.729   3.875   5.164  0.1953 -0.4658 -0.0937
    5MOL    C66 1034   0.821   3.987   5.200 -0.2836 -0.1361 -0.1762
    5MOL    O67 1035   0.712   3.782   5.243 -0.0227  0.7786 -0.3657
    5MOL    H68 1036   0.622   3.876   4.771 -2.8042 -0.3670  0.2072
    5MOL    H69 1037   0.573   3.720   4.775 -1.1730 -0.8347  2.9663
    5MOL    H70 1038   0.597   3.703   5.025 -1.9551  1.5240  3.0432
    5MOL    H71 1039   0.846   4.049   5.114 -0.5954 -1.3050 -1.1175
    5MOL    H72 1040   0.917   3.945   5.229 -0.0321 -0.2339 -1.1553
    5MOL    H73 1041   0.774   4.052   5.274  0.2238  2.5259 -2.1239
    5MOL    C74 1042   0.439   3.842   4.979 -0.5448 -0.1449  0.5648
    5MOL    C75 1043   0.365   3.836   5.113 -0.1388 -0.6263  0.2251
    5MOL    O76 1044   0.233   3.884   5.077  0.0245  0.0600  0.5770
    5MOL    C77 1045   0.201   4.007   5.095 -0.1438  0.0826 -0.4716
    5MOL    C78 1046   0.077   4.057   5.017 -0.0803  0.0415  0.4425
    5MOL    O79 1047   0.237   4.080   5.193  0.4501  0.2029 -0.2161
    5MOL    H80 1048   0.425   3.941   4.935  0.0924  0.4295  1.6579
    5MOL    H81 1049   0.378   3.776   4.918 -0.1785 -0.0989  0.1481
    5MOL    H82 1050   0.408   3.910   5.180 -0.1683  1.2313 -1.7523
    5MOL    H83 1051   0.055   4.000   4.926  3.9536 -0.5178 -0.2737
    5MOL    H84 1052   0.087   4.160   4.982 -0.1576  0.5699  1.9491
    5MOL    H85 1053   8.002   4.046   5.066  0.2314 -0.3473  0.9665
    5MOL    C86 1054   0.362   3.698   5.182 -0.4589 -0.7456 -0.1564
    5MOL    C87 1055   0.292   3.702   5.319  0.5404  0.2498  0.2891
    5MOL    O88 1056   0.308   3.573   5.378 -0.3870  0.0529  0.1498
    5MOL    C89 1057   0.224   3.469   5.353 -0.0513 -0.0516 -0.4754
    5MOL    C90 1058   0.222   3.360   5.461  0.0772  0.2301  0.0667
    5MOL    O91 1059   0.153   3.455   5.253 -0.3687 -0.2138 -0.3136
    5MOL    H92 1060   0.309   3.631   5.114 -0.7650 -0.1555 -0.5032
    5MOL    H93 1061   0.466   3.669   5.194 -0.3955 -0.9749 -1.2552
    5MOL    H94 1062   0.188   3.725   5.297  0.8083  1.1836 -0.0207
    5MOL    H95 1063   0.265   3.266   5.424 -0.4682 -0.9600  2.3808
    5MOL    H96 1064   0.123   3.336   5.498 -0.1335  0.4974 -0.3180
    5MOL    H97 1065   0.281   3.386   5.549  1.5886 -1.0864 -0.5287
    5MOL    C98 1066   0.351   3.790   5.422  0.5979  0.2531  0.4317
    5MOL    C99 1067   0.243   3.829   5.528 -0.3908 -0.0764 -0.1857
    5MOL   O100 1068   0.287   3.791   5.658  0.3097  0.3636  0.7531
    5MOL   C101 1069   0.256   3.676   5.709  0.4241  0.4671 -0.4349
    5MOL   C102 1070   0.329   3.643   5.837  0.2903 -0.3708 -0.3039
    5MOL   O103 1071   0.169   3.598   5.670 -0.6328  0.2533 -0.4007
    5MOL   H104 1072   0.428   3.732   5.471  1.9761 -1.1560 -3.1971
    5MOL   H105 1073   0.397   3.880   5.381  0.3675  0.8552  1.4796
    5MOL   H106 1074   0.153   3.774   5.502 -0.5899  0.4446 -0.6253
    5MOL   H107 1075   0.315   3.724   5.909  0.1513  0.4403 -1.2349
    5MOL   H108 1076   0.433   3.639   5.805  0.8159  0.5868  1.2382
    5MOL   H109 1077   0.289   3.552   5.882  0.6229  0.4407  1.7070
    5MOL   C110 1078   0.201   3.974   5.520 -0.2572  0.9133 -0.1318
    5MOL   C111 1079   0.314   4.073   5.565  0.6598  0.5214  0.0002
    5MOL   O112 1080   0.373   4.126   5.450 -0.1580  0.0255 -0.2862
    5MOL   C113 1081   0.502   4.119   5.412 -0.1721 -0.3166 -0.3470
    5MOL   C114 1082   0.530   4.200   5.285  0.2085 -1.1913  0.2534
    5MOL   O115 1083   0.590   4.052   5.472  0.0087 -0.0908 -0.0658
    5MOL   H116 1084   0.162   3.998   5.421 -2.1027  0.2043  0.4095
    5MOL   H117 1085   0.117   4.002   5.583  1.8103  1.9152  2.3084
    5MOL   H118 1086   0.388   4.011   5.617 -0.8330 -0.7435  0.6702
    5MOL   H119 1087   0.612   4.267   5.311  0.1989 -1.2293  0.3812
    5MOL   H120 1088   0.442   4.256   5.253 -0.4017 -3.0116 -1.3718
    5MOL   H121 1089   0.546   4.134   5.200 -1.0174 -0.0042 -0.9239
    5MOL   C122 1090   0.271   4.190   5.651 -0.3077  0.6999 -0.9039
    5MOL   C123 1091   0.344   4.181   5.787 -0.9733 -0.0318  0.5935
    5MOL   O124 1092   0.485   4.207   5.774 -0.3220  0.7327  0.1411
    5MOL   C125 1093   0.579   4.125   5.809 -0.1767  0.2489 -0.2503
    5MOL   C126 1094   0.723   4.182   5.797  0.4684 -0.7610 -0.7479
    5MOL   O127 1095   0.562   4.014   5.863  0.2833  0.3575  0.0374
    5MOL   H128 1096   0.305   4.284   5.606  1.5114  0.1766 -0.6524
    5MOL   H129 1097   0.163   4.205   5.653 -0.2275  1.7570 -3.1726
    5MOL   H130 1098   0.326   4.082   5.827  1.9627 -1.5546 -1.6209
    5MOL   H131 1099   0.785   4.095   5.775  0.8529 -0.7156  0.1197
    5MOL   H132 1100   0.744   4.239   5.888  1.5167 -1.3307 -0.6224
    5MOL   H133 1101   0.723   4.232   5.701  0.9890  1.0568  0.1775
    5MOL   C134 1102   0.283   4.285   5.881 -0.0511 -0.7511  0.4427
    5MOL   C135 1103   0.142   4.251   5.939 -0.1930 -0.0827 -0.4768
    5MOL   O136 1104   0.181   4.166   6.043 -0.3324  0.4198 -0.2278
    5MOL   C137 1105   0.134   4.045   6.052 -0.5674  0.4982  0.2884
    5MOL   C138 1106   0.183   3.980   6.172 -0.0855  1.0754  0.6706
    5MOL   O139 1107   0.061   3.991   5.961  0.1196 -0.5857 -0.0231
    5MOL   H140 1108   0.344   4.310   5.968  1.0860 -1.4495 -0.1546
    5MOL   H141 1109   0.274   4.372   5.815 -1.6874 -1.2963 -0.0797
    5MOL   H142 1110   0.089   4.200   5.859  1.9442 -2.5046 -0.4198
    5MOL   H143 1111   0.104   3.997   6.246 -0.4954 -1.5610  0.8848
    5MOL   H144 1112   0.282   4.005   6.211  0.9789  0.9584 -1.8936
    5MOL   H145 1113   0.189   3.874   6.151 -0.2391  1.1719  0.1434
    5MOL   C146 1114   0.066   4.373   5.993  0.2360 -0.2438 -0.1152
    5MOL   C147 1115   7.941   4.333   6.032 -0.3469  0.2063 -0.2958
    5MOL   O148 1116   7.888   4.433   6.111 -0.2600  0.0488  0.6310
    5MOL   C149 1117   7.922   4.437   6.246  0.8593 -0.2618 -0.2811
    5MOL   C150 1118   7.866   4.554   6.325  0.4065 -0.0350 -0.5171
    5MOL   O151 1119   8.002   4.355   6.299  0.0835 -0.4590  0.7446
    5MOL   H152 1120   0.103   4.415   6.087  1.4944  1.5295 -1.3719
    5MOL   H153 1121   0.057   4.456   5.924 -2.9580  0.4427  1.0407
    5MOL   H154 1122   7.942   4.238   6.085  0.9572 -0.0014 -0.6657
    5MOL   H155 1123   7.762   4.529   6.350  0.4701 -0.4118 -0.6196
    5MOL   H156 1124   7.860   4.644   6.264 -0.0286 -0.8541 -1.7161
    5MOL   H157 1125   7.918   4.570   6.419  0.3033 -2.6287  0.0283
    5MOL   C158 1126   7.846   4.317   5.908  0.3314  0.2121  0.0731
    5MOL   C159 1127   7.710   4.243   5.938  0.3266 -0.3871 -0.2740
    5MOL   O160 1128   7.623   4.258   5.825 -0.3676 -0.0513 -0.1477
    5MOL   C161 1129   7.533   4.353   5.827 -0.3881  0.8195  0.5251
    5MOL   C162 1130   7.468   4.389   5.691 -0.6051 -0.0836  0.0468
    5MOL   O163 1131   7.496   4.416   5.932 -0.1367 -0.1365  0.4896
    5MOL   H164 1132   7.813   4.417   5.881  0.1520  0.1729  0.1453
    5MOL   H165 1133   7.901   4.269   5.828  0.4911 -0.4301  0.5593
    5MOL   H166 1134   7.676   4.291   6.029 -0.4616 -0.6611 -0.4190
    5MOL   H167 1135   7.401   4.471   5.715 -0.3513  0.5053 -1.2375
    5MOL   H168 1136   7.420   4.318   5.623  1.2560 -1.2562 -0.0877
    5MOL   H169 1137   7.545   4.434   5.629 -0.1264  0.8519  1.3143
    5MOL   C170 1138   7.731   4.091   5.968 -0.0047  0.1027 -0.3922
    5MOL   C171 1139   7.630   4.024   6.065 -0.1772  0.1609  0.6891
    5MOL   O172 1140   7.600   4.098   6.176 -0.0579 -0.1596  0.0508
    5MOL   C173 1141   7.667   4.081   6.290 -0.2700 -0.4154  0.2322
    5MOL   C174 1142   7.630   4.177   6.398  0.0611  0.0508 -0.1337
    5MOL   O175 1143   7.762   4.006   6.303  0.0089 -0.2866  0.2508
    5MOL   H176 1144   7.748   4.028   5.881  0.7393  0.4476 -0.5046
    5MOL   H177 1145   7.828   4.084   6.016 -1.5254  1.3455  3.0119
    5MOL   H178 1146   7.683   3.932   6.091  1.7425  0.9085 -0.4238
    5MOL   H179 1147   7.568   4.260   6.365 -1.5656 -0.7945  0.7285
    5MOL   H180 1148   7.711   4.225   6.453 -0.9849  2.4325 -0.6212
    5MOL   H181 1149   7.573   4.117   6.470  1.2114  1.5952  2.1214
    5MOL   C182 1150   7.506   3.982   5.986 -0.1092  0.3770 -0.2596
    5MOL   C183 1151   7.418   3.887   6.078 -0.0846  0.4348  0.5241
    5MOL   O184 1152   7.307   3.852   5.995  0.3829  0.0682  0.0384
    5MOL   C185 1153   7.180   3.878   6.036 -0.0913 -0.2387 -0.1683
    5MOL   C186 1154   7.078   3.826   5.935  0.3347 -0.0208  0.7028
    5MOL   O187 1155   7.152   3.953   6.129  0.0767 -0.1752 -0.0059
    5MOL   H188 1156   7.451   4.074   5.962  0.5936  0.8532 -0.0732
    5MOL   H189 1157   7.528   3.937   5.889 -0.5059  0.0227 -0.1843
    5MOL   H190 1158   7.385   3.937   6.169 -1.9086 -0.7041  0.4917
    5MOL   H191 1159   7.082   3.889   5.846 -0.4404 -1.0859 -0.0982
    5MOL   H192 1160   6.978   3.824   5.978 -0.4314 -1.0805 -1.0694
    5MOL   H193 1161   7.099   3.723   5.907 -1.9750 -0.0830 -0.9114
    5MOL   C194 1162   7.474   3.749   6.123 -0.0364 -0.2624  0.5767
    5MOL   C195 1163   7.521   3.646   6.015  0.2634  0.8797  0.0460
    5MOL   O196 1164   7.648   3.688   5.950 -0.0490 -0.7624 -0.3988
    5MOL   C197 1165   7.676   3.653   5.820 -0.1877  0.2999  0.3042
    5MOL   C198 1166   7.813   3.697   5.769 -0.1018  0.1126  0.1278
    5MOL   O199 1167   7.600   3.584   5.750  0.1621 -0.1988 -0.0445
    5MOL   H200 1168   7.561   3.771   6.184  0.7771  0.3766 -0.7827
    5MOL   H201 1169   7.403   3.695   6.185  1.0050 -0.4678  1.5961
    5MOL   H202 1170   7.445   3.641   5.937 -0.5239 -1.0705  0.8950
    5MOL   H203 1171   7.862   3.608   5.732 -0.2740  1.0355 -2.4061
    5MOL   H204 1172   7.872   3.740   5.850  2.4739 -1.9411 -0.6106
    5MOL   H205 1173   7.807   3.772   5.689  1.9882  1.2691  1.0225
    5MOL   C206 1174   7.538   3.504   6.074 -0.8857  0.0302  0.8637
    5MOL   C207 1175   7.411   3.426   6.056 -0.5692 -0.2244  0.1006
    5MOL   O208 1176   7.402   3.377   5.927  0.0057  0.5436 -0.3146
    5MOL   C209 1177   7.288   3.395   5.850 -0.6852 -0.1176  0.1222
    5MOL   C210 1178   7.288   3.312   5.724  0.1024  0.0938 -0.4809
    5MOL   O211 1179   7.190   3.461   5.875 -0.3267 -0.2771 -0.3226
    5MOL   H212 1180   7.625   3.449   6.042 -0.9352  0.9566 -0.9396
    5MOL   H213 1181   7.562   3.506   6.181 -0.7498  0.4584  0.8258
    5MOL   H214 1182   7.334   3.494   6.093  2.3819  3.3624 -0.0870
    5MOL   H215 1183   7.350   3.346   5.640  0.7824  1.1314  0.4369
    5MOL   H216 1184   7.185   3.301   5.690  0.1403 -2.0790  0.0273
    5MOL   H217 1185   7.325   3.212   5.750 -0.7606 -0.3458 -0.9094
    5MOL   C218 1186   7.406   3.300   6.146  0.4343 -0.1307 -0.2289
    5MOL   C219 1187   7.265   3.228   6.152 -0.3047 -0.0384 -0.8213
    5MOL   O220 1188   7.284   3.104   6.218 -0.4043  0.2600  0.1999
    5MOL   C221 1189   7.264   2.988   6.140 -0.5406 -0.8215 -0.1528
    5MOL   C222 1190   7.338   2.869   6.190  0.4267  0.6391  0.9105
    5MOL   O223 1191   7.192   2.983   6.042  0.3827 -0.0644  0.1010
    5MOL   H224 1192   7.483   3.227   6.120  2.2469  0.6737  2.6924
    5MOL   H225 1193   7.422   3.340   6.246 -3.1435  0.5296  0.1587
    5MOL   H226 1194   7.256   3.210   6.045 -3.1917 -2.3890 -0.2231
    5MOL   H227 1195   7.398   2.838   6.104  1.0579 -0.9888  1.9040
    5MOL   H228 1196   7.269   2.789   6.217 -0.0285  1.0046  0.8365
    5MOL   H229 1197   7.405   2.884   6.275  2.6499 -2.4380 -0.2106
    5MOL   C230 1198   7.147   3.312   6.201  0.6712 -0.3460  0.1061
    5MOL   C231 1199   7.011   3.248   6.154  0.6841  0.0865 -0.0323
    5MOL   O232 1200   6.918   3.345   6.189  0.0952 -0.4369  0.4785
    5MOL   C233 1201   6.859   3.422   6.098 -0.1027 -0.3479 -0.1093
    5MOL   C234 1202   6.778   3.539   6.157  0.1892 -0.3244  0.3628
    5MOL   O235 1203   6.870   3.409   5.976  0.3891 -0.2658 -0.5219
    5MOL   H236 1204   7.147   3.346   6.305  0.8447  1.0155 -0.3325
    5MOL   H237 1205   7.151   3.406   6.146  0.7386  0.9323  2.2492
    5MOL   H238 1206   6.996   3.160   6.216 -0.4353  1.6975  2.0946
    5MOL   H239 1207   6.672   3.513   6.152  0.1923 -0.5698  1.4748
    5MOL   H240 1208   6.786   3.634   6.104 -1.0241  0.2606  1.1956
    5MOL   H241 1209   6.794   3.548   6.264 -0.0525  1.1068  0.2920
    5MOL   H242 1210   7.011   3.229   6.047 -0.1426  0.4299 -0.0979
    6MOL     C1 1211   4.737   7.798   3.282  0.3544 -0.0327  0.2904
    6MOL     C2 1212   4.812   7.855   3.156 -0.0748  0.0340  0.0230
    6MOL     O3 1213   4.857   7.989   3.180 -0.1628  0.2458 -0.1474
    6MOL     C4 1214   4.845   0.060   3.089  0.1237 -0.2441  0.1995
    6MOL     C5 1215   4.895   0.199   3.140 -0.0633  0.3539  0.4508
    6MOL     O6 1216   4.803   0.048   2.973  0.2748  0.5931 -0.2221
    6MOL     H7 1217   4.705   7.694   3.273 -0.7041  0.2485  0.6345
    6MOL     H8 1218   4.643   7.852   3.296  1.1791  0.8583  2.5544
    6MOL     H9 1219   4.736   7.861   3.077  0.0532  1.9161  0.0252
    6MOL    H10 1220   4.886   0.285   3.073 -2.1203 -0.5274 -0.4534
    6MOL    H11 1221   4.995   0.190   3.181  0.0168  0.1595  0.2075
    6MOL    H12 1222   4.835   0.211   3.231  0.3581  3.4770  0.3914
    6MOL    H13 1223   4.799   7.813   3.369 -1.7051  2.8279  1.3249
    6MOL    C14 1224   4.924   7.767   3.104  0.1778  0.2695 -0.1918
    6MOL    C15 1225   4.865   7.637   3.046  0.5047  0.0851  0.1849
    6MOL    O16 1226   4.780   7.678   2.939  0.4323  0.0574  0.1296
    6MOL    C17 1227   4.672   7.606   2.906 -0.1755 -0.3668 -0.5006
    6MOL    C18 1228   4.590   7.661   2.793 -0.1222  0.4797  0.2477
    6MOL    O19 1229   4.641   7.496   2.962  0.5059 -0.6548 -0.4831
    6MOL    H20 1230   4.988   7.820   3.034  1.3363 -1.9648 -0.8633
    6MOL    H21 1231   4.989   7.753   3.190 -1.0963 -1.0441  0.5877
    6MOL    H22 1232   4.799   7.584   3.114 -1.5994  1.0198 -1.0649
    6MOL    H23 1233   4.614   7.603   2.703  0.3596 -1.4203  1.5631
    6MOL    H24 1234   4.625   7.760   2.765  0.1788 -0.3975 -2.7004
    6MOL    H25 1235   4.483   7.656   2.815 -0.1015 -2.3608 -0.0236
    6MOL    C26 1236   4.972   7.545   2.994 -0.3735  0.1594 -0.6946
    6MOL    C27 1237   4.997   7.429   3.093  0.3496  0.3630  0.1956
    6MOL    O28 1238   4.889   7.337   3.068  0.2057 -0.0277  0.1138
    6MOL    C29 1239   4.803   7.309   3.167 -0.1996  0.3725  0.7574
    6MOL    C30 1240   4.710   7.191   3.143  0.3115 -0.1137 -0.0252
    6MOL    O31 1241   4.810   7.355   3.283  0.2311  0.2128  0.2603
    6MOL    H32 1242   4.960   7.498   2.897 -2.1886 -0.6192 -0.1128
    6MOL    H33 1243   5.064   7.601   2.978 -0.0073 -0.3428 -0.3592
    6MOL    H34 1244   5.007   7.477   3.190 -0.9874  2.3356 -0.6040
    6MOL    H35 1245   4.703   7.168   3.036 -1.6957 -0.8006  0.2299
    6MOL    H36 1246   4.610   7.223   3.174  0.2055 -1.5810  1.1672
    6MOL    H37 1247   4.734   7.104   3.205 -0.6926 -0.3510  0.0433
    6MOL    C38 1248   5.128   7.350   3.063  0.2249 -0.8125 -0.0344
    6MOL    C39 1249   5.171   7.255   3.181  0.2160  0.1302  0.1164
    6MOL    O40 1250   5.276   7.166   3.133 -0.4524 -0.7211  0.0066
    6MOL    C41 1251   5.239   7.042   3.101 -0.2552  0.7741 -0.1466
    6MOL    C42 1252   5.359   6.943   3.091  0.1623  0.3904 -0.2529
    6MOL    O43 1253   5.126   7.010   3.069  0.4763 -0.0101 -0.0144
    6MOL    H44 1254   5.126   7.291   2.971 -0.9160  0.2520 -0.7031
    6MOL    H45 1255   5.201   7.429   3.044  0.5939 -1.0702  0.2914
    6MOL    H46 1256   5.079   7.209   3.218 -0.2291  0.3613 -0.6792
    6MOL    H47 1257   5.310   6.846   3.079 -0.9106  1.1213 -1.8813
    6MOL    H48 1258   5.440   6.952   3.163 -0.4367  3.6922  0.0791
    6MOL    H49 1259   5.410   6.962   2.997  1.0359 -0.4183  0.0467
    6MOL    C50 1260   5.219   7.335   3.301 -0.4057  0.5041 -0.6727
    6MOL    C51 1261   5.249   7.256   3.432 -0.3443  0.3073  0.4889
    6MOL    O52 1262   5.377   7.288   3.490  0.2298  0.2369 -0.3099
    6MOL    C53 1263   5.472   7.195   3.501 -0.3532  0.2283 -0.6624
    6MOL    C54 1264   5.589   7.244   3.590 -0.5502  0.2670  0.0723
    6MOL    O55 1265   5.470   7.083   3.464 -0.1303  0.2401 -0.0015
    6MOL    H56 1266   5.307   7.390   3.266  0.5097 -1.1131 -0.9839
    6MOL    H57 1267   5.148   7.412   3.330 -1.4336 -1.0520  1.0689
    6MOL    H58 1268   5.247   7.149   3.409 -1.8463  0.0862  1.5768
    6MOL    H59 1269   5.634   7.150   3.621  0.7259  0.5374 -0.9463
    6MOL    H60 1270   5.562   7.288   3.686  0.8978  1.3981 -0.0272
    6MOL    H61 1271   5.653   7.313   3.535 -0.8140 -1.0351 -1.9175
    6MOL    C62 1272   5.140   7.271   3.532 -0.8920  0.7959  0.4424
    6MOL    C63 1273   5.116   7.415   3.592 -0.0171  0.5031  0.0016
    6MOL    O64 1274   4.978   7.430   3.610  0.7580  0.9150  0.0632
    6MOL    C65 1275   4.909   7.504   3.521  0.2687  0.2330 -0.2161
    6MOL    C66 1276   4.764   7.529   3.573  0.0749 -0.4043  0.3346
    6MOL    O67 1277   4.960   7.565   3.424  0.1618  0.1130  0.0898
    6MOL    H68 1278   5.049   7.243   3.479 -0.1280  0.1525 -0.5669
    6MOL    H69 1279   5.142   7.205   3.619  0.8303 -1.2375 -1.0783
    6MOL    H70 1280   5.155   7.493   3.526  1.1172 -0.2303 -0.1965
    6MOL    H71 1281   4.759   7.570   3.674 -0.2796  1.5265 -0.4360
    6MOL    H72 1282   4.706   7.438   3.562 -1.5571  0.8569 -1.6212
    6MOL    H73 1283   4.716   7.606   3.513  1.4163 -3.1700 -4.5651
    6MOL    C74 1284   5.176   7.449   3.736  0.3074 -0.0663 -0.7343
    6MOL    C75 1285   5.328   7.472   3.738  0.3852  0.2974 -0.5313
    6MOL    O76 1286   5.356   7.597   3.663 -0.5394 -0.4969 -0.2670
    6MOL    C77 1287   5.473   7.611   3.599 -0.1411 -0.3969  0.2212
    6MOL    C78 1288   5.474   7.744   3.527  0.2265 -0.3969  0.3094
    6MOL    O79 1289   5.566   7.531   3.599  0.0493  0.1189 -0.2087
    6MOL    H80 1290   5.129   7.535   3.782  0.8111 -0.6177  0.8355
    6MOL    H81 1291   5.145   7.372   3.807  0.4087  0.6197  0.0631
    6MOL    H82 1292   5.390   7.387   3.712 -0.6058 -1.0127  1.2828
    6MOL    H83 1293   5.377   7.757   3.478  0.3306 -0.0898  0.1845
    6MOL    H84 1294   5.560   7.761   3.462  0.2564  0.2339  0.5157
    6MOL    H85 1295   5.480   7.830   3.593 -3.3183  1.0804 -1.1813
    6MOL    C86 1296   5.386   7.503   3.881  0.5821 -0.1478  0.5679
    6MOL    C87 1297   5.381   7.388   3.987 -0.2476 -0.0237  1.3093
    6MOL    O88 1298   5.434   7.275   3.925 -0.2280  0.0617 -0.1833
    6MOL    C89 1299   5.378   7.153   3.940  0.0855  0.1255 -0.0534
    6MOL    C90 1300   5.426   7.047   3.843 -0.9126  0.5419  0.0397
    6MOL    O91 1301   5.280   7.126   4.018 -0.0089 -0.2507  0.3561
    6MOL    H92 1302   5.488   7.541   3.873 -0.4245  2.4934 -0.4264
    6MOL    H93 1303   5.336   7.590   3.925 -1.8861 -0.7526 -0.9176
    6MOL    H94 1304   5.280   7.370   4.023 -0.9262  0.4813 -0.3042
    6MOL    H95 1305   5.401   7.066   3.738  2.1331  0.6108 -0.7277
    6MOL    H96 1306   5.382   6.949   3.865 -0.9111  0.3807 -0.6490
    6MOL    H97 1307   5.534   7.035   3.850 -1.0340 -0.2731  0.6725
    6MOL    C98 1308   5.466   7.434   4.103  1.0222  1.0746  0.0593
    6MOL    C99 1309   5.441   7.346   4.225  0.3814 -0.2064 -0.0872
    6MOL   O100 1310   5.539   7.394   4.320  0.3276 -0.0336  0.6038
    6MOL   C101 1311   5.649   7.331   4.345  0.1132 -0.2869  0.3819
    6MOL   C102 1312   5.727   7.396   4.455 -0.1938 -0.5573 -0.1511
    6MOL   O103 1313   5.690   7.236   4.282 -0.4958  0.2297  0.0834
    6MOL   H104 1314   5.574   7.429   4.086  1.0103  1.7425 -0.2086
    6MOL   H105 1315   5.445   7.539   4.122  0.0758  1.2051 -1.6197
    6MOL   H106 1316   5.464   7.242   4.201 -1.9753 -0.6839 -0.4438
    6MOL   H107 1317   5.782   7.314   4.500  0.9817  0.8639  1.0784
    6MOL   H108 1318   5.654   7.447   4.519 -2.8030  0.1775 -3.5668
    6MOL   H109 1319   5.789   7.476   4.414 -2.5865  0.0337 -2.7310
    6MOL   C110 1320   5.294   7.356   4.282 -0.5372 -0.3182 -0.1919
    6MOL   C111 1321   5.275   7.282   4.421 -0.6474 -0.7577 -0.0341
    6MOL   O112 1322   5.155   7.335   4.475 -0.2665 -0.1901 -0.1614
    6MOL   C113 1323   5.158   7.372   4.609  0.2361 -0.3743  0.1477
    6MOL   C114 1324   5.039   7.449   4.656  0.5289  1.0003 -0.6659
    6MOL   O115 1325   5.237   7.341   4.693  1.0246  0.9103 -0.1442
    6MOL   H116 1326   5.270   7.461   4.296 -4.7146 -1.3245  0.9685
    6MOL   H117 1327   5.219   7.306   4.221 -0.6725 -0.0267 -0.2661
    6MOL   H118 1328   5.359   7.319   4.480 -1.2740  1.9314 -0.7639
    6MOL   H119 1329   5.063   7.551   4.685 -1.6103  1.2696  0.2482
    6MOL   H120 1330   4.988   7.395   4.735  1.0651  1.4142 -0.0385
    6MOL   H121 1331   4.959   7.447   4.581  2.2284 -3.7844 -2.5827
    6MOL   C122 1332   5.266   7.125   4.394  0.2124  0.2603 -0.2811
    6MOL   C123 1333   5.393   7.033   4.417 -0.2285 -0.7601 -0.0891
    6MOL   O124 1334   5.424   7.033   4.557 -0.3709  0.6464  0.4534
    6MOL   C125 1335   5.549   7.059   4.609  0.0459  0.1281 -0.0997
    6MOL   C126 1336   5.563   7.042   4.755  0.0031  0.4689 -0.9841
    6MOL   O127 1337   5.650   7.097   4.545 -0.0027 -1.2114  0.0895
    6MOL   H128 1338   5.181   7.091   4.453  0.7655  0.9823  0.9684
    6MOL   H129 1339   5.227   7.103   4.295  0.1410 -1.0996  0.0301
    6MOL   H130 1340   5.472   7.080   4.359 -0.3801  0.4093  0.6372
    6MOL   H131 1341   5.545   7.139   4.803  0.5333  0.2970 -0.4277
    6MOL   H132 1342   5.660   6.998   4.776 -1.0640 -0.9768  1.1243
    6MOL   H133 1343   5.487   6.974   4.793  1.5530 -0.9455 -0.3565
    6MOL   C134 1344   5.381   6.892   4.368 -0.1809  0.2114  0.3795
    6MOL   C135 1345   5.522   6.844   4.325  0.2961  0.2583 -0.5535
    6MOL   O136 1346   5.524   6.705   4.331 -0.5268 -0.5475 -0.5128
    6MOL   C137 1347   5.587   6.638   4.425  0.3908 -0.0699  0.0675
    6MOL   C138 1348   5.542   6.495   4.438  0.2868  0.8374  0.3577
    6MOL   O139 1349   5.667   6.688   4.498 -0.3179  0.2751 -0.5699
    6MOL   H140 1350   5.346   6.833   4.453 -0.1455  0.6816  0.7256
    6MOL   H141 1351   5.314   6.886   4.282  0.4768 -0.1312 -0.1094
    6MOL   H142 1352   5.597   6.888   4.391 -0.9056  1.4655  0.0220
    6MOL   H143 1353   5.541   6.436   4.347  1.3800 -0.0733  0.9340
    6MOL   H144 1354   5.443   6.496   4.485 -1.0107  1.1823 -2.3165
    6MOL   H145 1355   5.619   6.445   4.497 -0.8082 -1.0925  0.1696
    6MOL   C146 1356   5.562   6.886   4.180 -0.8250 -0.0405  0.4482
    6MOL   C147 1357   5.713   6.850   4.157 -0.2266 -0.1339 -0.1817
    6MOL   O148 1358   5.732   6.827   4.018  0.2015  0.3331  0.1469
    6MOL   C149 1359   5.711   6.703   3.966 -0.8447  0.0128 -0.5724
    6MOL   C150 1360   5.733   6.686   3.816 -0.8059  0.3396 -0.2087
    6MOL   O151 1361   5.674   6.608   4.037 -0.0394 -0.9253 -0.5739
    6MOL   H152 1362   5.508   6.823   4.110  0.2674 -0.0483 -0.4007
    6MOL   H153 1363   5.540   6.990   4.156  1.4347  0.1375 -0.9664
    6MOL   H154 1364   5.736   6.762   4.217 -1.6235 -0.3438  0.0534
    6MOL   H155 1365   5.840   6.702   3.802  0.1381  0.7493  5.9262
    6MOL   H156 1366   5.673   6.759   3.762 -2.4048 -1.1321 -0.4766
    6MOL   H157 1367   5.716   6.583   3.787 -0.2515  0.4034 -0.7741
    6MOL   C158 1368   5.810   6.963   4.199 -0.2776  0.1914  0.8846
    6MOL   C159 1369   5.959   6.937   4.182  0.1047  0.5584 -0.0478
    6MOL   O160 1370   6.003   7.005   4.059 -0.7596  0.1761  0.1245
    6MOL   C161 1371   6.037   6.926   3.960  0.4559 -0.4020  0.5955
    6MOL   C162 1372   6.084   6.998   3.840  0.1814  0.0439  0.0204
    6MOL   O163 1373   6.033   6.802   3.958  0.3324 -0.4873  0.1463
    6MOL   H164 1374   5.777   7.045   4.136  0.2735 -0.7000 -0.5774
    6MOL   H165 1375   5.787   6.978   4.304 -1.0917  1.6265  0.5033
    6MOL   H166 1376   5.984   6.831   4.179 -0.7073  0.4023 -2.7683
    6MOL   H167 1377   6.183   6.972   3.802 -0.3692 -0.7790 -0.9101
    6MOL   H168 1378   6.078   7.105   3.856 -0.6333  0.0418 -0.2181
    6MOL   H169 1379   6.020   6.969   3.756 -0.1627 -0.3784  0.4207
    6MOL   C170 1380   6.044   6.984   4.299 -0.8921  0.2732 -0.7507
    6MOL   C171 1381   6.034   6.896   4.433  0.7484 -0.3008  0.3857
    6MOL   O172 1382   6.107   6.777   4.424  0.3485  0.9097  0.1211
    6MOL   C173 1383   6.050   6.650   4.378 -0.0317 -0.3740 -0.6121
    6MOL   C174 1384   6.136   6.525   4.392 -0.5335  0.0012 -0.1931
    6MOL   O175 1385   5.943   6.647   4.322 -0.1467  0.2193 -0.6177
    6MOL   H176 1386   6.149   6.994   4.271 -1.4190 -0.7894 -3.2574
    6MOL   H177 1387   6.012   7.085   4.325  0.7505  0.9050 -1.0894
    6MOL   H178 1388   5.929   6.876   4.454  0.0116  2.4983 -0.3349
    6MOL   H179 1389   6.197   6.519   4.302 -0.5752  2.6527 -0.4573
    6MOL   H180 1390   6.066   6.444   4.413 -2.1433  1.1708 -0.9093
    6MOL   H181 1391   6.199   6.523   4.481 -1.5146  0.7741  0.5428
    6MOL   C182 1392   6.092   6.964   4.558  0.2717 -0.0328  0.4273
    6MOL   C183 1393   6.065   6.886   4.689  0.3595 -0.3075 -0.3148
    6MOL   O184 1394   6.120   6.964   4.798 -0.4070  0.1939  0.0606
    6MOL   C185 1395   6.237   6.933   4.855 -0.1660  0.5475  0.4000
    6MOL   C186 1396   6.268   7.023   4.975 -0.6078 -0.1311  0.0810
    6MOL   O187 1397   6.304   6.838   4.826 -0.4385  0.0373  0.4400
    6MOL   H188 1398   6.197   6.983   4.535  0.2312 -1.1811 -0.7656
    6MOL   H189 1399   6.037   7.058   4.560  0.4979  0.1222 -0.2955
    6MOL   H190 1400   6.120   6.792   4.686  0.7532 -0.0598 -0.9153
    6MOL   H191 1401   6.319   6.979   5.060 -1.8243 -1.5793  0.0775
    6MOL   H192 1402   6.176   7.054   5.025 -0.5617 -0.5941  0.4502
    6MOL   H193 1403   6.323   7.114   4.952 -0.1442 -1.1458 -3.2216
    6MOL   C194 1404   5.914   6.857   4.720 -0.1239 -0.2140  0.1435
    6MOL   C195 1405   5.896   6.726   4.806 -0.0222 -0.1108 -0.6401
    6MOL   O196 1406   5.753   6.725   4.842  0.3275  0.4916 -0.2651
    6MOL   C197 1407   5.713   6.695   4.965 -0.2635  0.0966  0.0710
    6MOL   C198 1408   5.563   6.719   4.983  0.2979 -0.7047  0.8601
    6MOL   O199 1409   5.774   6.649   5.060  0.4773  1.0426 -0.0873
    6MOL   H200 1410   5.872   6.944   4.770  0.9761  0.5390 -0.2514
    6MOL   H201 1411   5.848   6.845   4.633 -0.3093  2.0392 -0.0421
    6MOL   H202 1412   5.958   6.742   4.893 -0.2729 -0.8300 -0.3198
    6MOL   H203 1413   5.497   6.640   4.948 -2.2279  1.0595  1.4524
    6MOL   H204 1414   5.545   6.820   4.946  0.3717 -1.6811 -1.9873
    6MOL   H205 1415   5.540   6.723   5.090 -2.1274  1.3718  0.3121
    6MOL   C206 1416   5.934   6.598   4.728  0.8073 -0.4130  0.6830
    6MOL   C207 1417   5.960   6.472   4.803  0.0784  0.0137 -0.3123
    6MOL   O208 1418   6.016   6.383   4.705 -0.2404 -0.0149  0.1038
    6MOL   C209 1419   5.981   6.256   4.695  0.3100 -0.0567  0.9613
    6MOL   C210 1420   6.071   6.171   4.606  0.6482 -0.3765  0.3673
    6MOL   O211 1421   5.884   6.204   4.746 -0.3137  1.0159  0.0661
    6MOL   H212 1422   5.856   6.571   4.657  0.9587  1.7584 -0.3586
    6MOL   H213 1423   6.026   6.610   4.670  0.6347  2.4020  0.9111
    6MOL   H214 1424   5.863   6.432   4.834  0.6251 -0.1156  1.3135
    6MOL   H215 1425   6.086   6.223   4.511  2.5796 -1.4083  0.0962
    6MOL   H216 1426   6.035   6.069   4.585 -0.4705  0.1988 -0.6219
    6MOL   H217 1427   6.169   6.170   4.652 -0.2123  1.5028  2.2765
    6MOL   C218 1428   6.060   6.505   4.923  0.8404 -0.1426 -0.2887
    6MOL   C219 1429   6.117   6.381   4.996  0.7705 -0.0763  0.2335
    6MOL   O220 1430   6.223   6.323   4.919  0.0542 -0.3017  0.0989
    6MOL   C221 1431   6.259   6.192   4.920  0.1842  0.5781  0.1028
    6MOL   C222 1432   6.374   6.156   4.836 -0.3215 -0.8921  0.2012
    6MOL   O223 1433   6.219   6.117   5.005  0.4661 -0.1100  0.4436
    6MOL   H224 1434   6.139   6.565   4.879 -0.6915  1.1413 -1.3512
    6MOL   H225 1435   6.003   6.562   4.997  0.6789 -0.7214  0.0334
    6MOL   H226 1436   6.038   6.308   5.011  0.5979  0.0251 -0.1463
    6MOL   H227 1437   6.427   6.081   4.896  2.9705  1.3056  0.1928
    6MOL   H228 1438   6.441   6.240   4.815  0.1532 -1.4628 -0.6116
    6MOL   H229 1439   6.340   6.098   4.750  0.1765 -1.6545  0.5119
    6MOL   C230 1440   6.164   6.413   5.131 -0.0895  0.0450 -0.2883
    6MOL   C231 1441   6.065   6.478   5.231 -0.3596  0.3536 -0.1558
    6MOL   O232 1442   5.951   6.399   5.252  0.1680 -0.8245  0.7847
    6MOL   C233 1443   5.851   6.450   5.322 -0.0272  0.0449 -0.1575
    6MOL   C234 1444   5.727   6.347   5.326  0.4747  0.3008 -0.2012
    6MOL   O235 1445   5.842   6.555   5.379 -0.7457 -0.3463 -0.0713
    6MOL   H236 1446   6.194   6.318   5.175  0.0824  1.4636  2.7962
    6MOL   H237 1447   6.251   6.477   5.122 -0.0851 -0.0591 -1.0185
    6MOL   H238 1448   6.035   6.582   5.221  0.8052  0.6389 -0.7357
    6MOL   H239 1449   5.753   6.243   5.345  0.7756  0.5548  0.8052
    6MOL   H240 1450   5.673   6.352   5.232 -0.3632  1.3280  0.3237
    6MOL   H241 1451   5.660   6.387   5.402  1.8071  0.7522  0.7551
    6MOL   H242 1452   6.126   6.479   5.321  2.3189 -0.9483 -1.8997
    7MOL     C1 1453   6.328   7.951   8.008 -0.4220  0.1410  0.1645
    7MOL     C2 1454   6.350   7.795   8.006  0.3081  0.5105  0.0212
    7MOL     O3 1455   6.477   7.776   7.950  0.5745  0.0762 -0.0147
    7MOL     C4 1456   6.491   7.668   7.858 -0.2914 -0.1881 -0.5054
    7MOL     C5 1457   6.630   7.649   7.821 -0.0502 -0.8643 -0.5166
    7MOL     O6 1458   6.407   7.587   7.817  0.3293  0.1917 -0.2867
    7MOL     H7 1459   6.414   8.002   0.028  1.1111 -0.7824 -1.8121
    7MOL     H8 1460   6.241   7.981   0.046  0.4835  1.1281  1.0074
    7MOL     H9 1461   6.269   7.758   7.943 -0.9983 -0.0341  1.9730
    7MOL    H10 1462   6.682   7.745   7.827  0.4154 -1.0119 -1.9965
    7MOL    H11 1463   6.643   7.627   7.715  1.3150  1.1445 -0.8168
    7MOL    H12 1464   6.679   7.576   7.886  2.2957  1.3094  0.2659
    7MOL    H13 1465   6.324   7.984   7.904 -1.9116 -1.4251 -0.3093
    7MOL    C14 1466   6.339   7.735   0.127  0.3933 -0.4078 -0.5816
    7MOL    C15 1467   6.350   7.575   0.142  0.5280 -0.3864  0.0422
    7MOL    O16 1468   6.358   7.541   0.280 -0.0597  0.1072  0.0626
    7MOL    C17 1469   6.463   7.460   0.320 -0.6283 -0.1663  0.1852
    7MOL    C18 1470   6.465   7.459   0.472 -0.2948 -0.1992  0.2247
    7MOL    O19 1471   6.554   7.408   0.251 -0.3333  0.2433  0.2465
    7MOL    H20 1472   6.417   7.777   0.190  0.1967 -1.2006  0.2130
    7MOL    H21 1473   6.251   7.765   0.183 -0.1276 -1.9900 -0.5091
    7MOL    H22 1474   6.439   7.546   0.087 -0.4016 -0.7054 -1.2997
    7MOL    H23 1475   6.363   7.484   0.502 -0.4562 -0.7656  0.1539
    7MOL    H24 1476   6.520   7.548   0.502 -0.4541  0.1430 -0.4982
    7MOL    H25 1477   6.491   7.367   0.524 -0.2597 -0.8997 -1.0219
    7MOL    C26 1478   6.231   7.501   0.091 -0.8656  0.1675  0.8133
    7MOL    C27 1479   6.242   7.351   0.094 -0.1553  0.4823  0.8086
    7MOL    O28 1480   6.123   7.293   0.053  0.0566 -0.3980 -0.3269
    7MOL    C29 1481   6.028   7.236   0.136 -0.4777  0.0254 -0.0251
    7MOL    C30 1482   5.912   7.177   0.066  1.0010  0.4102  0.5757
    7MOL    O31 1483   6.020   7.234   0.258  0.1641 -0.0746  0.0585
    7MOL    H32 1484   6.138   7.531   0.139 -1.3166 -1.2700  0.8836
    7MOL    H33 1485   6.223   7.533   8.008 -1.8150 -0.3612  0.7136
    7MOL    H34 1486   6.255   7.311   0.195 -0.6182  0.0806  0.7139
    7MOL    H35 1487   5.945   7.088   0.013  2.1289  0.5326  1.0616
    7MOL    H36 1488   5.864   7.234   8.007 -0.4789 -3.8514 -1.6935
    7MOL    H37 1489   5.844   7.146   0.145 -1.5598 -0.2921 -1.8066
    7MOL    C38 1490   6.359   7.290   0.011 -0.2582  0.7587 -0.4455
    7MOL    C39 1491   6.375   7.131   0.027 -0.2440 -0.1159 -0.3911
    7MOL    O40 1492   6.426   7.073   7.928  0.0756  0.0365  0.2946
    7MOL    C41 1493   6.334   7.018   7.845  0.5740  0.1958  0.5405
    7MOL    C42 1494   6.392   6.937   7.725 -0.2220  0.0550  0.4416
    7MOL    O43 1495   6.211   7.024   7.864 -0.7766  0.0740 -0.1055
    7MOL    H44 1496   6.324   7.305   7.931 -1.3497  0.8287 -0.0582
    7MOL    H45 1497   6.453   7.345   0.014  0.3537 -0.2703 -0.4150
    7MOL    H46 1498   6.287   7.096   0.080  0.4356 -0.4736  0.5066
    7MOL    H47 1499   6.430   7.003   7.647 -1.2050 -0.7387 -0.7198
    7MOL    H48 1500   6.306   6.887   7.682 -0.4034  1.0255 -0.3521
    7MOL    H49 1501   6.460   6.859   7.760 -2.8258 -3.5058 -2.0795
    7MOL    C50 1502   6.484   7.109   0.135  0.0975 -0.0856 -0.4652
    7MOL    C51 1503   6.494   6.965   0.203  0.0072  0.0398 -0.4253
    7MOL    O52 1504   6.534   6.875   0.100  0.4830  0.1678 -0.3871
    7MOL    C53 1505   6.453   6.772   0.072 -0.1102 -0.0648 -0.3085
    7MOL    C54 1506   6.505   6.680   7.987 -0.8528 -0.3268  0.7257
    7MOL    O55 1507   6.347   6.746   0.130 -0.1220 -0.3316  0.7660
    7MOL    H56 1508   6.583   7.136   0.099  0.0413  1.9549  0.8629
    7MOL    H57 1509   6.465   7.183   0.212 -0.0164 -0.7322  0.1385
    7MOL    H58 1510   6.395   6.945   0.244  0.3227  0.3032  0.4783
    7MOL    H59 1511   6.439   6.677   7.900  0.5550  1.3166 -0.4374
    7MOL    H60 1512   6.510   6.577   0.000 -1.8974 -0.4872  0.4075
    7MOL    H61 1513   6.606   6.712   7.959 -0.8987 -1.4446 -0.7871
    7MOL    C62 1514   6.607   6.959   0.306 -0.4422  0.3456 -0.2357
    7MOL    C63 1515   6.586   7.050   0.429 -0.3264  0.0114  1.4255
    7MOL    O64 1516   6.484   7.013   0.526 -0.5570  0.7131 -0.2821
    7MOL    C65 1517   6.376   7.083   0.527 -0.1281  0.0808  0.2646
    7MOL    C66 1518   6.293   7.060   0.649 -0.3829  0.0625  0.3045
    7MOL    O67 1519   6.348   7.177   0.451  0.2767  0.3383 -0.0134
    7MOL    H68 1520   6.620   6.854   0.333 -0.6357  0.7914  1.6573
    7MOL    H69 1521   6.698   6.996   0.258  0.1222 -1.6030 -0.6992
    7MOL    H70 1522   6.571   7.150   0.387  0.0241 -0.3889  0.3491
    7MOL    H71 1523   6.269   7.148   0.708 -0.3899 -0.7494  1.5456
    7MOL    H72 1524   6.325   6.991   0.728 -5.6135 -0.3257  2.3008
    7MOL    H73 1525   6.198   7.018   0.615 -0.0910 -1.0549  0.8440
    7MOL    C74 1526   6.715   7.073   0.511 -0.1051 -0.3070 -0.2119
    7MOL    C75 1527   6.776   6.958   0.594  0.1279 -0.8554 -0.3612
    7MOL    O76 1528   6.912   6.943   0.546  0.4013 -0.3726 -0.4912
    7MOL    C77 1529   6.950   6.846   0.460 -0.1785  0.4046  0.5534
    7MOL    C78 1530   7.097   6.830   0.470 -0.0707 -0.2157 -0.1776
    7MOL    O79 1531   6.882   6.773   0.384  0.4007  0.0632  0.1164
    7MOL    H80 1532   6.790   7.104   0.437  1.3667  0.2815  1.4788
    7MOL    H81 1533   6.701   7.167   0.563  1.3066 -0.4728  0.4939
    7MOL    H82 1534   6.722   6.865   0.576 -2.3451  0.4194  0.2389
    7MOL    H83 1535   7.147   6.926   0.479  1.9445 -1.2977  0.6897
    7MOL    H84 1536   7.151   6.801   0.380 -1.1226  1.3226 -1.3037
    7MOL    H85 1537   7.119   6.764   0.555  1.1527 -0.0765 -0.3679
    7MOL    C86 1538   6.788   6.981   0.746 -0.5471 -0.2294  0.4148
    7MOL    C87 1539   6.658   6.979   0.831 -0.6293  0.5782  0.5747
    7MOL    O88 1540   6.578   7.096   0.805 -0.4705 -0.0526  0.0384
    7MOL    C89 1541   6.551   7.178   0.916 -0.1826 -0.3523  0.0649
    7MOL    C90 1542   6.444   7.285   0.892  0.2600  0.0861  0.2523
    7MOL    O91 1543   6.592   7.175   1.035 -0.0772 -0.3909  0.2296
    7MOL    H92 1544   6.853   6.900   0.781  1.1952  1.4851  1.2796
    7MOL    H93 1545   6.850   7.071   0.748 -0.6912 -0.0932 -1.0111
    7MOL    H94 1546   6.692   6.992   0.934 -1.4429  1.8384  0.6922
    7MOL    H95 1547   6.360   7.261   0.958  0.4088  0.1323  0.4595
    7MOL    H96 1548   6.418   7.293   0.786  0.7901 -1.0874  0.0263
    7MOL    H97 1549   6.472   7.387   0.921 -0.1766  1.6359 -4.3603
    7MOL    C98 1550   6.569   6.863   0.832  0.2260  0.3238 -0.3651
    7MOL    C99 1551   6.616   6.735   0.906  0.2520 -0.1797 -0.1990
    7MOL   O100 1552   6.611   6.764   1.044 -0.0957 -0.3513 -0.9430
    7MOL   C101 1553   6.719   6.763   1.122 -0.2220  0.5679  0.1738
    7MOL   C102 1554   6.689   6.827   1.265  0.1436 -0.9061  0.2264
    7MOL   O103 1555   6.831   6.730   1.089  0.0744 -0.4337  0.4248
    7MOL   H104 1556   6.477   6.890   0.884 -0.5818 -0.1629 -1.4959
    7MOL   H105 1557   6.539   6.845   0.728  1.0664  0.6970 -0.6713
    7MOL   H106 1558   6.719   6.724   0.872  0.5082 -0.7577  0.7318
    7MOL   H107 1559   6.786   6.818   1.315  0.3416  0.7381  0.1706
    7MOL   H108 1560   6.617   6.782   1.333 -1.3130  0.4642 -0.3818
    7MOL   H109 1561   6.660   6.930   1.246 -0.6187 -1.6239 -2.6959
    7MOL   C110 1562   6.526   6.615   0.871  0.1510  0.1416 -0.3327
    7MOL   C111 1563   6.546   6.480   0.948 -0.3737  0.1858  0.1388
    7MOL   O112 1564   6.433   6.392   0.920 -0.1278  0.1901 -0.1880
    7MOL   C113 1565   6.331   6.380   1.009  0.3193 -0.0076 -0.5324
    7MOL   C114 1566   6.212   6.295   0.956 -0.8896 -0.3535 -0.1583
    7MOL   O115 1567   6.324   6.440   1.120 -0.1290 -0.0770  0.2452
    7MOL   H116 1568   6.419   6.635   0.878 -0.1971 -1.4511 -0.7541
    7MOL   H117 1569   6.531   6.592   0.764 -1.0574 -0.7745 -0.2029
    7MOL   H118 1570   6.533   6.508   1.052  0.9085  0.5933  0.1998
    7MOL   H119 1571   6.121   6.348   0.928 -0.7015  0.0419 -0.0358
    7MOL   H120 1572   6.193   6.219   1.032  0.0154  0.1952  0.6381
    7MOL   H121 1573   6.252   6.241   0.870 -0.0767 -1.3866  0.8545
    7MOL   C122 1574   6.683   6.416   0.926 -0.0557  0.5465 -0.2129
    7MOL   C123 1575   6.733   6.304   1.019 -0.1357  0.0073  0.4098
    7MOL   O124 1576   6.640   6.194   1.012  0.0733 -0.0283 -0.4560
    7MOL   C125 1577   6.576   6.149   1.125  0.0149  0.3401  0.1404
    7MOL   C126 1578   6.484   6.026   1.104 -0.1340 -0.5054 -0.2750
    7MOL   O127 1579   6.599   6.199   1.237  0.0656 -0.3633  0.0260
    7MOL   H128 1580   6.696   6.377   0.825  0.8861 -1.3303  0.6039
    7MOL   H129 1581   6.759   6.493   0.940 -0.0644  0.4338  0.4405
    7MOL   H130 1582   6.741   6.345   1.120  1.1455  2.8129 -0.7500
    7MOL   H131 1583   6.443   6.023   1.003  1.6626 -0.1113 -1.0361
    7MOL   H132 1584   6.407   6.019   1.180  0.2444  0.8782  0.2455
    7MOL   H133 1585   6.555   5.944   1.115 -1.3635 -1.4133  1.1024
    7MOL   C134 1586   6.865   6.244   0.978  0.4029  0.3256  0.8228
    7MOL   C135 1587   6.981   6.311   1.049 -0.6640 -0.0461 -0.5535
    7MOL   O136 1588   6.962   6.301   1.192 -0.1496 -0.6854  0.0704
    7MOL   C137 1589   6.997   6.404   1.270  0.7420  0.4503 -0.9431
    7MOL   C138 1590   6.968   6.371   1.416  0.3608  0.2469 -0.0520
    7MOL   O139 1591   7.039   6.517   1.233  0.3284  0.2898 -0.2783
    7MOL   H140 1592   6.868   6.139   1.010 -0.2821  0.1068  0.1791
    7MOL   H141 1593   6.893   6.238   0.873  0.7307 -3.2063  1.0246
    7MOL   H142 1594   6.970   6.412   1.010 -1.5364 -0.8252 -2.4130
    7MOL   H143 1595   6.936   6.270   1.441  0.1586  0.1007 -0.9004
    7MOL   H144 1596   6.882   6.436   1.436 -0.1232 -1.3452  3.3943
    7MOL   H145 1597   7.049   6.403   1.482  0.5406 -0.0433 -0.1343
    7MOL   C146 1598   7.124   6.253   1.013  0.3041 -0.4296 -0.2978
    7MOL   C147 1599   7.220   6.367   0.990  0.5228 -0.4106  0.3137
    7MOL   O148 1600   7.321   6.334   1.079  1.0533 -0.0280 -0.2126
    7MOL   C149 1601   7.394   6.429   1.138  0.2468 -0.8761 -0.1650
    7MOL   C150 1602   7.504   6.376   1.228 -0.2422  0.5872 -0.1604
    7MOL   O151 1603   7.380   6.552   1.137  0.0920 -0.4218 -0.0054
    7MOL   H152 1604   7.155   6.192   1.098 -0.8826  0.4343  0.7674
    7MOL   H153 1605   7.116   6.181   0.931 -3.4213 -2.1880  1.4757
    7MOL   H154 1606   7.159   6.454   1.014 -2.3069 -2.0266 -0.7842
    7MOL   H155 1607   7.525   6.447   1.308 -0.7206  1.6418 -0.9496
    7MOL   H156 1608   7.596   6.357   1.174  0.1377 -0.9631  1.0032
    7MOL   H157 1609   7.472   6.285   1.280  1.7264  0.5939  1.1246
    7MOL   C158 1610   7.266   6.374   0.850  0.1756 -0.5387 -0.2674
    7MOL   C159 1611   7.169   6.434   0.746 -0.7039 -0.0198  0.1048
    7MOL   O160 1612   7.190   6.574   0.763  0.2688 -0.4532 -0.5151
    7MOL   C161 1613   7.089   6.650   0.809 -0.4349  0.4994  0.3635
    7MOL   C162 1614   7.130   6.793   0.849 -0.0001  0.0305 -0.0038
    7MOL   O163 1615   6.975   6.603   0.824  0.1234 -0.3350 -0.1160
    7MOL   H164 1616   7.356   6.435   0.839 -0.1080 -0.3840 -1.8343
    7MOL   H165 1617   7.294   6.275   0.815  2.1918 -0.0440 -0.1177
    7MOL   H166 1618   7.074   6.395   0.784 -0.1461 -0.6967  0.8390
    7MOL   H167 1619   7.101   6.864   0.771 -1.3559 -0.3366  0.1595
    7MOL   H168 1620   7.234   6.803   0.881  0.1557  0.9423 -0.7458
    7MOL   H169 1621   7.067   6.823   0.932  2.4462 -1.3497  2.4475
    7MOL   C170 1622   7.188   6.386   0.601  0.2928 -0.1530 -0.3470
    7MOL   C171 1623   7.158   6.238   0.576  1.1286  0.0155 -0.1156
    7MOL   O172 1624   7.020   6.227   0.552 -0.1117  1.4787  0.4459
    7MOL   C173 1625   6.943   6.139   0.632  0.9497 -0.1765 -0.5228
    7MOL   C174 1626   6.797   6.134   0.579 -0.5454  0.5408  0.3400
    7MOL   O175 1627   6.985   6.063   0.720 -0.0883 -0.0992  0.2652
    7MOL   H176 1628   7.143   6.446   0.522 -0.8639  0.4658  0.7663
    7MOL   H177 1629   7.296   6.398   0.588  0.2666  0.8379  0.2491
    7MOL   H178 1630   7.189   6.173   0.659  0.0249 -2.3191 -1.4742
    7MOL   H179 1631   6.766   6.217   0.515 -1.3006 -0.2863 -0.3839
    7MOL   H180 1632   6.741   6.112   0.670 -0.1077 -0.1346  0.4534
    7MOL   H181 1633   6.796   6.039   0.526  0.8563  1.5112 -1.4830
    7MOL   C182 1634   7.224   6.155   0.460 -0.5492 -0.1205  0.2294
    7MOL   C183 1635   7.378   6.176   0.449 -0.0318  0.0671 -0.6606
    7MOL   O184 1636   7.443   6.123   0.560  0.2020  0.0169  0.0651
    7MOL   C185 1637   7.528   6.206   0.634  0.2797 -0.4472  0.8212
    7MOL   C186 1638   7.592   6.135   0.750  0.1148  0.2638 -0.4399
    7MOL   O187 1639   7.552   6.325   0.616  0.2850  0.3972  0.5113
    7MOL   H188 1640   7.201   6.050   0.478  2.2692 -0.3839  2.6938
    7MOL   H189 1641   7.182   6.195   0.368  0.2921  2.2631  0.8241
    7MOL   H190 1642   7.387   6.284   0.441 -0.2792  0.0827 -0.7318
    7MOL   H191 1643   7.514   6.081   0.804 -1.2937  0.0202 -2.6413
    7MOL   H192 1644   7.641   6.206   0.817 -1.2994  0.7260  0.1298
    7MOL   H193 1645   7.669   6.065   0.719 -1.5620 -0.8072 -2.3053
    7MOL   C194 1646   7.428   6.113   0.319 -0.3396  0.2822  0.8551
    7MOL   C195 1647   7.563   6.171   0.269  0.3267 -1.1318  0.3184
    7MOL   O196 1648   7.588   6.110   0.142  0.0561  0.1368  0.6709
    7MOL   C197 1649   7.711   6.067   0.112  0.1558 -0.4375  0.3712
    7MOL   C198 1650   7.721   5.961   8.015  0.2247 -0.6165 -0.7123
    7MOL   O199 1651   7.818   6.108   0.169 -1.0166  0.2972  0.6215
    7MOL   H200 1652   7.450   6.008   0.339  0.3046  0.0133 -1.1147
    7MOL   H201 1653   7.343   6.116   0.251 -0.7889  1.0543  1.4500
    7MOL   H202 1654   7.645   6.162   0.341 -1.4073  0.0750  2.5242
    7MOL   H203 1655   7.700   6.019   7.926 -1.0224 -1.0019 -0.6888
    7MOL   H204 1656   7.650   5.878   0.005 -1.6023  1.2957  2.9609
    7MOL   H205 1657   7.816   5.914   7.992  1.9381  2.9480 -1.1667
    7MOL   C206 1658   7.574   6.329   0.252  0.2349  0.3407  0.0730
    7MOL   C207 1659   7.464   6.384   0.159 -0.0734  0.3297 -1.0006
    7MOL   O208 1660   7.453   6.520   0.201 -0.1040 -0.0407  0.2735
    7MOL   C209 1661   7.348   6.574   0.261 -0.8369 -0.1338 -0.1276
    7MOL   C210 1662   7.366   6.722   0.273  0.6350  0.0466 -0.3219
    7MOL   O211 1663   7.244   6.513   0.274  0.6742  0.4769 -0.5039
    7MOL   H212 1664   7.578   6.385   0.346 -1.6194  1.6303 -0.5699
    7MOL   H213 1665   7.673   6.343   0.211 -0.8263 -1.4018 -3.2258
    7MOL   H214 1666   7.369   6.336   0.180  1.1800 -2.0651 -0.6033
    7MOL   H215 1667   7.453   6.766   0.226  0.8371  0.0906  0.0871
    7MOL   H216 1668   7.374   6.743   0.380  1.2450 -1.6537 -0.0101
    7MOL   H217 1669   7.280   6.770   0.226 -0.1461 -0.3028  0.7021
    7MOL   C218 1670   7.493   6.373   0.006 -0.4099  0.0569  0.2393
    7MOL   C219 1671   7.389   6.442   7.935  0.4593 -0.2066 -0.3457
    7MOL   O220 1672   7.453   6.464   7.807  0.3493 -0.3892 -0.7118
    7MOL   C221 1673   7.415   6.560   7.723 -0.3447  0.3272 -0.0971
    7MOL   C222 1674   7.489   6.553   7.588 -0.0849  0.1023 -0.7784
    7MOL   O223 1675   7.326   6.640   7.752  0.1730 -0.1338  0.2151
    7MOL   H224 1676   7.589   6.416   8.001  0.4831 -0.2911  2.7877
    7MOL   H225 1677   7.507   6.270   7.995 -0.6776 -0.2786  1.1673
    7MOL   H226 1678   7.356   6.534   7.983  1.3077 -0.2259  0.2788
    7MOL   H227 1679   7.566   6.477   7.578  2.0692  1.9945  0.8259
    7MOL   H228 1680   7.545   6.646   7.577  0.2630  0.6419  4.3300
    7MOL   H229 1681   7.412   6.543   7.511 -1.2307  3.2747 -0.1263
    7MOL   C230 1682   7.267   6.349   7.921  0.1476 -0.2400  0.3728
    7MOL   C231 1683   7.140   6.417   7.885 -0.5741  0.1096  0.4968
    7MOL   O232 1684   7.082   6.482   7.998  0.0087  0.3336  0.2867
    7MOL   C233 1685   6.980   6.576   7.984 -0.2318 -0.8692  0.6341
    7MOL   C234 1686   6.910   6.610   0.095  0.6211  0.6426 -0.0496
    7MOL   O235 1687   6.940   6.625   7.879  0.0207 -0.0584 -0.5393
    7MOL   H236 1688   7.287   6.266   7.853 -1.1505 -0.3358  0.0872
    7MOL   H237 1689   7.239   6.292   8.009 -0.1689 -0.1218  0.3526
    7MOL   H238 1690   7.071   6.341   7.849  0.6373  0.1639 -2.0276
    7MOL   H239 1691   6.820   6.549   0.095  0.3561  1.0197 -1.0834
    7MOL   H240 1692   6.885   6.716   0.095  1.4275  0.8317 -0.8776
    7MOL   H241 1693   6.972   6.579   0.179  0.0747 -2.5341 -0.7559
    7MOL   H242 1694   7.153   6.481   7.797 -0.3982  0.6358  0.9018
    8MOL     C1 1695   5.129   4.931   5.286  0.3683  0.3281 -0.6850
    8MOL     C2 1696   5.115   4.783   5.318  0.0558 -0.0708  0.1401
    8MOL     O3 1697   5.240   4.720   5.328  0.5235  0.0919  0.0537
    8MOL     C4 1698   5.246   4.591   5.307  0.4305  0.9344  0.1771
    8MOL     C5 1699   5.391   4.552   5.286  0.0356 -0.1931 -0.0627
    8MOL     O6 1700   5.153   4.512   5.298 -0.8440  0.5831 -0.0423
    8MOL     H7 1701   5.165   4.980   5.376  1.8575  0.1190 -1.1415
    8MOL     H8 1702   5.031   4.962   5.251 -0.3843 -0.8452  0.3665
    8MOL     H9 1703   5.063   4.730   5.239 -1.6266 -0.4677  1.4833
    8MOL    H10 1704   5.447   4.643   5.263  1.5336 -1.2109 -0.5509
    8MOL    H11 1705   5.410   4.481   5.205  1.0141 -0.3440  0.2954
    8MOL    H12 1706   5.444   4.513   5.372 -1.4360  1.9694  1.8810
    8MOL    H13 1707   5.208   4.949   5.212 -0.1554  0.4571 -1.2128
    8MOL    C14 1708   5.034   4.769   5.456 -0.1328  0.5078  0.1844
    8MOL    C15 1709   4.882   4.763   5.437  0.6951  0.3691 -0.0925
    8MOL    O16 1710   4.854   4.638   5.372 -0.8897  0.8648  0.0906
    8MOL    C17 1711   4.804   4.638   5.244  0.0494  0.6653 -0.0372
    8MOL    C18 1712   4.774   4.490   5.219  1.0506  0.2330 -0.5579
    8MOL    O19 1713   4.813   4.725   5.157  0.0607 -0.0069  0.1565
    8MOL    H20 1714   5.060   4.672   5.498  2.2524  1.3111  0.6553
    8MOL    H21 1715   5.070   4.838   5.532  0.0636 -1.2368  1.6836
    8MOL    H22 1716   4.840   4.846   5.380  2.4090 -0.2768 -2.3693
    8MOL    H23 1717   4.714   4.473   5.130  0.2715 -0.5381  0.1070
    8MOL    H24 1718   4.719   4.455   5.306 -0.2355 -1.2169 -1.9247
    8MOL    H25 1719   4.866   4.431   5.220  0.8734 -0.0531  2.6318
    8MOL    C26 1720   4.816   4.762   5.579  0.2022 -0.7894 -0.2041
    8MOL    C27 1721   4.810   4.910   5.641 -0.1982  0.1420 -0.0445
    8MOL    O28 1722   4.711   4.981   5.566  0.3595 -0.1540 -0.1885
    8MOL    C29 1723   4.738   5.076   5.472 -0.0188 -0.1188 -0.2070
    8MOL    C30 1724   4.610   5.149   5.431 -0.1682  0.3734  0.8239
    8MOL    O31 1725   4.847   5.096   5.428 -0.6189 -0.0881  0.2038
    8MOL    H32 1726   4.718   4.715   5.578  0.6190 -1.7108  0.8623
    8MOL    H33 1727   4.869   4.690   5.641  0.3679  0.4961  1.1937
    8MOL    H34 1728   4.906   4.959   5.625 -0.2600  0.7254  1.2753
    8MOL    H35 1729   4.632   5.256   5.432  0.0012  0.4640 -2.9325
    8MOL    H36 1730   4.530   5.131   5.503  0.0478 -2.8351  0.3179
    8MOL    H37 1731   4.580   5.118   5.331 -0.8847  0.0954  1.1179
    8MOL    C38 1732   4.765   4.918   5.792  0.1109  0.1681  0.0557
    8MOL    C39 1733   4.870   4.877   5.899 -0.5742  0.6887  0.2823
    8MOL    O40 1734   4.961   4.980   5.925 -0.1305  0.3915 -0.7098
    8MOL    C41 1735   5.081   4.996   5.854 -0.0857 -0.7940  0.1171
    8MOL    C42 1736   5.163   5.114   5.909 -0.2419  0.8795 -0.7473
    8MOL    O43 1737   5.112   4.928   5.755 -0.1448 -0.1981 -0.0634
    8MOL    H44 1738   4.730   5.019   5.812 -0.3650  0.5791 -2.7177
    8MOL    H45 1739   4.674   4.857   5.800 -0.8053  1.4176 -0.6313
    8MOL    H46 1740   4.932   4.795   5.863 -0.2141  0.1225  2.1441
    8MOL    H47 1741   5.169   5.201   5.844 -1.7464  0.6921 -1.1734
    8MOL    H48 1742   5.262   5.072   5.893  0.2216  2.5814 -2.4695
    8MOL    H49 1743   5.148   5.139   6.014  2.2080  2.3431 -0.7140
    8MOL    C50 1744   4.813   4.831   6.028  0.1257 -0.7321 -0.3619
    8MOL    C51 1745   4.906   4.799   6.148 -0.3855  0.4564  0.2789
    8MOL    O52 1746   4.820   4.779   6.258  0.1931 -0.3601 -0.4757
    8MOL    C53 1747   4.802   4.871   6.353 -0.3572  1.2421 -0.2047
    8MOL    C54 1748   4.713   4.827   6.469 -0.2972  0.8881 -0.0682
    8MOL    O55 1749   4.854   4.983   6.352  0.4640 -0.1608 -0.0738
    8MOL    H56 1750   4.742   4.910   6.053  0.9457 -0.1725  0.2192
    8MOL    H57 1751   4.744   4.750   6.003 -0.9121 -0.4008  1.3693
    8MOL    H58 1752   4.970   4.884   6.172  0.2086  0.1144 -0.0690
    8MOL    H59 1753   4.762   4.754   6.534  0.5016 -0.7394 -2.4461
    8MOL    H60 1754   4.625   4.782   6.423  1.8577  1.3057 -4.8257
    8MOL    H61 1755   4.663   4.900   6.533 -0.0497 -0.8381  2.1811
    8MOL    C62 1756   5.005   4.677   6.123 -0.0710  0.0914  0.7913
    8MOL    C63 1757   5.111   4.658   6.236  0.0612 -0.2559  0.4349
    8MOL    O64 1758   5.047   4.596   6.341  0.7872  0.2390  0.2823
    8MOL    C65 1759   5.073   4.612   6.479  0.5984  0.1119  0.9106
    8MOL    C66 1760   4.971   4.548   6.577  0.3890 -0.0216  1.4728
    8MOL    O67 1761   5.164   4.684   6.519 -0.8808  0.0982  0.2617
    8MOL    H68 1762   4.939   4.592   6.110  0.5919 -0.2235 -0.6222
    8MOL    H69 1763   5.050   4.691   6.024  0.6648 -0.0193  1.1039
    8MOL    H70 1764   5.140   4.758   6.268 -1.5136  0.0844  0.8425
    8MOL    H71 1765   4.952   4.616   6.660 -1.0399 -2.7128  3.4117
    8MOL    H72 1766   5.016   4.455   6.611 -0.1972 -0.2935  1.5136
    8MOL    H73 1767   4.873   4.522   6.536  1.7988 -2.0750 -0.7358
    8MOL    C74 1768   5.240   4.591   6.184  0.0256 -0.2824  0.0028
    8MOL    C75 1769   5.319   4.667   6.069 -0.2302 -0.1247 -0.5537
    8MOL    O76 1770   5.352   4.791   6.130  0.1946  0.4305  1.1577
    8MOL    C77 1771   5.392   4.900   6.071 -0.1575 -0.7562 -0.1069
    8MOL    C78 1772   5.414   5.024   6.156 -0.0633  1.2073 -0.4557
    8MOL    O79 1773   5.407   4.918   5.947 -0.4406 -0.0413  0.0716
    8MOL    H80 1774   5.309   4.580   6.267  0.5091  0.1208 -0.3492
    8MOL    H81 1775   5.210   4.496   6.139  2.5912 -1.2006  0.1426
    8MOL    H82 1776   5.257   4.674   5.979 -0.8195 -1.2415 -0.2521
    8MOL    H83 1777   5.408   5.109   6.088 -3.8031  1.0774 -0.3849
    8MOL    H84 1778   5.501   5.005   6.218 -0.5472 -2.1462 -0.7121
    8MOL    H85 1779   5.330   5.047   6.221  0.0929  1.2762 -0.2787
    8MOL    C86 1780   5.446   4.586   6.039 -0.2602  1.0906 -0.3846
    8MOL    C87 1781   5.439   4.531   5.897 -0.0495  0.3474 -0.4622
    8MOL    O88 1782   5.438   4.643   5.812  0.4224  0.0731 -0.1253
    8MOL    C89 1783   5.337   4.656   5.722  0.0608  0.8713  1.3225
    8MOL    C90 1784   5.358   4.781   5.641  0.3775  0.4972 -0.3841
    8MOL    O91 1785   5.245   4.581   5.702 -0.0163 -0.0106  0.0325
    8MOL    H92 1786   5.532   4.651   6.057 -0.3963  1.6333 -1.5832
    8MOL    H93 1787   5.447   4.497   6.101 -0.3151  0.3715 -1.4134
    8MOL    H94 1788   5.352   4.467   5.886 -0.3455  0.4569  1.1411
    8MOL    H95 1789   5.279   4.792   5.566  0.2960 -0.5587 -0.4713
    8MOL    H96 1790   5.452   4.771   5.588 -0.0576 -1.1724 -0.8748
    8MOL    H97 1791   5.355   4.873   5.699  4.4449  1.2178 -1.2086
    8MOL    C98 1792   5.566   4.452   5.877  0.3858  0.4480  0.5751
    8MOL    C99 1793   5.563   4.313   5.943 -0.5488  0.1967  0.0025
    8MOL   O100 1794   5.506   4.232   5.844  0.7861 -0.2928 -0.2328
    8MOL   C101 1795   5.392   4.163   5.871 -0.0843  0.1218 -0.2017
    8MOL   C102 1796   5.386   4.035   5.789 -0.5022  0.3578 -0.0186
    8MOL   O103 1797   5.304   4.192   5.952  0.0960 -0.3852  0.3003
    8MOL   H104 1798   5.599   4.442   5.773  0.8813 -3.1059  1.0083
    8MOL   H105 1799   5.645   4.512   5.922 -0.3972  3.0168 -1.3392
    8MOL   H106 1800   5.509   4.313   6.037  0.3224 -1.0645  0.5136
    8MOL   H107 1801   5.301   3.980   5.829 -0.6424  1.0223  0.6081
    8MOL   H108 1802   5.485   3.991   5.800 -0.1306  1.1432 -0.1910
    8MOL   H109 1803   5.374   4.069   5.686 -0.4845  0.8769  0.1504
    8MOL   C110 1804   5.706   4.256   5.974 -0.7251  0.3735 -0.0205
    8MOL   C111 1805   5.775   4.327   6.098  0.3196 -0.3661 -0.1638
    8MOL   O112 1806   5.790   4.236   6.210 -0.0522 -0.6567 -0.5357
    8MOL   C113 1807   5.703   4.231   6.306  0.0478  1.3084 -0.5601
    8MOL   C114 1808   5.734   4.126   6.412  0.0054 -0.2262  0.1773
    8MOL   O115 1809   5.603   4.297   6.309  0.4925  0.1966  0.3314
    8MOL   H116 1810   5.693   4.151   6.001  4.8620 -0.2035  1.0742
    8MOL   H117 1811   5.769   4.254   5.885  1.9330  3.1238  1.6692
    8MOL   H118 1812   5.710   4.410   6.126  1.2817  0.2159  0.3915
    8MOL   H119 1813   5.641   4.075   6.440 -0.3987  0.5623  0.2885
    8MOL   H120 1814   5.763   4.193   6.493 -1.1597  0.4644  0.0422
    8MOL   H121 1815   5.813   4.054   6.391  0.2411  0.5390 -1.6243
    8MOL   C122 1816   5.917   4.389   6.076  0.0669  0.5607 -0.3659
    8MOL   C123 1817   5.951   4.492   6.185 -0.6876 -0.7416 -0.2152
    8MOL   O124 1818   6.090   4.498   6.198  0.3292  0.1773 -0.0013
    8MOL   C125 1819   6.146   4.480   6.322 -0.8914  0.2692 -0.7130
    8MOL   C126 1820   6.296   4.463   6.312  0.3797  0.1156  0.0579
    8MOL   O127 1821   6.085   4.471   6.430  0.8620  0.1903  0.3935
    8MOL   H128 1822   5.986   4.304   6.081 -0.2330  0.3081 -0.5276
    8MOL   H129 1823   5.923   4.429   5.975  0.0821  0.3430 -0.4521
    8MOL   H130 1824   5.899   4.463   6.276 -1.4263  1.4577  0.1064
    8MOL   H131 1825   6.323   4.479   6.207 -1.8014  1.7090 -0.2985
    8MOL   H132 1826   6.321   4.364   6.350 -0.9384 -0.9043 -1.6464
    8MOL   H133 1827   6.353   4.534   6.371  0.3131  1.3688 -1.3406
    8MOL   C134 1828   5.894   4.634   6.161 -0.8206 -0.0275  0.3657
    8MOL   C135 1829   5.953   4.706   6.040  0.5702  0.7955 -0.7933
    8MOL   O136 1830   5.850   4.776   5.965 -0.0934 -0.5904 -0.6960
    8MOL   C137 1831   5.810   4.733   5.843  0.3904 -0.1800  1.0416
    8MOL   C138 1832   5.710   4.828   5.773  0.5588 -0.4554  0.3182
    8MOL   O139 1833   5.842   4.625   5.787 -0.2322  0.0309 -0.7587
    8MOL   H140 1834   5.788   4.618   6.143 -0.5265 -2.1837  0.3239
    8MOL   H141 1835   5.900   4.683   6.258 -1.1758 -0.9208  0.8503
    8MOL   H142 1836   5.997   4.639   5.967 -1.6419 -1.2710 -0.3027
    8MOL   H143 1837   5.650   4.881   5.848  0.8754  0.0916  0.1869
    8MOL   H144 1838   5.648   4.771   5.704 -1.5591  1.3886  0.6630
    8MOL   H145 1839   5.761   4.909   5.721 -0.9218  0.0149 -0.4162
    8MOL   C146 1840   6.064   4.809   6.083 -0.0124 -0.4677  0.4336
    8MOL   C147 1841   6.173   4.839   5.974 -0.2979  0.5433  0.5352
    8MOL   O148 1842   6.101   4.904   5.869 -0.3839 -0.8186  0.3859
    8MOL   C149 1843   6.138   4.875   5.739  0.3365 -0.2050 -0.1735
    8MOL   C150 1844   6.062   4.948   5.630 -0.0004 -0.1987  0.4312
    8MOL   O151 1845   6.218   4.788   5.705 -0.1167 -0.1046  0.3257
    8MOL   H152 1846   6.014   4.903   6.107 -0.0795 -0.4661  0.2859
    8MOL   H153 1847   6.119   4.782   6.174 -1.0265  2.0436  1.8451
    8MOL   H154 1848   6.209   4.745   5.932 -2.5700 -0.2873  0.4052
    8MOL   H155 1849   6.047   5.054   5.651  0.7117  0.2588 -1.2741
    8MOL   H156 1850   5.963   4.906   5.615 -0.4256  1.4658 -1.6154
    8MOL   H157 1851   6.130   4.934   5.545 -0.1709 -0.1717  0.2895
    8MOL   C158 1852   6.285   4.930   6.021  0.4658 -0.1591  0.1524
    8MOL   C159 1853   6.388   4.848   6.106 -0.2389 -0.1118 -0.3575
    8MOL   O160 1854   6.479   4.782   6.021 -0.1375  0.1435  0.4600
    8MOL   C161 1855   6.551   4.679   6.057  0.4187  0.3972 -0.3293
    8MOL   C162 1856   6.628   4.632   5.938  0.4200 -1.0192  0.3498
    8MOL   O163 1857   6.563   4.642   6.175 -0.0596 -0.2571  1.0505
    8MOL   H164 1858   6.332   4.986   5.940 -0.3212 -0.6001 -0.6154
    8MOL   H165 1859   6.233   5.006   6.080  1.1218 -0.1549  0.7277
    8MOL   H166 1860   6.336   4.771   6.163 -1.7615 -0.0343 -1.6081
    8MOL   H167 1861   6.544   4.599   5.877  1.0059 -1.0285 -0.4630
    8MOL   H168 1862   6.684   4.539   5.946  1.9005 -0.2643 -1.0704
    8MOL   H169 1863   6.675   4.721   5.896 -2.1179  0.4324  0.4508
    8MOL   C170 1864   6.466   4.944   6.206 -0.2618 -0.0693 -0.0949
    8MOL   C171 1865   6.383   4.980   6.335 -0.1534  0.3126 -0.0591
    8MOL   O172 1866   6.338   4.864   6.416  0.5404  0.2774 -0.1368
    8MOL   C173 1867   6.204   4.860   6.461 -0.8066  0.7049  0.4915
    8MOL   C174 1868   6.168   4.740   6.552  0.4960 -0.3721 -0.0740
    8MOL   O175 1869   6.115   4.945   6.440  0.7506 -0.0902  0.4590
    8MOL   H176 1870   6.548   4.889   6.252  0.2401  1.5602  1.0009
    8MOL   H177 1871   6.511   5.033   6.163  0.2441 -0.5152 -0.4989
    8MOL   H178 1872   6.294   5.035   6.306 -0.9465 -1.3786 -0.9058
    8MOL   H179 1873   6.068   4.700   6.536  0.5831 -0.4400 -0.4636
    8MOL   H180 1874   6.173   4.767   6.657  0.9570 -0.5002 -0.0627
    8MOL   H181 1875   6.238   4.658   6.536 -2.1095 -2.1249 -3.2496
    8MOL   C182 1876   6.463   5.078   6.432 -0.0847 -0.0009 -0.2192
    8MOL   C183 1877   6.477   5.229   6.398 -0.5220  0.9481 -0.0677
    8MOL   O184 1878   6.351   5.290   6.396  0.1916 -0.1518 -0.2363
    8MOL   C185 1879   6.268   5.307   6.287 -0.2717  0.3612 -0.4888
    8MOL   C186 1880   6.129   5.339   6.327 -0.0315  0.0243 -0.1303
    8MOL   O187 1881   6.293   5.288   6.168  0.3568 -0.3684 -0.8658
    8MOL   H188 1882   6.426   5.065   6.534 -0.9889  0.8887 -0.4338
    8MOL   H189 1883   6.561   5.030   6.440  0.2910  0.6771 -0.7046
    8MOL   H190 1884   6.520   5.233   6.298  2.5136  1.8301  1.2147
    8MOL   H191 1885   6.055   5.280   6.274 -0.0215 -0.7410  0.6976
    8MOL   H192 1886   6.109   5.444   6.305 -1.0108 -0.0382  0.4326
    8MOL   H193 1887   6.133   5.326   6.435 -0.9047 -0.6549 -0.1817
    8MOL   C194 1888   6.562   5.312   6.494  0.2703 -1.1305  0.1954
    8MOL   C195 1889   6.566   5.467   6.474  0.1693  0.9055  0.6625
    8MOL   O196 1890   6.607   5.529   6.592  0.0120 -0.0723  0.2018
    8MOL   C197 1891   6.518   5.560   6.679 -0.9856 -0.5622 -0.5996
    8MOL   C198 1892   6.577   5.628   6.799 -0.1739 -1.1245  0.1637
    8MOL   O199 1893   6.398   5.539   6.671  0.1018  0.5810 -0.2613
    8MOL   H200 1894   6.520   5.295   6.593 -1.8721 -0.0484 -0.4915
    8MOL   H201 1895   6.661   5.269   6.505  0.3048 -0.8094  1.1103
    8MOL   H202 1896   6.467   5.500   6.443 -0.3221 -1.3902 -0.3282
    8MOL   H203 1897   6.655   5.564   6.841  0.3577  0.3106  1.3886
    8MOL   H204 1898   6.501   5.652   6.873  0.7940  1.2940  0.4020
    8MOL   H205 1899   6.621   5.717   6.754 -1.1214 -0.1248  1.1908
    8MOL   C206 1900   6.677   5.497   6.369 -0.3655 -0.2807  0.4176
    8MOL   C207 1901   6.658   5.633   6.290  0.5177  0.3530 -0.0786
    8MOL   O208 1902   6.640   5.737   6.384  0.2878 -0.3056 -0.3316
    8MOL   C209 1903   6.535   5.813   6.381  0.5916 -0.1348  0.7596
    8MOL   C210 1904   6.526   5.895   6.507  0.0174  0.5613  0.1611
    8MOL   O211 1905   6.443   5.819   6.300 -0.1369  0.0120 -0.0845
    8MOL   H212 1906   6.774   5.493   6.418 -0.3051 -1.0674  0.2348
    8MOL   H213 1907   6.686   5.420   6.293  0.9194 -0.8237  1.1112
    8MOL   H214 1908   6.567   5.629   6.230  2.6963 -2.1183 -3.4094
    8MOL   H215 1909   6.492   5.835   6.591 -0.4682  0.8213  0.1536
    8MOL   H216 1910   6.438   5.957   6.493 -0.7720 -0.5094  0.3425
    8MOL   H217 1911   6.613   5.958   6.525 -1.2509  2.0592  1.2546
    8MOL   C218 1912   6.771   5.671   6.197  0.5143  0.2386  0.0510
    8MOL   C219 1913   6.808   5.569   6.088 -0.3590  0.1726 -0.1211
    8MOL   O220 1914   6.686   5.529   6.022  0.5346 -0.3007 -0.0527
    8MOL   C221 1915   6.637   5.404   6.014  0.5066  0.0570 -0.5358
    8MOL   C222 1916   6.495   5.400   5.957 -0.0891  0.0802 -0.1246
    8MOL   O223 1917   6.694   5.298   6.046 -0.6525 -0.0932 -0.2544
    8MOL   H224 1918   6.734   5.759   6.144  1.2922  0.6956  0.2586
    8MOL   H225 1919   6.862   5.693   6.253  0.6498 -1.8018  0.6637
    8MOL   H226 1920   6.838   5.478   6.140 -2.4178  0.3553  1.4401
    8MOL   H227 1921   6.440   5.311   5.987  0.3062 -0.7484 -1.8310
    8MOL   H228 1922   6.512   5.389   5.850 -0.3006  0.7135 -0.2241
    8MOL   H229 1923   6.436   5.492   5.964  0.4118  0.4399 -0.6170
    8MOL   C230 1924   6.931   5.621   6.013  0.3736  0.3220 -0.3043
    8MOL   C231 1925   6.948   5.546   5.882 -0.2698 -0.3775  0.9093
    8MOL   O232 1926   7.026   5.426   5.900 -0.6140 -0.0934 -0.3651
    8MOL   C233 1927   7.157   5.432   5.881 -0.6552 -0.1591  0.7112
    8MOL   C234 1928   7.229   5.310   5.917  0.0429  0.5524 -0.0722
    8MOL   O235 1929   7.223   5.525   5.834  1.0414 -0.4096 -0.0576
    8MOL   H236 1930   6.914   5.725   5.986  1.5091  1.0450  1.6490
    8MOL   H237 1931   7.019   5.628   6.077  1.1860 -2.5666 -1.0355
    8MOL   H238 1932   6.997   5.610   5.809  0.3577 -1.8802 -0.0091
    8MOL   H239 1933   7.251   5.314   6.024  1.3296  0.2748 -0.3128
    8MOL   H240 1934   7.327   5.307   5.868 -0.1454 -0.3607 -0.4059
    8MOL   H241 1935   7.174   5.221   5.887 -1.4495  1.3753  0.1890
    8MOL   H242 1936   6.858   5.524   5.824  0.0614 -0.3611  0.3932
    9MOL     C1 1937   0.704   5.708   2.573  0.1341 -0.0992  0.7228
    9MOL     C2 1938   0.651   5.849   2.614  0.0970 -0.4217 -0.3878
    9MOL     O3 1939   0.762   5.927   2.621  0.4730  0.1164  0.6203
    9MOL     C4 1940   0.783   6.001   2.728 -0.2078 -0.0289 -0.0710
    9MOL     C5 1941   0.928   6.064   2.724  0.1988  0.0414 -0.1614
    9MOL     O6 1942   0.709   6.019   2.829 -0.3301  0.7758 -0.2327
    9MOL     H7 1943   0.764   5.711   2.482 -2.5067  0.6150 -1.0511
    9MOL     H8 1944   0.621   5.639   2.555  0.1692  0.1925 -0.6357
    9MOL     H9 1945   0.593   5.840   2.707 -0.6803 -0.6108 -0.8865
    9MOL    H10 1946   0.986   6.041   2.635  0.1928  2.3713 -0.7968
    9MOL    H11 1947   0.983   6.030   2.812 -2.2031 -1.1369  0.9211
    9MOL    H12 1948   0.934   6.173   2.727 -1.9499  0.3208 -3.4920
    9MOL    H13 1949   0.762   5.666   2.655  1.5527 -0.1936 -0.3201
    9MOL    C14 1950   0.550   5.916   2.512  0.0594  0.2355 -0.2031
    9MOL    C15 1951   0.406   5.859   2.508  0.5744 -0.3697 -0.0836
    9MOL    O16 1952   0.352   5.883   2.636 -0.1987 -0.8449 -0.2516
    9MOL    C17 1953   0.328   5.784   2.719  0.4351  0.6103 -0.6852
    9MOL    C18 1954   0.243   5.833   2.833 -0.1052 -0.3889 -0.1223
    9MOL    O19 1955   0.350   5.667   2.697 -0.5205 -0.2910 -0.2313
    9MOL    H20 1956   0.533   6.021   2.534 -1.4134  0.0690 -0.4761
    9MOL    H21 1957   0.599   5.927   2.415  1.6709 -0.2005  0.5526
    9MOL    H22 1958   0.411   5.754   2.479  2.3991 -0.9044  1.9941
    9MOL    H23 1959   0.175   5.757   2.872  0.3394 -1.2518 -1.0217
    9MOL    H24 1960   0.181   5.920   2.811 -0.5966 -0.0580  2.4308
    9MOL    H25 1961   0.300   5.840   2.926  1.8814  1.2222 -1.4248
    9MOL    C26 1962   0.313   5.929   2.403  0.3886 -0.0213 -0.2722
    9MOL    C27 1963   0.341   5.917   2.253 -0.0250 -0.5425 -0.4887
    9MOL    O28 1964   0.315   5.786   2.204 -0.3552  0.1742  0.2614
    9MOL    C29 1965   0.416   5.700   2.195 -0.3408  0.2255  0.1363
    9MOL    C30 1966   0.379   5.586   2.106 -0.4017  0.0660 -0.1433
    9MOL    O31 1967   0.521   5.703   2.258  0.2636 -0.5253 -0.2170
    9MOL    H32 1968   0.213   5.888   2.417  0.5614 -0.0483  0.9870
    9MOL    H33 1969   0.298   6.034   2.429  0.7640 -0.3281  1.2590
    9MOL    H34 1970   0.447   5.930   2.231 -0.0020 -1.7387 -1.1370
    9MOL    H35 1971   0.465   5.526   2.077 -0.2649 -0.0443  0.4802
    9MOL    H36 1972   0.344   5.637   2.016  1.9883 -1.4255 -1.9849
    9MOL    H37 1973   0.299   5.523   2.145  0.7404 -0.0679  2.0715
    9MOL    C38 1974   0.253   6.010   2.160  0.1110  0.3343 -0.4795
    9MOL    C39 1975   0.299   6.156   2.163  0.4480 -0.6324 -0.1477
    9MOL    O40 1976   0.434   6.167   2.125  0.4287  0.4000 -0.2150
    9MOL    C41 1977   0.538   6.184   2.210  0.1059 -0.2005 -0.3807
    9MOL    C42 1978   0.669   6.207   2.147  0.5530  0.2079 -0.4716
    9MOL    O43 1979   0.536   6.188   2.332 -0.0702 -0.2386 -0.2989
    9MOL    H44 1980   0.247   5.976   2.057 -0.3220  0.9507 -0.6594
    9MOL    H45 1981   0.150   6.000   2.194 -0.7976  0.2118 -3.1510
    9MOL    H46 1982   0.287   6.192   2.265 -2.0072  1.4045 -1.1144
    9MOL    H47 1983   0.721   6.112   2.137 -1.4199 -0.8114 -1.3696
    9MOL    H48 1984   0.735   6.278   2.197  2.5047 -0.9057 -1.4069
    9MOL    H49 1985   0.650   6.255   2.051  1.9707  2.3176  0.2641
    9MOL    C50 1986   0.222   6.241   2.066  0.1431 -0.3585 -0.4709
    9MOL    C51 1987   0.175   6.371   2.121 -0.5305 -0.5050 -0.2383
    9MOL    O52 1988   0.292   6.445   2.146  0.2750 -0.2153 -0.3441
    9MOL    C53 1989   0.295   6.539   2.245 -0.9976 -0.0694 -0.4382
    9MOL    C54 1990   0.429   6.611   2.258 -0.1339 -0.3905  0.3851
    9MOL    O55 1991   0.200   6.570   2.320 -0.5008  0.1874  0.1491
    9MOL    H56 1992   0.279   6.264   1.976  1.9047 -1.6759  0.2874
    9MOL    H57 1993   0.137   6.182   2.032  0.3237 -1.2304  0.5518
    9MOL    H58 1994   0.132   6.358   2.221  0.8958  0.0020  0.4599
    9MOL    H59 1995   0.411   6.704   2.312  1.0177 -1.5837  2.8655
    9MOL    H60 1996   0.483   6.627   2.164 -0.5765 -0.2705  0.1471
    9MOL    H61 1997   0.502   6.556   2.318  2.3017  0.8227 -1.3660
    9MOL    C62 1998   0.077   6.435   2.021  0.1672  0.6151 -0.2741
    9MOL    C63 1999   0.119   6.456   1.873  0.5460  0.0016  0.2632
    9MOL    O64 2000   8.019   6.483   1.796  0.3034  0.1004  0.5874
    9MOL    C65 2001   7.949   6.385   1.733 -0.2431  0.5899  0.0857
    9MOL    C66 2002   7.836   6.439   1.647 -0.4278  0.3317 -0.9570
    9MOL    O67 2003   7.971   6.263   1.746  0.4466 -0.0742  0.2229
    9MOL    H68 2004   7.996   6.399   2.030  0.5103 -0.3499 -0.2290
    9MOL    H69 2005   0.052   6.535   2.057 -0.5556 -0.2361  1.6018
    9MOL    H70 2006   0.165   6.366   1.832  0.2542  1.2657 -3.0083
    9MOL    H71 2007   7.845   6.545   1.621  0.5305  1.2466  2.9022
    9MOL    H72 2008   7.740   6.438   1.698 -0.1251 -2.6930 -0.3699
    9MOL    H73 2009   7.824   6.383   1.554 -1.7113  0.5957 -0.9591
    9MOL    C74 2010   0.216   6.583   1.845  0.2119 -0.1244  0.2096
    9MOL    C75 2011   0.282   6.586   1.706  0.0062  0.1098 -0.5255
    9MOL    O76 2012   0.181   6.625   1.616  0.2346 -0.2241 -0.6079
    9MOL    C77 2013   0.192   6.578   1.496 -0.0669 -0.3779 -0.1130
    9MOL    C78 2014   0.074   6.613   1.411 -0.0005  0.7496 -0.4875
    9MOL    O79 2015   0.267   6.500   1.450 -0.6861  0.6018  0.2582
    9MOL    H80 2016   0.164   6.676   1.866  1.6769  0.6660  0.3615
    9MOL    H81 2017   0.296   6.582   1.919 -0.1582  1.3962  0.6491
    9MOL    H82 2018   0.322   6.490   1.676  3.2128  1.1959  0.1020
    9MOL    H83 2019   8.002   6.561   1.432 -0.1098 -0.2269 -3.1925
    9MOL    H84 2020   0.088   6.606   1.303  2.3720  1.5768 -0.2531
    9MOL    H85 2021   0.064   6.720   1.431  1.2402  1.0159 -1.2353
    9MOL    C86 2022   0.386   6.706   1.705  0.1717  0.2793 -0.0903
    9MOL    C87 2023   0.509   6.692   1.796 -0.8105 -0.1190 -0.9096
    9MOL    O88 2024   0.576   6.579   1.755  0.2268 -0.4746 -0.2167
    9MOL    C89 2025   0.595   6.473   1.832 -0.5722  0.3130 -0.4691
    9MOL    C90 2026   0.630   6.350   1.752 -0.3203  0.2645  0.1151
    9MOL    O91 2027   0.576   6.468   1.951 -0.1537 -0.0097 -0.0788
    9MOL    H92 2028   0.402   6.735   1.601  2.0742  1.4108  0.4888
    9MOL    H93 2029   0.332   6.793   1.742  0.1098 -0.7283  2.2133
    9MOL    H94 2030   0.465   6.676   1.894 -0.0063 -1.2885 -0.7267
    9MOL    H95 2031   0.722   6.313   1.797 -0.2791  0.9323  0.5842
    9MOL    H96 2032   0.641   6.355   1.644 -1.1496 -0.9487 -0.0428
    9MOL    H97 2033   0.564   6.266   1.776  1.3236 -1.5591 -1.5130
    9MOL    C98 2034   0.609   6.810   1.806 -0.0666  0.3443  0.2949
    9MOL    C99 2035   0.552   6.950   1.860  0.3634 -0.2461 -0.1774
    9MOL   O100 2036   0.553   6.949   2.002 -0.3257 -0.1923  0.2855
    9MOL   C101 2037   0.452   6.899   2.079  0.3720 -0.2467  0.0079
    9MOL   C102 2038   0.467   6.941   2.229 -0.5022  0.1828 -0.1075
    9MOL   O103 2039   0.371   6.818   2.039 -0.1331 -0.1562 -0.5257
    9MOL   H104 2040   0.695   6.776   1.863  1.2898  3.5876  0.3039
    9MOL   H105 2041   0.622   6.831   1.699 -1.4959  1.2997  0.2863
    9MOL   H106 2042   0.451   6.972   1.827  1.4396  3.5465 -1.1666
    9MOL   H107 2043   0.499   7.044   2.243  0.5006 -0.5415  3.6116
    9MOL   H108 2044   0.546   6.883   2.278 -0.9172 -0.1976  0.1137
    9MOL   H109 2045   0.375   6.934   2.287  1.2724  1.6739  3.0280
    9MOL   C110 2046   0.638   7.069   1.803  0.6949 -0.2250  0.6439
    9MOL   C111 2047   0.611   7.094   1.647  0.3746  0.5822 -0.2684
    9MOL   O112 2048   0.473   7.102   1.625  0.2694  0.2031  0.3159
    9MOL   C113 2049   0.430   7.082   1.498 -0.4533 -0.8245  0.7980
    9MOL   C114 2050   0.279   7.067   1.480 -0.2216 -0.1463 -0.4617
    9MOL   O115 2051   0.505   7.073   1.402  0.1811  0.0556  0.1447
    9MOL   H116 2052   0.626   7.166   1.852  0.9415 -0.4399  1.1294
    9MOL   H117 2053   0.745   7.061   1.823  1.3557  1.5686 -1.8404
    9MOL   H118 2054   0.652   7.017   1.582 -2.1754 -0.8596 -0.2620
    9MOL   H119 2055   0.247   7.137   1.556 -1.8478 -1.0114 -0.3294
    9MOL   H120 2056   0.252   6.964   1.504  0.2674 -0.5841 -1.7422
    9MOL   H121 2057   0.252   7.106   1.382 -0.1216  1.1326  0.0123
    9MOL   C122 2058   0.687   7.218   1.600  0.6619 -0.3029 -0.2817
    9MOL   C123 2059   0.842   7.211   1.616 -0.5028 -0.4023  0.1396
    9MOL   O124 2060   0.893   7.130   1.505  0.1650  0.0650 -0.0024
    9MOL   C125 2061   0.965   7.022   1.539 -0.2868 -0.2096  0.8731
    9MOL   C126 2062   1.017   6.951   1.418  0.4222 -0.4064 -0.0042
    9MOL   O127 2063   0.983   6.979   1.657  0.2207 -0.1046  0.3795
    9MOL   H128 2064   0.663   7.264   1.504 -1.2395 -0.1095  0.2649
    9MOL   H129 2065   0.642   7.297   1.660  0.6278 -1.0433  0.6712
    9MOL   H130 2066   0.875   7.171   1.712 -1.1125 -1.3939 -0.0667
    9MOL   H131 2067   0.938   6.957   1.343  1.1269  1.9980 -0.5850
    9MOL   H132 2068   1.036   6.846   1.440 -0.1216 -0.6117 -0.4959
    9MOL   H133 2069   1.104   7.003   1.380  0.5067  1.6801  2.9498
    9MOL   C134 2070   0.907   7.358   1.600 -0.3468 -0.6698 -0.4627
    9MOL   C135 2071   0.979   7.414   1.723  0.2605  0.0613 -0.1587
    9MOL   O136 2072   1.115   7.363   1.707  0.3640 -0.1323  0.4893
    9MOL   C137 2073   1.185   7.307   1.813  0.5915 -0.8169 -0.7963
    9MOL   C138 2074   1.321   7.253   1.779 -0.1001  0.2522 -0.1363
    9MOL   O139 2075   1.135   7.299   1.929 -0.2424  0.0964 -0.1980
    9MOL   H140 2076   0.960   7.364   1.506 -1.9118  1.7590 -1.2716
    9MOL   H141 2077   0.826   7.429   1.579 -0.4299 -0.2561  1.1824
    9MOL   H142 2078   0.937   7.385   1.819  0.1339  0.6696 -0.0326
    9MOL   H143 2079   1.351   7.175   1.849 -2.8550  0.6069  1.5015
    9MOL   H144 2080   1.399   7.330   1.772  0.5225 -0.1440  2.0955
    9MOL   H145 2081   1.312   7.196   1.687 -1.1134 -2.0753  1.3773
    9MOL   C146 2082   0.989   7.564   1.736 -1.1218 -0.2040  0.3909
    9MOL   C147 2083   0.856   7.637   1.766 -0.0424  0.8840 -0.3952
    9MOL   O148 2084   0.815   7.623   1.899 -0.0173 -0.4412  0.1594
    9MOL   C149 2085   0.726   7.526   1.932  0.2943 -0.4752 -0.0858
    9MOL   C150 2086   0.669   7.539   2.070 -0.0247 -0.6787 -0.6266
    9MOL   O151 2087   0.692   7.432   1.862  0.3485  0.6244 -0.2510
    9MOL   H152 2088   1.047   7.606   1.818 -2.6660 -2.4423  2.7297
    9MOL   H153 2089   1.043   7.600   1.649 -1.0402 -0.8781  0.1572
    9MOL   H154 2090   0.778   7.592   1.704  0.2473 -2.3458  1.4347
    9MOL   H155 2091   0.716   7.619   2.128  0.0901 -1.5917  0.5518
    9MOL   H156 2092   0.667   7.448   2.130  0.4964 -0.1317  0.2412
    9MOL   H157 2093   0.570   7.585   2.063  0.1328 -0.5985 -2.6783
    9MOL   C158 2094   0.872   7.792   1.752 -0.0840 -0.5774 -0.0245
    9MOL   C159 2095   0.904   7.834   1.604 -0.0022  0.2349 -0.2657
    9MOL   O160 2096   0.794   7.783   1.541 -0.4340 -0.1393 -0.4384
    9MOL   C161 2097   0.798   7.689   1.446 -0.3258 -0.5264 -0.0646
    9MOL   C162 2098   0.666   7.659   1.367  0.0279 -0.4057 -0.0223
    9MOL   O163 2099   0.905   7.633   1.414  0.0893 -0.0531  0.1060
    9MOL   H164 2100   0.779   7.835   1.788 -0.7533 -0.5212 -1.7756
    9MOL   H165 2101   0.952   7.822   1.820  0.1439 -1.1792 -0.0220
    9MOL   H166 2102   0.994   7.786   1.564 -0.2448 -2.1082  1.8425
    9MOL   H167 2103   0.685   7.619   1.267 -1.6433 -0.9442 -0.1478
    9MOL   H168 2104   0.591   7.737   1.377  1.7084  1.3353 -0.8164
    9MOL   H169 2105   0.609   7.571   1.399  0.5319 -0.8707 -0.3920
    9MOL   C170 2106   0.905   7.987   1.581 -0.3082 -0.3210 -0.5231
    9MOL   C171 2107   0.933   0.006   1.438  0.6511  0.7938  0.0816
    9MOL   O172 2108   0.812   0.019   1.364 -0.1061  0.3193 -0.2293
    9MOL   C173 2109   0.816   8.021   1.229  0.5318 -0.2474 -0.0236
    9MOL   C174 2110   0.684   8.006   1.166  0.7934  0.1073  0.6704
    9MOL   O175 2111   0.922   0.007   1.164  0.4804  0.0038  0.2419
    9MOL   H176 2112   0.818   0.025   1.609  1.0078  1.0557  0.7070
    9MOL   H177 2113   0.979   0.007   1.649 -0.0656  0.1752 -1.0929
    9MOL   H178 2114   0.996   7.950   1.393 -0.0614 -0.0487  0.5183
    9MOL   H179 2115   0.682   0.035   1.069  0.2033 -0.7495  0.2336
    9MOL   H180 2116   0.612   0.033   1.232  0.1637  0.5036 -0.2921
    9MOL   H181 2117   0.652   7.902   1.157  0.2321  0.2268  1.2411
    9MOL   C182 2118   1.000   0.148   1.442  0.4606  0.2413 -0.8097
    9MOL   C183 2119   1.149   0.152   1.471  0.3435 -0.6417 -0.1074
    9MOL   O184 2120   1.189   0.088   1.594  0.5579  0.3420 -0.4665
    9MOL   C185 2121   1.271   0.148   1.690 -0.2974  0.6512  0.7403
    9MOL   C186 2122   1.305   0.055   1.802 -0.2278 -0.1485  0.7530
    9MOL   O187 2123   1.325   0.261   1.676  0.6551  0.3119  1.0055
    9MOL   H188 2124   0.987   0.192   1.343  0.9308  3.2059  0.4272
    9MOL   H189 2125   0.941   0.217   1.502  3.1219  1.1673  0.8255
    9MOL   H190 2126   1.175   0.258   1.470 -0.2068 -0.5220 -2.1142
    9MOL   H191 2127   1.224   8.014   1.838 -3.4025  2.1031 -2.1538
    9MOL   H192 2128   1.317   0.125   1.884  3.2779  1.6735 -1.1635
    9MOL   H193 2129   1.392   8.014   1.785 -1.3565 -1.9993  1.7298
    9MOL   C194 2130   1.229   0.093   1.348 -0.9552 -0.1965  0.4821
    9MOL   C195 2131   1.382   0.094   1.350 -0.1534 -0.7008  0.2100
    9MOL   O196 2132   1.427   0.007   1.248 -0.2701 -0.5389 -0.5152
    9MOL   C197 2133   1.469   7.912   1.292  0.3494  0.5546 -0.3756
    9MOL   C198 2134   1.555   7.831   1.200 -0.3203 -0.0862  0.3440
    9MOL   O199 2135   1.438   7.868   1.403  0.5562  0.0572  0.3240
    9MOL   H200 2136   1.212   8.007   1.354 -1.0221 -0.3162 -1.5671
    9MOL   H201 2137   1.193   0.125   1.251  0.3818  1.0054  0.3762
    9MOL   H202 2138   1.420   0.065   1.448 -2.5276 -3.2678  0.4454
    9MOL   H203 2139   1.487   7.757   1.157  1.5165 -0.9108 -1.1715
    9MOL   H204 2140   1.635   7.775   1.248 -1.4301 -1.8127  0.2455
    9MOL   H205 2141   1.597   7.893   1.121 -1.1488  0.5492  0.3931
    9MOL   C206 2142   1.438   0.237   1.321 -0.4249 -0.1759 -0.2718
    9MOL   C207 2143   1.594   0.238   1.323  0.4402  0.4013 -0.0484
    9MOL   O208 2144   1.637   0.320   1.223 -0.5559 -0.7566 -0.1041
    9MOL   C209 2145   1.698   0.271   1.113 -0.1687  0.5629 -0.1918
    9MOL   C210 2146   1.724   0.374   1.003  0.4734  0.3937  0.2260
    9MOL   O211 2147   1.718   0.150   1.090  0.2402 -0.3280  0.0017
    9MOL   H212 2148   1.394   0.284   1.233  0.0534  2.2498  0.7758
    9MOL   H213 2149   1.399   0.300   1.400 -1.5154 -0.8824 -0.2303
    9MOL   H214 2150   1.623   0.136   1.300  0.3246 -0.0076  1.5792
    9MOL   H215 2151   1.750   0.470   1.049 -0.8651  0.7850  0.2103
    9MOL   H216 2152   1.638   0.389   0.938  0.4427 -0.6557  0.0228
    9MOL   H217 2153   1.808   0.333   0.948  0.6509  1.0984 -0.0295
    9MOL   C218 2154   1.657   0.293   1.451  0.3511  0.3290 -0.4711
    9MOL   C219 2155   1.668   0.204   1.584  0.1328 -0.5971  0.3276
    9MOL   O220 2156   1.746   0.085   1.556 -0.1628  0.1123 -0.3437
    9MOL   C221 2157   1.701   7.991   1.613  0.0248  0.2935 -0.7890
    9MOL   C222 2158   1.771   7.871   1.549  0.2819 -0.4222 -0.1110
    9MOL   O223 2159   1.622   7.976   1.703  0.0734 -0.5599  0.2251
    9MOL   H224 2160   1.757   0.329   1.426  0.4407  1.2613  1.1554
    9MOL   H225 2161   1.608   0.388   1.471 -1.5826 -1.0192  1.4501
    9MOL   H226 2162   1.566   0.179   1.611 -0.0923  0.8712  0.9032
    9MOL   H227 2163   1.701   7.815   1.487 -0.7082 -2.2761  2.5619
    9MOL   H228 2164   1.788   7.790   1.621 -1.6360 -0.8909 -0.1436
    9MOL   H229 2165   1.864   7.898   1.499 -0.6163  0.7465 -1.1610
    9MOL   C230 2166   1.719   0.283   1.711 -0.5231  0.0237  0.2686
    9MOL   C231 2167   1.658   0.420   1.737  0.7693  0.3181  0.5733
    9MOL   O232 2168   1.696   0.460   1.868  0.4867  0.2690 -0.7793
    9MOL   C233 2169   1.811   0.526   1.896  0.3002 -0.4584  1.1087
    9MOL   C234 2170   1.814   0.597   2.034 -0.2496  0.3175  0.7335
    9MOL   O235 2171   1.900   0.548   1.817 -0.1777  0.3473 -0.6436
    9MOL   H236 2172   1.695   0.216   1.794 -0.1411 -0.0704  0.3010
    9MOL   H237 2173   1.827   0.293   1.714 -0.3633 -1.4377 -0.0329
    9MOL   H238 2174   1.551   0.410   1.751  0.6724  1.5623  0.8154
    9MOL   H239 2175   1.766   0.531   2.107  1.9932  0.8098  2.6977
    9MOL   H240 2176   1.771   0.697   2.027 -0.4090  0.0982 -1.6593
    9MOL   H241 2177   1.918   0.602   2.064  0.7449 -0.8699 -2.4168
    9MOL   H242 2178   1.683   0.490   1.657 -0.1062 -0.0009  0.0223
   10MOL     C1 2179   7.088   0.243   4.731  0.3088  0.1306 -0.0596
   10MOL     C2 2180   7.029   0.110   4.679 -0.5988  0.5803  0.3206
   10MOL     O3 2181   6.965   0.140   4.553 -0.1938 -0.0669 -0.1677
   10MOL     C4 2182   6.900   0.046   4.474 -0.1806 -0.2768 -0.1968
   10MOL     C5 2183   6.846   0.108   4.339 -0.1969 -0.1277 -0.3250
   10MOL     O6 2184   6.880   7.953   4.505 -0.0138  0.4244 -0.0619
   10MOL     H7 2185   7.153   0.240   4.818 -0.5202  0.9575  0.6013
   10MOL     H8 2186   7.003   0.305   4.757  0.9082  1.2362 -0.7189
   10MOL     H9 2187   6.957   0.074   4.752 -0.7754  0.3897  0.0574
   10MOL    H10 2188   6.859   0.027   4.267 -1.0009  0.9191 -1.6705
   10MOL    H11 2189   6.910   0.186   4.298  0.2853 -0.9227 -1.1020
   10MOL    H12 2190   6.742   0.139   4.328 -0.0214  0.0558 -1.5312
   10MOL    H13 2191   7.143   0.295   4.652  0.4159  2.0153  1.2319
   10MOL    C14 2192   7.135   8.015   4.659 -0.8752  0.0022 -0.4308
   10MOL    C15 2193   7.217   7.968   4.781  0.0648 -0.3683 -0.1806
   10MOL    O16 2194   7.124   7.929   4.872 -1.1104 -0.1692 -0.2974
   10MOL    C17 2195   7.121   7.984   4.993  0.7327  0.2679 -0.4421
   10MOL    C18 2196   6.986   7.973   5.057  0.2734  0.1073 -0.5039
   10MOL    O19 2197   7.209   0.035   5.043  0.1800 -0.2577  0.0622
   10MOL    H20 2198   7.091   7.930   4.606 -2.2352  1.1099 -1.1294
   10MOL    H21 2199   7.209   0.027   4.586 -1.4907  2.0608 -0.1515
   10MOL    H22 2200   7.277   0.031   4.815  0.2977 -0.1418 -1.1350
   10MOL    H23 2201   6.923   7.897   5.010  2.3596 -0.8907 -1.7423
   10MOL    H24 2202   6.948   0.054   5.053 -0.7215 -0.2382 -0.1098
   10MOL    H25 2203   6.993   7.942   5.161 -0.5498  0.9909 -0.1756
   10MOL    C26 2204   7.315   7.849   4.748 -0.2968 -0.2880  0.4553
   10MOL    C27 2205   7.432   7.846   4.844  0.2221 -0.4783  1.0484
   10MOL    O28 2206   7.387   7.802   4.974  0.4693 -0.2375 -0.2982
   10MOL    C29 2207   7.436   7.850   5.085  0.3725  0.2463 -0.0166
   10MOL    C30 2208   7.364   7.811   5.209 -0.5353 -0.3864 -0.2890
   10MOL    O31 2209   7.542   7.911   5.089 -0.2955 -0.2488  0.4471
   10MOL    H32 2210   7.264   7.753   4.754  0.1333 -0.4967  0.8365
   10MOL    H33 2211   7.344   7.866   4.645  1.2075  1.3135  1.1244
   10MOL    H34 2212   7.475   7.947   4.840 -0.9479 -0.0076 -0.0620
   10MOL    H35 2213   7.291   7.735   5.180 -0.8100 -0.1613 -0.1877
   10MOL    H36 2214   7.310   7.893   5.257 -1.8598 -1.1742 -0.4016
   10MOL    H37 2215   7.432   7.767   5.281  0.0004 -0.6414 -0.9493
   10MOL    C38 2216   7.541   7.752   4.792 -0.2884  0.4003  0.3544
   10MOL    C39 2217   7.506   7.606   4.750  0.5390 -0.7832  0.1100
   10MOL    O40 2218   7.604   7.558   4.659 -0.2042  0.2317  0.1804
   10MOL    C41 2219   7.603   7.592   4.528 -0.1429 -0.7945 -0.3832
   10MOL    C42 2220   7.704   7.507   4.452  0.4719  0.3203  0.0768
   10MOL    O43 2221   7.543   7.686   4.474 -0.2142 -0.7973 -0.9072
   10MOL    H44 2222   7.577   7.806   4.704  0.5164  0.3666  0.6563
   10MOL    H45 2223   7.619   7.751   4.868 -1.9003  1.8246  2.0618
   10MOL    H46 2224   7.410   7.611   4.697  1.0970  3.5477 -0.6927
   10MOL    H47 2225   7.723   7.412   4.502 -1.1738 -0.4028 -0.6405
   10MOL    H48 2226   7.798   7.562   4.456  0.4842  0.2774  0.4407
   10MOL    H49 2227   7.680   7.492   4.347 -0.8540  2.3238  0.0580
   10MOL    C50 2228   7.500   7.509   4.867 -0.8730  0.6063 -0.4510
   10MOL    C51 2229   7.446   7.367   4.835 -0.4177 -0.2551  0.3927
   10MOL    O52 2230   7.556   7.274   4.800 -0.7178 -0.3986 -0.1255
   10MOL    C53 2231   7.543   7.177   4.707 -1.1422  0.4973  0.2327
   10MOL    C54 2232   7.674   7.095   4.688  0.0740 -0.2440  0.6762
   10MOL    O55 2233   7.437   7.147   4.654 -0.0149 -0.3267 -0.3872
   10MOL    H56 2234   7.598   7.502   4.915 -0.6543 -1.5220 -1.1559
   10MOL    H57 2235   7.431   7.551   4.940 -0.8933 -0.3340  0.0828
   10MOL    H58 2236   7.382   7.379   4.748  1.0117 -2.9375 -1.1093
   10MOL    H59 2237   7.718   7.122   4.592  0.1699 -0.9750  0.5127
   10MOL    H60 2238   7.653   6.988   4.682 -1.0792 -0.0029  0.4992
   10MOL    H61 2239   7.748   7.106   4.768 -0.0297 -2.0423  1.0482
   10MOL    C62 2240   7.367   7.306   4.955  0.0802  0.3775 -0.9557
   10MOL    C63 2241   7.242   7.381   5.010 -0.1162 -0.1267 -0.7287
   10MOL    O64 2242   7.158   7.415   4.898  0.1767  0.5865 -0.0307
   10MOL    C65 2243   7.116   7.540   4.879  0.7518 -0.0596 -0.1029
   10MOL    C66 2244   7.036   7.555   4.751 -0.5583  0.1039  0.3816
   10MOL    O67 2245   7.130   7.635   4.960 -0.0232  0.3190 -0.1264
   10MOL    H68 2246   7.323   7.218   4.908  0.9365 -0.2686 -0.5608
   10MOL    H69 2247   7.433   7.269   5.034 -2.2972  0.7260  1.2592
   10MOL    H70 2248   7.275   7.471   5.062  0.4770 -0.3143 -0.7763
   10MOL    H71 2249   7.098   7.532   4.664 -0.1736 -1.0628  0.9545
   10MOL    H72 2250   6.991   7.654   4.743 -0.6846  0.0241  0.0702
   10MOL    H73 2251   6.958   7.479   4.745  0.2787 -0.6979 -0.5844
   10MOL    C74 2252   7.167   7.298   5.121 -0.3934 -0.0717 -0.5365
   10MOL    C75 2253   7.252   7.265   5.253 -0.0764 -0.5124 -0.1303
   10MOL    O76 2254   7.289   7.389   5.326  0.2333  0.4538 -0.0878
   10MOL    C77 2255   7.422   7.420   5.323 -0.1108  0.7293 -0.6096
   10MOL    C78 2256   7.454   7.521   5.435 -0.1959  0.0723 -0.0474
   10MOL    O79 2257   7.507   7.376   5.249 -0.2481 -0.4742 -0.1178
   10MOL    H80 2258   7.082   7.356   5.156 -0.3303 -1.1262  1.4306
   10MOL    H81 2259   7.115   7.215   5.075  1.2712  0.1974 -3.0297
   10MOL    H82 2260   7.341   7.215   5.214 -0.8407 -1.6826 -0.3902
   10MOL    H83 2261   7.545   7.578   5.412 -0.7543  0.6990 -0.7148
   10MOL    H84 2262   7.457   7.485   5.537 -2.5243  2.2902  0.8561
   10MOL    H85 2263   7.373   7.593   5.447  1.6442  2.4944 -1.6308
   10MOL    C86 2264   7.193   7.157   5.348 -0.6001 -0.6219  0.3237
   10MOL    C87 2265   7.146   7.221   5.485  0.3308 -0.5555 -0.3144
   10MOL    O88 2266   7.003   7.232   5.488  0.1224 -0.7481  0.2676
   10MOL    C89 2267   6.947   7.353   5.462 -0.1082 -0.8687  0.5859
   10MOL    C90 2268   6.797   7.348   5.465 -0.0288  0.7660 -0.5153
   10MOL    O91 2269   7.004   7.450   5.424  0.1579  0.3272 -0.0443
   10MOL    H92 2270   7.118   7.092   5.301  0.0057  0.4354 -2.1764
   10MOL    H93 2271   7.271   7.082   5.363  2.6581  2.4796 -0.5437
   10MOL    H94 2272   7.194   7.316   5.509 -0.2709 -0.5145  0.7616
   10MOL    H95 2273   6.745   7.411   5.537 -5.4447  0.4506 -3.8508
   10MOL    H96 2274   6.766   7.246   5.487 -0.4981  1.2352  1.0308
   10MOL    H97 2275   6.755   7.378   5.369 -0.5859 -2.5380 -1.3524
   10MOL    C98 2276   7.191   7.131   5.608 -0.2844  0.1966 -0.0776
   10MOL    C99 2277   7.220   7.207   5.740 -0.3838  0.3315 -0.2404
   10MOL   O100 2278   7.097   7.226   5.809 -0.1165  0.9233  0.3080
   10MOL   C101 2279   7.087   7.302   5.925  0.9433 -0.0843 -0.3584
   10MOL   C102 2280   6.944   7.297   5.988  0.0216  0.3179  0.2876
   10MOL   O103 2281   7.174   7.363   5.990  0.0896 -1.1229  0.8352
   10MOL   H104 2282   7.134   7.038   5.613  0.4814 -0.2519  0.3736
   10MOL   H105 2283   7.292   7.108   5.576  0.0890  2.0401 -0.2337
   10MOL   H106 2284   7.265   7.305   5.725 -1.4598  0.9368  0.4086
   10MOL   H107 2285   6.872   7.227   5.945  0.6743 -0.9842  1.3003
   10MOL   H108 2286   6.892   7.392   5.978 -0.4130 -0.0186 -0.7677
   10MOL   H109 2287   6.949   7.270   6.093  0.9817  0.8304  0.3809
   10MOL   C110 2288   7.311   7.113   5.826 -0.3677  0.3592  0.8213
   10MOL   C111 2289   7.447   7.072   5.768 -0.4850  0.2948  0.5265
   10MOL   O112 2290   7.534   7.177   5.760 -0.8479 -0.1105  0.6364
   10MOL   C113 2291   7.558   7.243   5.649  0.0696 -0.3998  0.5282
   10MOL   C114 2292   7.655   7.362   5.667 -0.9477 -0.1080 -0.4926
   10MOL   O115 2293   7.520   7.214   5.540 -0.3870  0.1656  0.3695
   10MOL   H116 2294   7.328   7.158   5.924  3.8043  1.9514 -0.5145
   10MOL   H117 2295   7.253   7.022   5.839  0.3399 -0.0415  1.2628
   10MOL   H118 2296   7.445   7.017   5.674 -0.4135  2.0548 -0.5390
   10MOL   H119 2297   7.669   7.442   5.594 -1.1816 -0.1262 -0.5600
   10MOL   H120 2298   7.755   7.324   5.684 -0.5788  0.4847 -1.2526
   10MOL   H121 2299   7.626   7.408   5.761 -1.0966 -1.1109 -0.0524
   10MOL   C122 2300   7.517   6.959   5.867  0.5926  0.2374 -0.1561
   10MOL   C123 2301   7.430   6.833   5.887  0.1198 -0.6301  0.3368
   10MOL   O124 2302   7.484   6.728   5.810 -0.3811  0.1923 -0.1801
   10MOL   C125 2303   7.438   6.710   5.682  0.3658 -1.1885  0.0019
   10MOL   C126 2304   7.504   6.593   5.607 -0.2119  0.3573  0.2622
   10MOL   O127 2305   7.355   6.780   5.630 -0.0762 -0.0896 -0.0237
   10MOL   H128 2306   7.616   6.928   5.835  0.9112  0.3960  0.6530
   10MOL   H129 2307   7.545   7.005   5.962  0.0436 -0.4590  0.3509
   10MOL   H130 2308   7.324   6.847   5.866  0.3514  1.5632  0.5009
   10MOL   H131 2309   7.601   6.631   5.575  1.2974 -1.5162  2.5099
   10MOL   H132 2310   7.447   6.571   5.517  1.2765  0.1546 -0.6523
   10MOL   H133 2311   7.518   6.509   5.675  1.0404  0.3799  0.0456
   10MOL   C134 2312   7.417   6.786   6.030 -0.1397 -0.2659  0.3781
   10MOL   C135 2313   7.350   6.889   6.121 -0.3512  0.0617  0.3329
   10MOL   O136 2314   7.211   6.863   6.100 -0.0026 -0.0103 -0.0932
   10MOL   C137 2315   7.123   6.965   6.112 -0.1002  0.7164 -0.0807
   10MOL   C138 2316   6.974   6.939   6.078  0.4679 -0.0448  0.1344
   10MOL   O139 2317   7.159   7.072   6.156  0.2234 -0.7834  0.3873
   10MOL   H140 2318   7.367   6.689   6.035 -0.2177 -0.2505 -0.0903
   10MOL   H141 2319   7.517   6.770   6.071  0.2890  1.0162 -0.1318
   10MOL   H142 2320   7.369   6.990   6.084 -0.0772  0.0931  0.5544
   10MOL   H143 2321   6.950   6.839   6.115 -0.4134  0.1228  0.0433
   10MOL   H144 2322   6.953   6.941   5.971 -0.4227  1.7798  0.3205
   10MOL   H145 2323   6.906   7.016   6.115 -0.5581  0.1897 -2.1036
   10MOL   C146 2324   7.378   6.874   6.269 -0.3570 -1.1336 -1.0267
   10MOL   C147 2325   7.514   6.927   6.304  0.0065  0.5457 -0.6657
   10MOL   O148 2326   7.501   7.067   6.306 -0.0368 -0.4303 -0.0959
   10MOL   C149 2327   7.568   7.156   6.230 -0.2932 -0.7285  1.0131
   10MOL   C150 2328   7.512   7.294   6.250 -0.7449  0.0792 -0.4728
   10MOL   O151 2329   7.649   7.129   6.150 -0.1502 -0.7061 -0.0858
   10MOL   H152 2330   7.310   6.924   6.337 -1.0195 -1.6882 -1.2657
   10MOL   H153 2331   7.355   6.769   6.291  0.0476 -0.8849  0.6211
   10MOL   H154 2332   7.584   6.892   6.229  0.4614 -1.6300  0.7439
   10MOL   H155 2333   7.567   7.339   6.332  0.9810  0.6400 -1.9222
   10MOL   H156 2334   7.406   7.299   6.278 -0.1527  2.5965  1.5237
   10MOL   H157 2335   7.501   7.344   6.154 -1.3613 -0.9268 -0.9410
   10MOL   C158 2336   7.568   6.881   6.441 -0.3002 -0.0801 -0.3772
   10MOL   C159 2337   7.647   6.752   6.426  0.1801  0.2038 -0.3193
   10MOL   O160 2338   7.771   6.772   6.359  0.3955  0.5024 -0.3856
   10MOL   C161 2339   7.822   6.677   6.280 -0.1125 -0.4465 -0.0275
   10MOL   C162 2340   7.912   6.728   6.175 -0.2385  0.6010  0.0417
   10MOL   O163 2341   7.794   6.559   6.280 -0.6014 -0.1404 -0.3517
   10MOL   H164 2342   7.626   6.963   6.483  1.4383  0.1484 -3.0921
   10MOL   H165 2343   7.478   6.873   6.501 -0.8148  1.7691 -0.8675
   10MOL   H166 2344   7.576   6.693   6.368 -0.1493 -0.8274  1.1088
   10MOL   H167 2345   8.014   6.689   6.173 -0.9314 -1.2284 -1.0956
   10MOL   H168 2346   7.927   6.832   6.202  1.0107  0.2957  0.5430
   10MOL   H169 2347   7.865   6.738   6.077  2.9551  0.7805 -1.5490
   10MOL   C170 2348   7.669   6.695   6.566  0.5442  0.4812 -0.4987
   10MOL   C171 2349   7.586   6.571   6.603 -0.2255  0.6419 -0.0771
   10MOL   O172 2350   7.446   6.600   6.573  0.0932  0.3382  0.2636
   10MOL   C173 2351   7.351   6.604   6.669  1.1616  0.5439  0.1246
   10MOL   C174 2352   7.212   6.641   6.618  0.5397 -0.1438  0.7075
   10MOL   O175 2353   7.370   6.575   6.786  0.3756  0.5371  0.2731
   10MOL   H176 2354   7.775   6.682   6.589  0.1369  0.3169  1.3528
   10MOL   H177 2355   7.637   6.772   6.636 -1.2964  0.7159 -1.5625
   10MOL   H178 2356   7.593   6.536   6.706  0.6733  0.0935 -0.3175
   10MOL   H179 2357   7.144   6.636   6.703 -0.1348 -1.0520  0.1271
   10MOL   H180 2358   7.177   6.571   6.542 -0.0117  2.0433 -1.1413
   10MOL   H181 2359   7.209   6.744   6.582 -1.2710 -0.7410 -0.9096
   10MOL   C182 2360   7.613   6.447   6.514  0.2375 -0.1799  0.6610
   10MOL   C183 2361   7.757   6.394   6.543  0.2123 -0.3488  0.5622
   10MOL   O184 2362   7.763   6.346   6.675 -0.7162  0.2248 -0.3755
   10MOL   C185 2363   7.829   6.407   6.775  0.6127  0.3754 -0.1655
   10MOL   C186 2364   7.835   6.339   6.906  0.2441 -0.0201  0.6431
   10MOL   O187 2365   7.868   6.522   6.761 -0.5495 -0.1098 -0.1219
   10MOL   H188 2366   7.537   6.371   6.533 -1.2943  1.0390 -0.4818
   10MOL   H189 2367   7.602   6.467   6.407  3.0426  0.1238  0.3741
   10MOL   H190 2368   7.835   6.467   6.523 -1.2677  1.2105  0.3736
   10MOL   H191 2369   7.853   6.235   6.879  3.3541  0.2723  1.4479
   10MOL   H192 2370   7.739   6.341   6.959 -1.5574  2.2114 -2.5874
   10MOL   H193 2371   7.921   6.377   6.961 -0.7448  2.0457  0.7948
   10MOL   C194 2372   7.794   6.270   6.453 -1.1880 -0.5256 -0.5277
   10MOL   C195 2373   7.940   6.220   6.458 -0.6022  0.8744  0.0005
   10MOL   O196 2374   7.956   6.097   6.378  0.3866 -0.1193 -0.4561
   10MOL   C197 2375   7.989   5.982   6.437 -0.0832  0.0817  0.2701
   10MOL   C198 2376   8.010   5.872   6.337  0.4460  0.1617  0.2642
   10MOL   O199 2377   8.004   5.961   6.560  0.5345  0.3192  0.1375
   10MOL   H200 2378   7.734   6.183   6.479 -3.1318  1.1542  0.7912
   10MOL   H201 2379   7.759   6.291   6.352  1.1163  0.4021 -1.1653
   10MOL   H202 2380   7.966   6.200   6.563  0.6966  1.4030 -0.2020
   10MOL   H203 2381   7.914   5.831   6.307  0.6415 -0.1052 -0.0083
   10MOL   H204 2382   0.048   5.787   6.371 -1.2634 -1.6897 -1.2596
   10MOL   H205 2383   0.026   5.912   6.242 -2.6183 -1.0036 -1.5037
   10MOL   C206 2384   0.025   6.327   6.405 -0.2154  0.6369  0.3148
   10MOL   C207 2385   0.114   6.378   6.517  0.2478  0.1963 -0.6528
   10MOL   O208 2386   0.203   6.280   6.565  0.1840 -0.6103  0.4744
   10MOL   C209 2387   0.185   6.239   6.696 -0.7875  0.1322  0.3838
   10MOL   C210 2388   0.269   6.119   6.728 -0.1796  0.7705 -0.7945
   10MOL   O211 2389   0.104   6.279   6.780 -1.0876  0.3950  0.2496
   10MOL   H212 2390   0.071   6.278   6.320 -2.6118 -1.7447  0.3080
   10MOL   H213 2391   7.988   6.412   6.369 -0.3776  0.2115 -0.4339
   10MOL   H214 2392   0.050   6.423   6.593  0.2144  0.1638 -0.6622
   10MOL   H215 2393   0.366   6.119   6.678 -0.0347  0.7424 -0.5137
   10MOL   H216 2394   0.202   6.034   6.711  0.3611 -0.4570  2.6257
   10MOL   H217 2395   0.294   6.109   6.834  1.2940 -2.2815 -1.3597
   10MOL   C218 2396   0.192   6.507   6.476  0.3794  0.1019  0.0192
   10MOL   C219 2397   0.313   6.496   6.378 -0.2143 -0.4420  0.1098
   10MOL   O220 2398   0.292   6.569   6.260  0.0256  0.3049  0.1409
   10MOL   C221 2399   0.238   6.503   6.150 -0.0091 -0.2787  0.4003
   10MOL   C222 2400   0.225   6.596   6.026 -0.5359  0.2391 -0.5545
   10MOL   O223 2401   0.207   6.385   6.142 -0.7182  0.3650 -0.2189
   10MOL   H224 2402   0.121   6.578   6.436  1.3172  1.5516  0.8929
   10MOL   H225 2403   0.232   6.549   6.568 -0.0913  0.5667  0.0129
   10MOL   H226 2404   0.330   6.391   6.352 -2.5526 -0.4599 -1.5587
   10MOL   H227 2405   0.270   6.695   6.032  0.0696 -0.0498 -0.2768
   10MOL   H228 2406   0.121   6.616   6.000 -1.0198 -0.5304  0.7480
   10MOL   H229 2407   0.277   6.553   5.940  0.1423  0.3851 -0.2218
   10MOL   C230 2408   0.447   6.538   6.437  0.4191 -0.0108 -0.3214
   10MOL   C231 2409   0.480   6.454   6.562 -0.0599  0.4284  0.5046
   10MOL   O232 2410   0.618   6.434   6.584 -0.0179  0.3631  0.3562
   10MOL   C233 2411   0.676   6.321   6.631 -0.2011  0.0796  0.2740
   10MOL   C234 2412   0.826   6.337   6.641 -0.5065  0.4139 -0.0724
   10MOL   O235 2413   0.625   6.217   6.674  0.4305 -0.0053  0.6425
   10MOL   H236 2414   0.524   6.523   6.361  1.5567  2.0644  0.3819
   10MOL   H237 2415   0.462   6.643   6.459 -1.8787  0.6795 -1.8723
   10MOL   H238 2416   0.428   6.358   6.560  0.2254  0.2160  2.8264
   10MOL   H239 2417   0.864   6.327   6.540 -1.6842 -0.0544 -0.4783
   10MOL   H240 2418   0.865   6.256   6.702 -0.0733 -0.0795 -0.9983
   10MOL   H241 2419   0.845   6.437   6.681 -0.3779  0.1281  0.5753
   10MOL   H242 2420   0.441   6.496   6.654  1.3746  3.5378 -0.2408
   11MOL     C1 2421   4.449   0.528   1.618 -0.2420 -0.4989 -0.4220
   11MOL     C2 2422   4.528   0.594   1.506  0.2307 -0.4522  0.5357
   11MOL     O3 2423   4.441   0.604   1.391  0.4711  0.3357  0.0175
   11MOL     C4 2424   4.469   0.538   1.281  0.6614  0.6634  0.3033
   11MOL     C5 2425   4.373   0.578   1.168  0.0803 -0.1390  0.4071
   11MOL     O6 2426   4.558   0.451   1.258  0.2764  0.0705 -0.5901
   11MOL     H7 2427   4.519   0.507   1.699 -0.3705  0.7590  0.0262
   11MOL     H8 2428   4.392   0.442   1.585  0.8318 -1.3724 -0.0285
   11MOL     H9 2429   4.616   0.535   1.480  0.1154 -0.2801 -0.2465
   11MOL    H10 2430   4.282   0.523   1.192  0.3508 -0.5988  0.3859
   11MOL    H11 2431   4.413   0.551   1.071  3.0783 -0.6053  1.7300
   11MOL    H12 2432   4.359   0.685   1.184  0.1726 -0.1963  0.8957
   11MOL    H13 2433   4.375   0.602   1.646 -0.9237 -1.2688 -0.1747
   11MOL    C14 2434   4.576   0.735   1.549 -0.1456  0.0317  0.5591
   11MOL    C15 2435   4.674   0.735   1.669 -0.1569  0.0525  0.8334
   11MOL    O16 2436   4.787   0.666   1.643  0.0611  0.0170  0.3961
   11MOL    C17 2437   4.841   0.585   1.735 -0.3666  0.5577  0.5376
   11MOL    C18 2438   4.985   0.556   1.708 -0.9949  0.3794  0.0435
   11MOL    O19 2439   4.786   0.538   1.836 -0.3611 -0.0681  0.0383
   11MOL    H20 2440   4.629   0.783   1.466  0.9188 -1.1920  0.5352
   11MOL    H21 2441   4.490   0.798   1.573 -0.9054 -0.0760 -1.7629
   11MOL    H22 2442   4.613   0.685   1.744 -1.3476  0.5004  0.1840
   11MOL    H23 2443   5.055   0.520   1.784  0.6298 -0.6374 -1.8791
   11MOL    H24 2444   5.035   0.641   1.661  0.0347  0.6545  1.5937
   11MOL    H25 2445   4.973   0.474   1.637  1.5461 -0.1586  0.1909
   11MOL    C26 2446   4.702   0.875   1.724  1.1756  0.6593 -0.3626
   11MOL    C27 2447   4.748   0.876   1.872  0.6467 -0.1095 -0.2618
   11MOL    O28 2448   4.791   1.012   1.885  0.2225  0.1290  0.1934
   11MOL    C29 2449   4.899   1.040   1.969  0.4818 -0.3489 -0.2245
   11MOL    C30 2450   4.935   1.192   1.975  0.1239 -0.3898  0.3517
   11MOL    O31 2451   4.956   0.959   2.041 -0.4872 -0.4710  0.1382
   11MOL    H32 2452   4.781   0.908   1.656  2.5445 -1.6849  0.0440
   11MOL    H33 2453   4.612   0.936   1.728 -0.2872 -1.4733  0.0296
   11MOL    H34 2454   4.838   0.816   1.889  0.0226 -1.0469 -0.2600
   11MOL    H35 2455   4.994   1.229   1.890 -0.0008  0.4763  0.6341
   11MOL    H36 2456   5.002   1.206   2.059  1.0241  0.4655 -0.4863
   11MOL    H37 2457   4.860   1.271   1.977  0.8063  0.3250 -1.0583
   11MOL    C38 2458   4.639   0.837   1.979 -0.0294 -0.7172 -0.3440
   11MOL    C39 2459   4.665   0.869   2.126  0.0216  0.4037 -0.2076
   11MOL    O40 2460   4.531   0.874   2.180  0.2976  0.0771  0.1916
   11MOL    C41 2461   4.485   0.990   2.230 -0.1116 -0.5017 -0.1879
   11MOL    C42 2462   4.346   0.973   2.287  0.8007  0.0029 -0.7942
   11MOL    O43 2463   4.539   1.094   2.241  0.6090 -0.2581  0.0500
   11MOL    H44 2464   4.547   0.886   1.946 -1.0974 -1.9377  0.8088
   11MOL    H45 2465   4.604   0.734   1.972  1.5605 -1.2036 -1.3241
   11MOL    H46 2466   4.734   0.953   2.139  0.1752  0.1261  0.8743
   11MOL    H47 2467   4.322   0.869   2.311  0.9487  0.2333  0.3654
   11MOL    H48 2468   4.276   1.013   2.214 -1.9696  0.4163  1.9720
   11MOL    H49 2469   4.335   1.043   2.369 -2.6908 -1.4831  0.1082
   11MOL    C50 2470   4.738   0.751   2.194  0.6607  0.3683 -0.6912
   11MOL    C51 2471   4.795   0.775   2.331  0.1961 -0.2811 -0.6435
   11MOL    O52 2472   4.683   0.766   2.418 -0.3118 -0.1452  0.8478
   11MOL    C53 2473   4.670   0.833   2.531  0.7394 -0.9879  0.1843
   11MOL    C54 2474   4.571   0.771   2.625 -0.0310  0.3860 -0.1650
   11MOL    O55 2475   4.737   0.936   2.563  0.4661  0.8599 -0.5505
   11MOL    H56 2476   4.658   0.678   2.195  0.2832  0.7895  0.3231
   11MOL    H57 2477   4.822   0.711   2.137  0.5358 -0.3382 -0.3845
   11MOL    H58 2478   4.838   0.875   2.339 -2.0710  0.6872 -0.0566
   11MOL    H59 2479   4.601   0.784   2.728 -0.6348 -0.5621  0.1368
   11MOL    H60 2480   4.559   0.665   2.600  4.4649  0.0877 -1.4133
   11MOL    H61 2481   4.480   0.828   2.605 -0.5336 -0.9132 -1.7529
   11MOL    C62 2482   4.910   0.674   2.381  0.4290 -0.6048  0.2314
   11MOL    C63 2483   4.863   0.536   2.428  1.1403  0.7127 -0.8178
   11MOL    O64 2484   4.797   0.463   2.322 -0.4479 -0.3665 -0.0427
   11MOL    C65 2485   4.673   0.411   2.332  0.6446  0.3654 -0.6504
   11MOL    C66 2486   4.615   0.354   2.201  0.2282 -0.2100  0.2738
   11MOL    O67 2487   4.608   0.401   2.435  0.0188  0.3088 -0.0178
   11MOL    H68 2488   4.984   0.654   2.303 -0.3057 -0.2967 -0.5585
   11MOL    H69 2489   4.971   0.727   2.454 -0.5354  0.2278  0.4445
   11MOL    H70 2490   4.790   0.546   2.507 -1.1757 -3.0619 -2.3468
   11MOL    H71 2491   4.642   0.248   2.195  1.2962  0.0483  0.4240
   11MOL    H72 2492   4.662   0.406   2.118 -1.4183 -0.9177 -1.1179
   11MOL    H73 2493   4.507   0.351   2.192  0.2852  2.3120 -1.7160
   11MOL    C74 2494   4.968   0.450   2.487 -0.2874 -0.0719  0.3530
   11MOL    C75 2495   4.922   0.309   2.547 -0.1236  0.1887  0.5449
   11MOL    O76 2496   5.001   0.202   2.487 -0.3788 -0.2946  0.4373
   11MOL    C77 2497   4.948   0.083   2.469  0.6975  0.1955 -0.4327
   11MOL    C78 2498   5.037   8.013   2.389 -0.1153 -0.1705  0.1713
   11MOL    O79 2499   4.836   0.055   2.507  0.3587  0.1116  0.3431
   11MOL    H80 2500   5.043   0.427   2.411  2.3596  0.2252  2.8397
   11MOL    H81 2501   5.017   0.503   2.568  1.0106 -0.7735  0.0454
   11MOL    H82 2502   4.817   0.289   2.526  0.2876 -1.0866 -0.3496
   11MOL    H83 2503   5.036   0.034   2.289  1.3794 -1.0668 -0.2437
   11MOL    H84 2504   4.995   7.913   2.384  0.2632 -0.2677 -1.0295
   11MOL    H85 2505   5.137   8.016   2.434 -0.2943  1.5168  0.5159
   11MOL    C86 2506   4.953   0.301   2.702 -0.4074 -0.0157  0.3452
   11MOL    C87 2507   4.841   0.373   2.786  0.1686 -0.1395 -0.7064
   11MOL    O88 2508   4.844   0.517   2.774  0.0196  0.0606  0.2645
   11MOL    C89 2509   4.899   0.590   2.877 -0.3403 -0.2639 -0.0383
   11MOL    C90 2510   4.864   0.740   2.878  0.0593  0.0786 -0.7973
   11MOL    O91 2511   4.977   0.540   2.963 -0.1036 -0.0488  0.0230
   11MOL    H92 2512   4.946   0.195   2.729 -3.5396  0.1895  0.5369
   11MOL    H93 2513   5.054   0.335   2.725  0.4889 -2.1261 -0.3300
   11MOL    H94 2514   4.867   0.341   2.887  1.7348  2.9867 -0.0640
   11MOL    H95 2515   4.773   0.750   2.938  1.2416  0.5558  0.9735
   11MOL    H96 2516   4.868   0.779   2.777  1.2778  1.9323 -0.0448
   11MOL    H97 2517   4.944   0.797   2.924 -0.9222  0.4862  0.4383
   11MOL    C98 2518   4.702   0.316   2.761 -0.4942 -0.5658  0.0192
   11MOL    C99 2519   4.613   0.297   2.886 -0.1263  0.3436  0.1894
   11MOL   O100 2520   4.577   0.420   2.946 -0.6073  0.0716  0.2449
   11MOL   C101 2521   4.604   0.432   3.078  0.7572  0.3005  0.2656
   11MOL   C102 2522   4.600   0.572   3.130 -0.2061  0.5413 -0.0944
   11MOL   O103 2523   4.612   0.333   3.155  0.5914 -0.0742  0.2218
   11MOL   H104 2524   4.648   0.374   2.687  1.7694  2.2700  0.4792
   11MOL   H105 2525   4.713   0.221   2.709 -1.2944  0.0437 -1.2897
   11MOL   H106 2526   4.676   0.232   2.945  0.1053 -0.1840 -0.6291
   11MOL   H107 2527   4.530   0.588   3.212  1.4130  1.2871  1.1611
   11MOL   H108 2528   4.574   0.644   3.053  0.7959 -2.1107 -3.0213
   11MOL   H109 2529   4.699   0.596   3.168 -0.3512 -0.2525  0.8144
   11MOL   C110 2530   4.490   0.215   2.846  0.4343 -0.6307 -0.6584
   11MOL   C111 2531   4.424   0.133   2.965 -0.3448  1.0758  0.1887
   11MOL   O112 2532   4.355   0.236   3.043  0.0057 -0.1236  0.8429
   11MOL   C113 2533   4.344   0.220   3.179 -0.9420  0.4356 -0.0753
   11MOL   C114 2534   4.301   0.353   3.229  1.1177 -0.0205  0.3308
   11MOL   O115 2535   4.361   0.122   3.250 -0.7960 -0.7132  0.1454
   11MOL   H116 2536   4.407   0.277   2.811  0.5663 -1.0859 -1.7958
   11MOL   H117 2537   4.520   0.149   2.765  0.7773 -0.2448 -0.8515
   11MOL   H118 2538   4.502   0.092   3.028 -2.2380 -0.7651  1.3712
   11MOL   H119 2539   4.335   0.367   3.331 -0.6407  2.1340  0.6714
   11MOL   H120 2540   4.193   0.365   3.232  0.8246 -0.5919 -4.4285
   11MOL   H121 2541   4.342   0.431   3.165  1.2740 -1.9571 -2.0354
   11MOL   C122 2542   4.315   0.038   2.906 -0.4494  0.4308  0.4625
   11MOL   C123 2543   4.246   7.965   3.012 -0.3774 -0.5564 -0.4137
   11MOL   O124 2544   4.126   7.902   2.961  0.1713 -0.0715 -0.1660
   11MOL   C125 2545   4.006   7.954   2.989  0.2178  0.0867  0.1353
   11MOL   C126 2546   3.896   7.904   2.897 -0.2332 -0.3871  0.0464
   11MOL   O127 2547   3.982   0.015   3.080 -0.1014  0.3624 -0.0716
   11MOL   H128 2548   4.241   0.104   2.860  2.5602  2.1230 -2.1798
   11MOL   H129 2549   4.365   8.002   2.828 -1.6321  0.9803 -0.7195
   11MOL   H130 2550   4.221   0.006   3.098 -0.3867 -0.2923 -0.6072
   11MOL   H131 2551   3.940   7.877   2.801  1.0216 -2.0150  1.0599
   11MOL   H132 2552   3.814   7.976   2.886 -0.4243 -0.6962 -0.6232
   11MOL   H133 2553   3.853   7.814   2.940  2.9191 -1.1021  1.7679
   11MOL   C134 2554   4.337   7.861   3.066 -0.3704  0.1749  0.0581
   11MOL   C135 2555   4.271   7.761   3.164  0.1880  0.0479  0.4584
   11MOL   O136 2556   4.356   7.648   3.183  0.3633  0.8397 -0.0810
   11MOL   C137 2557   4.315   7.526   3.204  0.0441 -0.5073 -0.7973
   11MOL   C138 2558   4.433   7.432   3.219 -0.5470 -1.0381  0.5772
   11MOL   O139 2559   4.199   7.487   3.218 -0.5944 -0.3058  0.4076
   11MOL   H140 2560   4.389   7.819   2.980  0.0691  1.2642 -0.2257
   11MOL   H141 2561   4.414   7.908   3.129  0.0097 -1.1793  0.6195
   11MOL   H142 2562   4.178   7.725   3.120  1.2221 -1.6560 -0.3751
   11MOL   H143 2563   4.445   7.369   3.131  0.2338 -1.4540  0.9804
   11MOL   H144 2564   4.412   7.367   3.304  1.9608  0.7057  2.6205
   11MOL   H145 2565   4.530   7.481   3.227  0.4100 -2.7463 -0.2565
   11MOL   C146 2566   4.244   7.832   3.299  0.1647 -0.0264 -0.1623
   11MOL   C147 2567   4.200   7.741   3.420  0.0399  0.0953  0.4809
   11MOL   O148 2568   4.255   7.778   3.542  0.3576  0.0684 -0.0882
   11MOL   C149 2569   4.372   7.734   3.594 -0.1613  0.3433  0.6940
   11MOL   C150 2570   4.409   7.796   3.729 -0.3253  0.0846  0.0559
   11MOL   O151 2571   4.454   7.659   3.541 -0.3729  0.2171  0.3968
   11MOL   H152 2572   4.340   7.874   3.329 -0.8367  1.8693  0.4045
   11MOL   H153 2573   4.170   7.912   3.299  0.6582  0.4326 -0.6400
   11MOL   H154 2574   4.228   7.636   3.407  2.5060  1.1064 -3.2276
   11MOL   H155 2575   4.496   7.759   3.782 -2.0036 -0.4423  2.5351
   11MOL   H156 2576   4.329   7.768   3.797 -1.3494 -0.6992 -1.4318
   11MOL   H157 2577   4.411   7.905   3.740  0.5998 -0.1457  2.3035
   11MOL   C158 2578   4.043   7.744   3.420 -1.1337  0.1841  0.6133
   11MOL   C159 2579   3.978   7.705   3.555 -0.3041 -0.5189 -0.8555
   11MOL   O160 2580   3.973   7.824   3.633 -0.6452  0.4289 -0.4317
   11MOL   C161 2581   4.022   7.825   3.757  0.1511  0.0233  0.0499
   11MOL   C162 2582   3.986   7.955   3.832 -0.9092 -0.4542 -0.3803
   11MOL   O163 2583   4.076   7.731   3.812  0.2948 -0.4741 -0.1705
   11MOL   H164 2584   4.000   7.836   3.380  0.2419  0.5010 -0.1640
   11MOL   H165 2585   3.999   7.668   3.355 -0.6719 -1.4648  2.1759
   11MOL   H166 2586   4.038   7.628   3.604  1.4199  3.3111  3.3742
   11MOL   H167 2587   4.043   7.956   3.925 -2.2496 -0.9042  0.4608
   11MOL   H168 2588   3.879   7.962   3.851 -0.7671  4.2897 -0.7772
   11MOL   H169 2589   4.007   0.023   3.774  2.3886 -0.7702  0.2397
   11MOL   C170 2590   3.832   7.663   3.543  0.6647 -0.3015 -0.3178
   11MOL   C171 2591   3.772   7.577   3.660 -0.7816 -0.9378 -0.0384
   11MOL   O172 2592   3.630   7.568   3.637  0.3120 -0.0997 -0.0942
   11MOL   C173 2593   3.547   7.639   3.711 -0.0199  0.0526 -0.1709
   11MOL   C174 2594   3.401   7.609   3.694 -0.2021 -0.1473 -0.1033
   11MOL   O175 2595   3.585   7.719   3.793 -0.2137  0.1682 -0.1627
   11MOL   H176 2596   3.778   7.756   3.529 -0.1464 -0.3383  2.2645
   11MOL   H177 2597   3.804   7.617   3.449  2.1645 -1.3877 -0.2517
   11MOL   H178 2598   3.804   7.621   3.754 -3.1916  0.4444  0.1943
   11MOL   H179 2599   3.344   7.700   3.716  1.9350  1.4180 -0.9236
   11MOL   H180 2600   3.381   7.528   3.764 -1.1399  1.3945  1.4638
   11MOL   H181 2601   3.388   7.581   3.590 -0.5078 -1.2294  0.2201
   11MOL   C182 2602   3.834   7.433   3.662  0.0061 -0.1868 -0.8560
   11MOL   C183 2603   3.779   7.341   3.764  0.3509 -0.1240  0.2730
   11MOL   O184 2604   3.854   7.214   3.752  0.0022  0.1812  0.6313
   11MOL   C185 2605   3.787   7.094   3.733  0.5903 -0.3785 -0.7918
   11MOL   C186 2606   3.871   6.977   3.715 -0.3695  0.5939  0.5122
   11MOL   O187 2607   3.661   7.083   3.739  0.7004 -0.0945 -0.3053
   11MOL   H188 2608   3.834   7.384   3.564  1.6012 -2.5092  0.2411
   11MOL   H189 2609   3.938   7.440   3.695 -0.4486 -0.4843  0.6661
   11MOL   H190 2610   3.675   7.320   3.741  1.3129 -1.7297 -2.9829
   11MOL   H191 2611   3.965   7.005   3.668  0.7688 -0.8307  1.9012
   11MOL   H192 2612   3.829   6.910   3.640  0.1220  1.1874 -0.3010
   11MOL   H193 2613   3.896   6.920   3.804  0.1264 -2.1094 -1.2879
   11MOL   C194 2614   3.800   7.396   3.911 -0.1593  0.0008 -0.6359
   11MOL   C195 2615   3.738   7.300   4.019 -0.5842 -0.0139 -0.0009
   11MOL   O196 2616   3.755   7.380   4.138  0.2083 -0.2099  0.6751
   11MOL   C197 2617   3.808   7.326   4.254  0.2824  0.4825 -0.3584
   11MOL   C198 2618   3.824   7.422   4.368 -0.3051  0.3876  0.0996
   11MOL   O199 2619   3.839   7.209   4.265  0.5417 -0.1606 -0.3825
   11MOL   H200 2620   3.904   7.423   3.929 -1.4297  3.0739  2.6331
   11MOL   H201 2621   3.741   7.487   3.918  1.4107  1.0054 -0.2127
   11MOL   H202 2622   3.796   7.208   4.016  2.6912  1.9666  0.3435
   11MOL   H203 2623   3.747   7.496   4.348 -0.5592  1.1001  3.4769
   11MOL   H204 2624   3.921   7.471   4.362 -1.1193  1.7969 -1.8410
   11MOL   H205 2625   3.816   7.379   4.468  0.5350 -1.4739 -0.6034
   11MOL   C206 2626   3.591   7.274   4.012  0.2885 -0.4750 -0.6710
   11MOL   C207 2627   3.531   7.174   4.106  0.1333  0.0943  0.3337
   11MOL   O208 2628   3.390   7.172   4.082 -0.1166  0.2378 -0.3252
   11MOL   C209 2629   3.304   7.252   4.146 -0.0537  0.0052 -0.5863
   11MOL   C210 2630   3.158   7.246   4.100 -0.0438 -0.7300  0.4523
   11MOL   O211 2631   3.335   7.325   4.242 -0.1983  0.0865 -0.4959
   11MOL   H212 2632   3.536   7.366   4.031  1.4606 -0.0917  0.9966
   11MOL   H213 2633   3.563   7.231   3.916  1.1836 -1.7205 -0.3955
   11MOL   H214 2634   3.553   7.213   4.206  1.3099  1.0649 -0.2880
   11MOL   H215 2635   3.121   7.341   4.062  1.0902 -1.0015 -1.3635
   11MOL   H216 2636   3.095   7.231   4.188 -1.2982 -1.9903 -0.6322
   11MOL   H217 2637   3.132   7.164   4.033 -1.8813  0.0799  0.1436
   11MOL   C218 2638   3.587   7.027   4.090  0.4073 -0.2385 -0.1634
   11MOL   C219 2639   3.544   6.926   4.193  0.1563  0.2884  0.3553
   11MOL   O220 2640   3.403   6.914   4.181  0.5883  0.1164 -0.6339
   11MOL   C221 2641   3.318   6.882   4.282 -0.4120 -0.5254 -0.7336
   11MOL   C222 2642   3.173   6.914   4.254 -0.1993  0.6757 -0.7221
   11MOL   O223 2643   3.353   6.827   4.386 -0.7397 -0.3186  0.3113
   11MOL   H224 2644   3.558   6.997   3.990 -0.1570 -1.2286  0.2899
   11MOL   H225 2645   3.696   7.037   4.095  0.4944 -0.9020 -0.6889
   11MOL   H226 2646   3.573   6.963   4.292 -0.3840  4.8188 -1.0741
   11MOL   H227 2647   3.107   6.832   4.286  0.5725 -0.1139 -1.1242
   11MOL   H228 2648   3.164   6.935   4.148 -1.8781  0.7657 -0.5790
   11MOL   H229 2649   3.143   7.000   4.314 -0.2220  0.7540 -0.8468
   11MOL   C230 2650   3.619   6.798   4.164 -0.5438  0.4453 -1.0311
   11MOL   C231 2651   3.601   6.674   4.259  0.1834 -0.1105 -0.3985
   11MOL   O232 2652   3.713   6.596   4.246 -0.6567  0.0130 -0.2300
   11MOL   C233 2653   3.718   6.492   4.160  0.8267 -0.5861 -1.2273
   11MOL   C234 2654   3.842   6.415   4.163 -0.7565  0.3785  0.2279
   11MOL   O235 2655   3.619   6.451   4.097  0.2676 -0.0458 -0.2451
   11MOL   H236 2656   3.592   6.774   4.061  0.1276 -2.1659 -0.6406
   11MOL   H237 2657   3.726   6.817   4.170 -0.9127  2.0421  0.6043
   11MOL   H238 2658   3.505   6.626   4.243 -0.3995  0.3868  1.5220
   11MOL   H239 2659   3.846   6.330   4.231  0.6060  0.8935  0.8068
   11MOL   H240 2660   3.919   6.491   4.178 -0.8465  0.1971  1.7152
   11MOL   H241 2661   3.849   6.376   4.061  1.0849  1.9792 -0.2868
   11MOL   H242 2662   3.601   6.715   4.360 -1.2497 -1.2370  0.0626
   12MOL     C1 2663   3.270   5.229   5.450 -0.2657  0.1718  0.8520
   12MOL     C2 2664   3.268   5.191   5.599 -0.2924  0.3378 -0.2928
   12MOL     O3 2665   3.259   5.310   5.675 -0.1556 -0.6345  0.2387
   12MOL     C4 2666   3.292   5.318   5.804  0.3259  0.0511  0.2424
   12MOL     C5 2667   3.262   5.460   5.854 -0.6097 -0.8916  0.3854
   12MOL     O6 2668   3.361   5.240   5.874  0.3358 -0.0226 -0.5507
   12MOL     H7 2669   3.182   5.291   5.440 -0.8416 -0.7435  0.1087
   12MOL     H8 2670   3.260   5.147   5.378  2.4400  0.5527 -0.0205
   12MOL     H9 2671   3.361   5.142   5.626 -0.8283 -0.6261 -0.1500
   12MOL    H10 2672   3.313   5.455   5.951 -0.5439  1.7690  0.5126
   12MOL    H11 2673   3.154   5.466   5.863 -0.6212 -0.4256 -0.0723
   12MOL    H12 2674   3.296   5.532   5.779 -2.9978 -1.1478 -0.9747
   12MOL    H13 2675   3.349   5.295   5.415 -0.0100 -0.0915  0.9253
   12MOL    C14 2676   3.146   5.099   5.643  0.4914  0.4258 -0.1553
   12MOL    C15 2677   3.168   4.953   5.623  0.2155 -0.2463 -0.5757
   12MOL    O16 2678   3.230   4.882   5.735 -0.1182 -0.2952 -0.1490
   12MOL    C17 2679   3.367   4.880   5.742  1.0323 -0.7126 -0.3951
   12MOL    C18 2680   3.417   4.885   5.884  0.5756 -0.4016  0.5528
   12MOL    O19 2681   3.445   4.882   5.648 -0.0424 -0.0167 -0.0965
   12MOL    H20 2682   3.122   5.113   5.749  0.8041 -0.1520 -0.0037
   12MOL    H21 2683   3.058   5.130   5.588  1.0804 -1.0352 -1.9712
   12MOL    H22 2684   3.224   4.933   5.532 -0.7385  1.0677 -1.4736
   12MOL    H23 2685   3.344   4.919   5.957 -1.7527 -0.1253 -1.8279
   12MOL    H24 2686   3.492   4.964   5.879 -0.3818  0.4218 -2.6916
   12MOL    H25 2687   3.451   4.788   5.921  1.0400 -0.1163  0.8760
   12MOL    C26 2688   3.036   4.878   5.609 -0.4050 -0.1200 -0.2626
   12MOL    C27 2689   3.044   4.729   5.557  0.3697 -0.9489  0.0344
   12MOL    O28 2690   2.920   4.668   5.594 -0.2163  0.0030 -0.1228
   12MOL    C29 2691   2.915   4.568   5.693  0.6532  0.1987  0.1601
   12MOL    C30 2692   2.778   4.528   5.737 -0.3951  0.6012  0.6004
   12MOL    O31 2693   3.020   4.514   5.736 -0.5503  0.2179  0.1805
   12MOL    H32 2694   2.981   4.877   5.702  1.2289 -1.1258  0.7193
   12MOL    H33 2695   2.965   4.930   5.545  0.5435  1.7571  0.1707
   12MOL    H34 2696   3.131   4.674   5.593  1.1679  0.9251  1.0575
   12MOL    H35 2697   2.709   4.564   5.661 -0.1006 -0.9849 -0.4371
   12MOL    H36 2698   2.753   4.554   5.840  0.0944 -1.1115  1.1602
   12MOL    H37 2699   2.764   4.421   5.722 -2.5736  0.7322  1.6621
   12MOL    C38 2700   3.035   4.723   5.403  0.2403  0.0036 -0.6672
   12MOL    C39 2701   3.005   4.588   5.337 -0.4303  0.6897 -0.3168
   12MOL    O40 2702   2.987   4.620   5.207  0.2300  0.1539 -0.4460
   12MOL    C41 2703   2.863   4.596   5.149  0.0970  0.5321  0.2412
   12MOL    C42 2704   2.859   4.655   5.008 -0.5640 -0.0203  0.1740
   12MOL    O43 2705   2.763   4.535   5.193 -0.1698  0.0537  0.4518
   12MOL    H44 2706   2.954   4.794   5.382 -1.1289 -0.5312  2.5753
   12MOL    H45 2707   3.125   4.762   5.356  0.4714 -0.3680 -0.5373
   12MOL    H46 2708   2.916   4.545   5.384  0.1423  0.7434  0.8377
   12MOL    H47 2709   2.810   4.578   4.949  0.5127 -2.6070  2.5557
   12MOL    H48 2710   2.961   4.663   4.969 -0.6570  1.7052  0.2302
   12MOL    H49 2711   2.798   4.746   5.008 -0.0999  0.3085 -1.3096
   12MOL    C50 2712   3.114   4.481   5.347 -0.0161 -0.1256  0.0763
   12MOL    C51 2713   3.071   4.341   5.298 -0.3487  0.2119 -0.3348
   12MOL    O52 2714   3.073   4.350   5.154 -0.2952 -0.3008  0.7786
   12MOL    C53 2715   2.991   4.281   5.074  0.2057  0.9015 -0.0718
   12MOL    C54 2716   3.019   4.286   4.921  0.3508 -0.5126 -0.3469
   12MOL    O55 2717   2.896   4.218   5.116 -0.5043 -0.5940 -0.1677
   12MOL    H56 2718   3.208   4.518   5.305  1.0945 -2.1711  0.6669
   12MOL    H57 2719   3.144   4.472   5.451 -0.1967 -1.6202  0.0162
   12MOL    H58 2720   2.973   4.320   5.341 -0.4297  0.4893 -0.3834
   12MOL    H59 2721   2.956   4.211   4.874 -0.1777 -0.0172 -0.4368
   12MOL    H60 2722   3.118   4.270   4.877  1.5125  0.4858  1.8089
   12MOL    H61 2723   2.991   4.384   4.882  0.4976  0.6337  2.2996
   12MOL    C62 2724   3.171   4.238   5.346  0.2529  1.0179  0.2468
   12MOL    C63 2725   3.129   4.094   5.312  0.0524  0.0354 -0.6995
   12MOL    O64 2726   3.239   4.015   5.340 -0.0181  1.1949 -0.3545
   12MOL    C65 2727   3.329   3.997   5.243  0.5285  0.1292 -0.3295
   12MOL    C66 2728   3.440   3.910   5.292  1.0718 -0.5710  0.2144
   12MOL    O67 2729   3.332   4.059   5.134 -0.0083 -0.2802  0.5113
   12MOL    H68 2730   3.266   4.268   5.302 -0.1765  0.1088 -1.3127
   12MOL    H69 2731   3.176   4.253   5.454 -0.1154  1.6657  0.1791
   12MOL    H70 2732   3.110   4.076   5.206  1.2372 -0.4131 -0.8438
   12MOL    H71 2733   3.499   3.865   5.213  2.4071  0.6501  0.4930
   12MOL    H72 2734   3.388   3.835   5.351 -1.0284  0.9645  0.3787
   12MOL    H73 2735   3.499   3.972   5.360  0.4085  1.5980 -1.1110
   12MOL    C74 2736   3.000   4.054   5.395  0.2590  0.2885 -0.0557
   12MOL    C75 2737   3.022   3.980   5.531  0.2418  0.3164 -1.1122
   12MOL    O76 2738   3.106   4.071   5.605  0.8817 -0.7639  0.6214
   12MOL    C77 2739   3.151   4.043   5.735 -0.1472  0.5700  0.6651
   12MOL    C78 2740   3.235   4.156   5.798  0.2582  0.3706 -0.8010
   12MOL    O79 2741   3.120   3.944   5.804 -0.3942  0.1320 -0.0108
   12MOL    H80 2742   2.920   4.128   5.400  1.4701  1.9507 -3.3860
   12MOL    H81 2743   2.947   3.990   5.326  0.7565 -0.2929  0.0985
   12MOL    H82 2744   3.085   3.891   5.525 -0.4138 -0.3912  1.9008
   12MOL    H83 2745   3.164   4.238   5.803 -2.5074 -2.0390  2.9832
   12MOL    H84 2746   3.320   4.178   5.734  0.3112 -0.4254 -1.0136
   12MOL    H85 2747   3.265   4.142   5.902 -3.6489  0.7055  0.4724
   12MOL    C86 2748   2.885   3.938   5.589 -0.5848  0.0201 -0.2413
   12MOL    C87 2749   2.840   3.800   5.545  0.6600  0.2747 -0.4690
   12MOL    O88 2750   2.911   3.704   5.622  0.0805 -0.0033  0.3690
   12MOL    C89 2751   3.018   3.644   5.562  0.2134 -0.1579 -0.3119
   12MOL    C90 2752   3.083   3.537   5.656  0.0105  0.0059 -0.2987
   12MOL    O91 2753   3.063   3.666   5.449  0.0771  0.4738 -0.0366
   12MOL    H92 2754   2.873   3.935   5.698  1.4091 -2.5288 -0.0103
   12MOL    H93 2755   2.810   4.008   5.554 -0.5385  1.3745  2.2372
   12MOL    H94 2756   2.874   3.791   5.442  1.2474 -0.8262 -0.1820
   12MOL    H95 2757   3.160   3.480   5.604  0.8215 -1.5169  2.4753
   12MOL    H96 2758   3.016   3.452   5.666  1.7790 -1.4681 -0.6100
   12MOL    H97 2759   3.120   3.578   5.750 -1.3073  0.5443 -0.0005
   12MOL    C98 2760   2.687   3.784   5.559  0.3648 -0.5259  0.1589
   12MOL    C99 2761   2.619   3.688   5.459 -0.6884  0.0887  0.1515
   12MOL   O100 2762   2.640   3.744   5.328 -0.3642  0.6818 -0.2199
   12MOL   C101 2763   2.568   3.851   5.285 -0.5479  0.1736 -0.3953
   12MOL   C102 2764   2.616   3.913   5.151 -0.3577 -0.0042  0.0232
   12MOL   O103 2765   2.477   3.903   5.347  0.2094  0.4210 -0.2118
   12MOL   H104 2766   2.664   3.751   5.660  0.5645  1.6244  0.9340
   12MOL   H105 2767   2.642   3.883   5.547  1.7089  0.0483 -0.3394
   12MOL   H106 2768   2.511   3.687   5.473 -0.4313 -1.8922  2.5829
   12MOL   H107 2769   2.715   3.959   5.156  0.0656 -0.4557 -3.1312
   12MOL   H108 2770   2.551   3.990   5.110  0.3220  0.7228  0.2989
   12MOL   H109 2771   2.621   3.834   5.075 -2.8164 -0.6510  0.5066
   12MOL   C110 2772   2.658   3.535   5.467 -0.0588  0.4734 -0.2963
   12MOL   C111 2773   2.610   3.463   5.594 -0.2714 -0.9076  0.3504
   12MOL   O112 2774   2.469   3.449   5.590  0.1759  0.0601  0.0031
   12MOL   C113 2775   2.391   3.510   5.681 -0.6083 -0.9733 -0.1040
   12MOL   C114 2776   2.254   3.457   5.671 -0.4456  0.6654  0.3631
   12MOL   O115 2777   2.430   3.583   5.777  0.1854  0.5569 -0.2903
   12MOL   H116 2778   2.610   3.488   5.381 -0.0114  0.4356 -0.3027
   12MOL   H117 2779   2.766   3.532   5.450 -0.1360  1.0230 -0.8862
   12MOL   H118 2780   2.646   3.530   5.673 -1.5733  0.7101 -0.4165
   12MOL   H119 2781   2.203   3.508   5.589  1.2509 -0.7840 -1.6500
   12MOL   H120 2782   2.191   3.462   5.760 -0.2744  2.2707  0.4077
   12MOL   H121 2783   2.249   3.353   5.638  0.6899  0.3392  1.2054
   12MOL   C122 2784   2.682   3.335   5.626  0.0840 -0.5013  0.2263
   12MOL   C123 2785   2.711   3.232   5.516 -0.4909  0.3694  0.4206
   12MOL   O124 2786   2.784   3.118   5.571 -0.1526 -0.0305 -0.4388
   12MOL   C125 2787   2.924   3.127   5.571 -0.1527 -0.5871 -0.3309
   12MOL   C126 2788   3.001   3.014   5.643  0.3194 -0.2263 -0.5158
   12MOL   O127 2789   2.987   3.227   5.535  0.7026  0.1900  0.3854
   12MOL   H128 2790   2.777   3.358   5.674 -0.1855 -1.3962  1.2207
   12MOL   H129 2791   2.635   3.290   5.714 -0.3750  0.7172  0.6093
   12MOL   H130 2792   2.769   3.271   5.433  1.8617  0.1287  1.9145
   12MOL   H131 2793   3.101   2.997   5.604  1.5753  3.4067  0.8365
   12MOL   H132 2794   2.948   2.921   5.628 -1.0916  0.4494  0.2029
   12MOL   H133 2795   3.003   3.029   5.751 -0.5234  0.1859 -0.5585
   12MOL   C134 2796   2.574   3.185   5.461  0.2724  0.8401 -0.3886
   12MOL   C135 2797   2.565   3.096   5.338 -0.3443 -0.0729 -0.1344
   12MOL   O136 2798   2.645   3.158   5.232  0.0430 -0.2251  0.0837
   12MOL   C137 2799   2.598   3.244   5.151  0.4962  0.3015 -0.0030
   12MOL   C138 2800   2.703   3.290   5.046 -0.5178 -0.2950 -0.6449
   12MOL   O139 2801   2.488   3.301   5.163 -0.2594  0.0532  0.0362
   12MOL   H140 2802   2.533   3.118   5.537  1.2212 -1.6208 -1.9558
   12MOL   H141 2803   2.503   3.266   5.443 -0.9795 -0.1874 -0.1472
   12MOL   H142 2804   2.461   3.098   5.304 -0.3414  1.7315 -0.1068
   12MOL   H143 2805   2.793   3.234   5.071  1.7988  2.1347 -3.1559
   12MOL   H144 2806   2.712   3.398   5.056 -1.4506 -0.3523  0.9595
   12MOL   H145 2807   2.677   3.257   4.945 -1.7997  1.7486 -1.0048
   12MOL   C146 2808   2.610   2.948   5.361  0.4709  0.4209  0.3881
   12MOL   C147 2809   2.688   2.877   5.249 -0.7388  0.0115  0.0630
   12MOL   O148 2810   2.748   2.755   5.293 -0.4619  0.8352  0.3447
   12MOL   C149 2811   2.863   2.738   5.349  0.0580 -0.4356 -0.1612
   12MOL   C150 2812   2.908   2.596   5.355  0.0854  0.4324 -0.1989
   12MOL   O151 2813   2.933   2.829   5.384  0.0344 -0.2682 -0.8375
   12MOL   H152 2814   2.675   2.951   5.448  0.4116  1.5409  0.3993
   12MOL   H153 2815   2.530   2.884   5.397 -0.4502  1.7828  0.8047
   12MOL   H154 2816   2.773   2.943   5.228  0.1446 -0.9019  0.6757
   12MOL   H155 2817   2.847   2.531   5.417  1.0428  1.3655  1.7489
   12MOL   H156 2818   3.013   2.589   5.382  0.1556  0.3642 -0.4848
   12MOL   H157 2819   2.916   2.547   5.257 -1.7829  0.4681 -0.3864
   12MOL   C158 2820   2.584   2.854   5.128 -0.4661  0.2371  0.3121
   12MOL   C159 2821   2.631   2.787   4.995  0.4652  0.7263 -0.4642
   12MOL   O160 2822   2.512   2.758   4.920  0.8154  0.5414 -0.4615
   12MOL   C161 2823   2.515   2.658   4.829  0.7886 -0.0214 -0.3235
   12MOL   C162 2824   2.392   2.658   4.742 -0.5409 -0.1738 -0.1747
   12MOL   O163 2825   2.600   2.572   4.814 -0.2055 -0.0571  0.6265
   12MOL   H164 2826   2.511   2.787   5.174  1.4560 -0.1483  2.9240
   12MOL   H165 2827   2.522   2.937   5.094 -0.8893 -0.4961 -0.7217
   12MOL   H166 2828   2.680   2.696   5.029 -0.9083 -0.3327 -1.2967
   12MOL   H167 2829   2.410   2.735   4.666 -1.2763 -0.4397 -0.6224
   12MOL   H168 2830   2.301   2.675   4.799  0.0590 -1.1323  1.1118
   12MOL   H169 2831   2.383   2.562   4.691  0.8110 -0.8600  0.8372
   12MOL   C170 2832   2.719   2.876   4.903  0.1976 -0.3637  0.3656
   12MOL   C171 2833   2.873   2.873   4.913  0.8664  0.9450 -0.0773
   12MOL   O172 2834   2.911   2.938   5.039 -0.1564 -0.0454  0.1305
   12MOL   C173 2835   2.982   3.056   5.041  0.1698 -0.1525  0.7865
   12MOL   C174 2836   3.005   3.103   5.183 -0.5225  0.3259  0.0914
   12MOL   O175 2837   3.016   3.121   4.940  0.0433 -0.2176  0.2986
   12MOL   H176 2838   2.689   2.859   4.799  1.1736  0.4030 -0.0494
   12MOL   H177 2839   2.693   2.981   4.916 -2.3661 -0.8210 -0.7285
   12MOL   H178 2840   2.925   2.927   4.833  0.1782  1.6770 -0.0375
   12MOL   H179 2841   2.911   3.114   5.237 -1.8738 -0.3349 -2.0427
   12MOL   H180 2842   3.055   3.200   5.187 -0.0332  0.1283 -1.1351
   12MOL   H181 2843   3.053   3.031   5.247 -0.3393  0.6633  0.3344
   12MOL   C182 2844   2.943   2.733   4.935  0.2150 -0.0651  0.1318
   12MOL   C183 2845   3.099   2.743   4.934 -0.5634  0.4522  0.2584
   12MOL   O184 2846   3.147   2.727   5.070  0.0397  0.4060  0.5611
   12MOL   C185 2847   3.253   2.788   5.120 -0.7167  0.1821  0.4232
   12MOL   C186 2848   3.268   2.777   5.270  0.3925 -1.0484 -0.6873
   12MOL   O187 2849   3.336   2.852   5.051  0.7375 -0.2673  0.9860
   12MOL   H188 2850   2.904   2.689   5.027 -0.1068  1.5101  0.7597
   12MOL   H189 2851   2.914   2.664   4.856 -1.3671  0.0233  0.6162
   12MOL   H190 2852   3.126   2.839   4.890  1.3373 -1.0994 -2.0712
   12MOL   H191 2853   3.322   2.685   5.291  0.1058 -0.3293  3.6628
   12MOL   H192 2854   3.176   2.767   5.328  2.4696  2.3003  3.4385
   12MOL   H193 2855   3.331   2.856   5.311  0.1487 -1.6683  0.9194
   12MOL   C194 2856   3.169   2.633   4.852  0.5599 -0.4260  0.4072
   12MOL   C195 2857   3.169   2.647   4.698  0.5794 -0.0235  0.9170
   12MOL   O196 2858   3.270   2.746   4.671  0.8357  0.3821  0.3123
   12MOL   C197 2859   3.238   2.874   4.660  0.3704 -0.0744  0.0621
   12MOL   C198 2860   3.356   2.969   4.653  0.3818  0.5786  0.8327
   12MOL   O199 2861   3.122   2.911   4.655 -0.2278  0.0711 -0.0775
   12MOL   H200 2862   3.272   2.621   4.886  0.5017 -0.6325  0.5115
   12MOL   H201 2863   3.126   2.542   4.895  0.0443 -0.0810  0.6286
   12MOL   H202 2864   3.070   2.681   4.667  1.0797  0.5293 -0.0866
   12MOL   H203 2865   3.357   3.027   4.745 -1.0603  1.0074  0.5908
   12MOL   H204 2866   3.345   3.045   4.575 -0.5837  0.2302  0.6346
   12MOL   H205 2867   3.445   2.909   4.632 -0.1614 -0.7620  2.2918
   12MOL   C206 2868   3.206   2.514   4.631  0.0092 -0.7214 -0.0216
   12MOL   C207 2869   3.163   2.491   4.488  0.6553 -0.0976  0.2496
   12MOL   O208 2870   3.020   2.512   4.473 -0.6146  0.2815  0.3727
   12MOL   C209 2871   2.935   2.415   4.498  0.4101  0.1487  0.7160
   12MOL   C210 2872   2.799   2.450   4.459  0.9204 -0.0803  0.1142
   12MOL   O211 2873   2.956   2.312   4.549 -0.3272  0.3878  0.0674
   12MOL   H212 2874   3.314   2.503   4.640  0.2734  1.9231  0.4106
   12MOL   H213 2875   3.157   2.442   4.696  0.0538 -1.2777 -0.6039
   12MOL   H214 2876   3.179   2.387   4.462 -2.3818 -0.2988 -0.9350
   12MOL   H215 2877   2.728   2.440   4.541  0.6760  1.4001  0.0848
   12MOL   H216 2878   2.782   2.376   4.380  0.1487 -2.9848  2.8903
   12MOL   H217 2879   2.778   2.547   4.415  0.6847 -0.5538 -0.8216
   12MOL   C218 2880   3.251   2.567   4.390  0.5890 -0.0892 -0.3705
   12MOL   C219 2881   3.195   2.573   4.238 -0.1932  0.1063  0.1190
   12MOL   O220 2882   3.089   2.663   4.237 -0.0311 -0.6379  0.2867
   12MOL   C221 2883   2.986   2.642   4.152 -0.2146  0.5552 -0.3502
   12MOL   C222 2884   2.869   2.747   4.157  0.5620  0.1246 -0.1009
   12MOL   O223 2885   2.967   2.544   4.079  0.1270 -0.1588 -0.1152
   12MOL   H224 2886   3.272   2.668   4.425  1.1022 -0.2162 -0.3047
   12MOL   H225 2887   3.343   2.509   4.402  2.4332  2.9275  0.6008
   12MOL   H226 2888   3.158   2.475   4.206 -3.6801  0.9957  1.2173
   12MOL   H227 2889   2.834   2.773   4.057 -0.3358  0.6744  0.3567
   12MOL   H228 2890   2.923   2.832   4.199  0.1414 -0.1681  1.0427
   12MOL   H229 2891   2.794   2.708   4.225  0.4904 -1.3791 -1.0141
   12MOL   C230 2892   3.306   2.631   4.142  0.8070  0.0038 -1.5636
   12MOL   C231 2893   3.392   2.518   4.077  1.1103  0.0167  0.1178
   12MOL   O232 2894   3.470   2.447   4.173 -0.0242 -0.1998 -0.1593
   12MOL   C233 2895   3.540   2.343   4.136  0.1478  0.1035 -0.4656
   12MOL   C234 2896   3.607   2.283   4.254 -0.2242  0.1050 -0.9677
   12MOL   O235 2897   3.545   2.298   4.023  0.4042 -0.1166 -0.7108
   12MOL   H236 2898   3.255   2.699   4.073 -0.5853  1.5791  0.9446
   12MOL   H237 2899   3.369   2.700   4.198 -1.1086  1.1266 -0.7456
   12MOL   H238 2900   3.455   2.574   4.007  1.9508  1.2991  1.8628
   12MOL   H239 2901   3.708   2.251   4.231  1.2343  2.9591  1.1232
   12MOL   H240 2902   3.539   2.200   4.273  0.8431 -0.7633 -0.9542
   12MOL   H241 2903   3.604   2.352   4.339 -0.5204 -1.5794  0.4026
   12MOL   H242 2904   3.332   2.451   4.014  1.1622  2.1507 -2.2880
   13MOL     C1 2905   7.613   3.531   1.463  0.5249  0.1937  0.2033
   13MOL     C2 2906   7.564   3.670   1.439 -0.0203 -0.6625 -0.4847
   13MOL     O3 2907   7.569   3.677   1.297 -0.0683  0.1985  0.5105
   13MOL     C4 2908   7.595   3.788   1.235  0.1785  0.3995 -0.0552
   13MOL     C5 2909   7.622   3.768   1.087  0.0203 -0.0310 -0.8092
   13MOL     O6 2910   7.613   3.896   1.292  0.1920  0.2638 -0.6260
   13MOL     H7 2911   7.706   3.515   1.409 -0.4526 -0.6287 -1.2825
   13MOL     H8 2912   7.542   3.453   1.436 -0.2097  0.6019  0.9029
   13MOL     H9 2913   7.637   3.738   1.482 -1.4002  1.3494 -1.2552
   13MOL    H10 2914   7.705   3.698   1.075 -0.1106 -0.8215  2.5682
   13MOL    H11 2915   7.632   3.867   1.043 -2.9001  1.0289  0.8002
   13MOL    H12 2916   7.533   3.723   1.043  0.0417  0.5283 -1.4266
   13MOL    H13 2917   7.623   3.512   1.570 -1.5870 -1.3472  0.1608
   13MOL    C14 2918   7.420   3.697   1.490  0.6651  0.1498  0.2776
   13MOL    C15 2919   7.353   3.832   1.466  0.6975  0.6942  0.1630
   13MOL    O16 2920   7.212   3.812   1.494 -1.0157 -0.8676 -0.3508
   13MOL    C17 2921   7.124   3.893   1.431  0.0313 -0.0762 -0.1149
   13MOL    C18 2922   6.987   3.898   1.512  0.1007  0.0533 -0.5207
   13MOL    O19 2923   7.142   3.973   1.340 -0.1054 -0.0099 -0.4679
   13MOL    H20 2924   7.352   3.623   1.449  0.7287 -0.0881  0.5932
   13MOL    H21 2925   7.425   3.692   1.599 -1.6740  0.7723  0.4273
   13MOL    H22 2926   7.362   3.851   1.359 -0.8257 -0.7417 -0.2272
   13MOL    H23 2927   6.981   3.809   1.574 -0.9919  2.0424  2.2984
   13MOL    H24 2928   6.902   3.905   1.444  1.4145  0.2475 -2.1764
   13MOL    H25 2929   6.987   3.993   1.565 -0.0956 -0.1359 -0.1820
   13MOL    C26 2930   7.419   3.947   1.547 -0.3846 -0.0931 -0.0427
   13MOL    C27 2931   7.438   3.935   1.696 -0.0881 -0.1702 -0.3404
   13MOL    O28 2932   7.553   3.859   1.734 -0.4988  0.0360  0.4384
   13MOL    C29 2933   7.551   3.774   1.832 -0.4998 -0.9546  1.0247
   13MOL    C30 2934   7.688   3.753   1.891 -0.2648 -0.7522 -0.1725
   13MOL    O31 2935   7.450   3.728   1.877 -0.1004  0.0982  0.1109
   13MOL    H32 2936   7.520   3.968   1.510 -0.2213  0.3042  0.6213
   13MOL    H33 2937   7.365   4.041   1.536  2.0673  1.5662  1.5712
   13MOL    H34 2938   7.345   3.890   1.732 -2.3177  3.5171 -1.2048
   13MOL    H35 2939   7.747   3.688   1.826  0.8561  1.8021 -1.7640
   13MOL    H36 2940   7.680   3.714   1.993 -2.4898 -0.3087 -0.1457
   13MOL    H37 2941   7.748   3.842   1.906 -1.9698  0.4561 -0.3969
   13MOL    C38 2942   7.457   4.070   1.772 -0.0645  0.0703 -0.0337
   13MOL    C39 2943   7.323   4.127   1.823 -0.2821  0.0638 -0.1366
   13MOL    O40 2944   7.263   4.041   1.922  0.0722 -0.3188 -0.0153
   13MOL    C41 2945   7.133   4.044   1.950 -0.7066 -0.9255 -0.8122
   13MOL    C42 2946   7.091   3.947   2.056 -0.1503 -0.1237 -0.1109
   13MOL    O43 2947   7.050   4.126   1.915  0.0513 -0.3050  0.1862
   13MOL    H44 2948   7.524   4.059   1.857 -2.6065  0.2128  2.0341
   13MOL    H45 2949   7.509   4.145   1.712  0.2233  0.7258  1.0265
   13MOL    H46 2950   7.251   4.138   1.742 -1.1737 -0.4486  0.5629
   13MOL    H47 2951   7.127   3.844   2.047  0.8076  0.0632  1.3003
   13MOL    H48 2952   6.983   3.938   2.066 -0.0569 -0.4974  0.5867
   13MOL    H49 2953   7.140   3.985   2.145  1.6262 -0.6069 -0.8673
   13MOL    C50 2954   7.359   4.261   1.893 -0.3722  0.3585 -0.9265
   13MOL    C51 2955   7.389   4.378   1.795 -0.2963  0.6640 -0.2318
   13MOL    O52 2956   7.268   4.409   1.736 -0.3231 -0.6218  0.4848
   13MOL    C53 2957   7.247   4.397   1.602 -1.0713 -0.5550 -0.2656
   13MOL    C54 2958   7.114   4.457   1.559 -0.0356  0.1800  0.4948
   13MOL    O55 2959   7.317   4.347   1.521 -0.1071  0.6558  0.2570
   13MOL    H56 2960   7.278   4.283   1.962  0.5422  1.8989 -0.3344
   13MOL    H57 2961   7.453   4.239   1.944 -0.6593 -2.4995 -1.5201
   13MOL    H58 2962   7.462   4.348   1.719 -1.2859 -0.6488 -0.7070
   13MOL    H59 2963   7.032   4.388   1.535 -2.3983  3.6199 -1.7255
   13MOL    H60 2964   7.136   4.530   1.481  0.3970 -0.4073  0.0571
   13MOL    H61 2965   7.069   4.497   1.650  2.4427  3.0289  0.5141
   13MOL    C62 2966   7.444   4.506   1.872  0.5354 -0.8394 -0.0482
   13MOL    C63 2967   7.594   4.507   1.917 -1.1569 -0.4830  0.2484
   13MOL    O64 2968   7.662   4.520   1.793 -0.6841 -0.0859  0.0031
   13MOL    C65 2969   7.768   4.438   1.767  0.6793 -0.3587  0.3177
   13MOL    C66 2970   7.848   4.495   1.658 -0.6977 -0.0446 -0.2505
   13MOL    O67 2971   7.812   4.348   1.834 -0.6763 -0.7310 -0.2671
   13MOL    H68 2972   7.435   4.600   1.817 -0.3942 -0.7559  0.2487
   13MOL    H69 2973   7.373   4.520   1.954  0.1544  1.1266 -0.6743
   13MOL    H70 2974   7.602   4.405   1.956 -0.6961 -1.5080 -2.4724
   13MOL    H71 2975   7.951   4.520   1.683 -0.9123  0.5038  0.1105
   13MOL    H72 2976   7.820   4.595   1.624  1.1662  1.0546  1.3685
   13MOL    H73 2977   7.842   4.434   1.568 -1.0894 -1.4113  0.6881
   13MOL    C74 2978   7.649   4.620   2.015  0.2835 -0.1617 -0.0527
   13MOL    C75 2979   7.574   4.616   2.147  0.6452  0.6203 -0.0942
   13MOL    O76 2980   7.571   4.484   2.196  0.3665  0.2022 -0.2662
   13MOL    C77 2981   7.459   4.420   2.236 -0.3909 -0.0189  0.5879
   13MOL    C78 2982   7.469   4.272   2.258 -0.1878  0.3496  0.6363
   13MOL    O79 2983   7.351   4.471   2.246  0.0359  0.2614  0.3940
   13MOL    H80 2984   7.753   4.588   2.024  0.7194  1.0143 -0.7737
   13MOL    H81 2985   7.639   4.719   1.968 -2.1809 -1.2163 -1.8889
   13MOL    H82 2986   7.467   4.625   2.125  0.7805  0.0998 -1.0074
   13MOL    H83 2987   7.557   4.255   2.320  0.0088  0.2303  0.3285
   13MOL    H84 2988   7.481   4.224   2.161 -0.3392  2.0036 -0.2262
   13MOL    H85 2989   7.386   4.226   2.310  0.2624 -0.3631  0.7291
   13MOL    C86 2990   7.620   4.706   2.265 -0.0593 -0.5246  0.0202
   13MOL    C87 2991   7.702   4.834   2.218  0.7523  0.4859  0.6493
   13MOL    O88 2992   7.602   4.933   2.188  0.2036 -0.1716  0.1962
   13MOL    C89 2993   7.619   5.013   2.089 -0.6263 -0.1269  0.1604
   13MOL    C90 2994   7.506   5.112   2.071  0.4435  0.7062 -0.0471
   13MOL    O91 2995   7.720   5.020   2.012 -0.5202 -0.2572 -0.6178
   13MOL    H92 2996   7.543   4.748   2.330 -0.6966  1.7873 -2.1557
   13MOL    H93 2997   7.686   4.643   2.325  0.2760  0.1651  0.3745
   13MOL    H94 2998   7.753   4.813   2.124  0.6763  3.6246 -0.1833
   13MOL    H95 2999   7.415   5.063   2.037  0.8089  0.6630 -0.9701
   13MOL    H96 3000   7.536   5.194   2.006 -1.3563  2.6429  1.4916
   13MOL    H97 3001   7.485   5.167   2.163 -0.2971  0.5777 -0.1348
   13MOL    C98 3002   7.785   4.891   2.335  0.1768 -0.8895 -0.4563
   13MOL    C99 3003   7.916   4.818   2.371 -0.0948  0.2678  0.3884
   13MOL   O100 3004   7.989   4.755   2.261  0.4603  0.3619 -0.1885
   13MOL   C101 3005   0.014   4.822   2.162 -0.2271  0.9369 -0.0357
   13MOL   C102 3006   0.086   4.729   2.060  0.0712 -0.6216 -0.4599
   13MOL   O103 3007   8.021   4.945   2.142 -0.3408 -0.2690 -0.7581
   13MOL   H104 3008   7.806   4.995   2.310 -3.6703  0.3013  0.9224
   13MOL   H105 3009   7.725   4.888   2.426 -0.2620 -1.3198 -0.7573
   13MOL   H106 3010   7.889   4.732   2.431 -2.1038 -1.3442 -2.6639
   13MOL   H107 3011   0.183   4.703   2.101  0.6912 -0.0122 -1.5408
   13MOL   H108 3012   0.106   4.785   1.969  3.0252  0.8615  1.0486
   13MOL   H109 3013   0.017   4.649   2.031 -2.2502  2.1887 -3.0130
   13MOL   C110 3014   0.000   4.898   2.450 -0.0755  0.3359 -0.2363
   13MOL   C111 3015   7.976   4.942   2.597  0.2394 -0.5305 -0.6659
   13MOL   O112 3016   8.019   4.851   2.694  0.2494  0.0134  0.7937
   13MOL   C113 3017   7.929   4.804   2.791  0.1979 -0.3007 -0.2376
   13MOL   C114 3018   7.992   4.699   2.888 -0.1420 -0.5944  0.1170
   13MOL   O115 3019   7.820   4.859   2.804  0.2778  0.7098  0.1391
   13MOL   H116 3020   0.091   4.838   2.455 -2.0159 -3.0220 -3.3043
   13MOL   H117 3021   0.028   4.990   2.398  0.7398 -0.2948 -0.9239
   13MOL   H118 3022   7.867   4.944   2.604  0.2980 -2.4688  1.3394
   13MOL   H119 3023   7.914   4.652   2.948 -2.3302  2.2756 -0.4013
   13MOL   H120 3024   0.041   4.754   2.951 -1.7315 -1.8803  3.1359
   13MOL   H121 3025   0.024   4.618   2.839  0.6037  0.4343 -0.7963
   13MOL   C122 3026   0.026   5.082   2.627 -0.1891 -0.1615  0.5061
   13MOL   C123 3027   7.993   5.197   2.542 -0.4725 -0.2816  0.1510
   13MOL   O124 3028   7.861   5.232   2.592 -0.7157  0.4730 -0.0739
   13MOL   C125 3029   7.747   5.238   2.514 -0.2905  0.2702 -0.2076
   13MOL   C126 3030   7.638   5.310   2.588 -0.6241  0.2484  0.4743
   13MOL   O127 3031   7.734   5.221   2.395 -0.8266 -0.0294 -0.4393
   13MOL   H128 3032   0.028   5.107   2.733  2.1538 -0.9655  0.6836
   13MOL   H129 3033   0.128   5.068   2.591 -0.1250  1.7487 -0.1258
   13MOL   H130 3034   7.990   5.181   2.434 -1.8383 -0.1986  0.1633
   13MOL   H131 3035   7.571   5.376   2.533 -2.0820  0.1785  2.0967
   13MOL   H132 3036   7.670   5.387   2.659 -0.9753 -1.0607  2.0868
   13MOL   H133 3037   7.580   5.229   2.633 -0.8255  0.4225  0.5271
   13MOL   C134 3038   0.058   5.325   2.558 -0.2433 -0.6777 -0.4765
   13MOL   C135 3039   0.017   5.433   2.451  0.0221 -0.6518  0.2762
   13MOL   O136 3040   0.038   5.567   2.512  0.5445 -0.3850  0.0019
   13MOL   C137 3041   7.948   5.652   2.527  0.3238  0.7692 -0.6225
   13MOL   C138 3042   7.984   5.787   2.579 -0.0104 -0.0358  1.0421
   13MOL   O139 3043   7.834   5.636   2.488  0.0714  1.2386 -0.2580
   13MOL   H140 3044   0.049   5.365   2.659  1.3076  0.6185 -0.8228
   13MOL   H141 3045   0.164   5.301   2.549 -0.2924 -1.0550 -0.0828
   13MOL   H142 3046   7.933   5.413   2.432  0.1065 -2.7984  1.8322
   13MOL   H143 3047   0.027   5.841   2.509 -0.2245 -1.4697 -0.2867
   13MOL   H144 3048   0.013   5.771   2.674 -2.6965 -1.6289  2.2626
   13MOL   H145 3049   7.890   5.839   2.601 -0.1536  0.6988 -1.1599
   13MOL   C146 3050   0.102   5.440   2.315  0.1989  0.9619  0.0612
   13MOL   C147 3051   0.092   5.316   2.222  0.0065 -0.0076  0.3430
   13MOL   O148 3052   0.144   5.203   2.288  0.0305  0.7495  0.3107
   13MOL   C149 3053   0.275   5.170   2.278  0.4213  0.4257 -0.0213
   13MOL   C150 3054   0.307   5.046   2.351 -0.4014  0.1494  0.3561
   13MOL   O151 3055   0.365   5.230   2.221 -0.5498  0.0500 -0.6820
   13MOL   H152 3056   0.074   5.530   2.260 -1.2439 -0.7858 -2.1895
   13MOL   H153 3057   0.203   5.448   2.354  0.5402  0.4921 -0.7129
   13MOL   H154 3058   0.146   5.344   2.132 -1.8465  0.3032 -0.6959
   13MOL   H155 3059   0.359   5.076   2.442  0.2974  2.9740 -0.9483
   13MOL   H156 3060   0.374   4.986   2.290 -1.6872 -1.8642  0.8405
   13MOL   H157 3061   0.227   4.974   2.369 -0.8309  1.0181  2.0634
   13MOL   C158 3062   7.975   5.282   2.173  0.2776  0.2987  0.3712
   13MOL   C159 3063   7.878   5.401   2.151  0.7073  0.1352 -0.4718
   13MOL   O160 3064   7.927   5.493   2.052  0.1869 -0.3678  0.2642
   13MOL   C161 3065   7.928   5.631   2.066  0.4683 -0.9807  0.3620
   13MOL   C162 3066   7.989   5.707   1.950  0.0611 -0.8343  0.2100
   13MOL   O163 3067   7.904   5.683   2.177  0.3577  0.1595  0.4152
   13MOL   H164 3068   7.998   5.242   2.074  0.4651  2.1374 -0.3621
   13MOL   H165 3069   7.927   5.204   2.232  1.6152 -0.0555  0.9998
   13MOL   H166 3070   7.859   5.446   2.249 -0.1989 -1.1618 -0.0467
   13MOL   H167 3071   0.026   5.634   1.895  1.7528  1.7663 -1.5583
   13MOL   H168 3072   0.032   5.786   1.990 -0.9359 -0.4469  1.0833
   13MOL   H169 3073   7.918   5.761   1.888  2.2484  1.4424 -0.3934
   13MOL   C170 3074   7.735   5.360   2.097 -0.4102  0.1965  0.4328
   13MOL   C171 3075   7.625   5.469   2.113 -0.1527  0.0254  0.4775
   13MOL   O172 3076   7.515   5.449   2.018  0.3131 -0.2648 -0.1284
   13MOL   C173 3077   7.481   5.548   1.923 -1.0585 -0.4251  0.2041
   13MOL   C174 3078   7.333   5.528   1.882 -0.1594  0.1370 -0.4124
   13MOL   O175 3079   7.538   5.650   1.893 -0.0566  0.2868  0.4987
   13MOL   H176 3080   7.741   5.352   1.988  0.1381  1.5487  0.3599
   13MOL   H177 3081   7.681   5.272   2.133 -1.7171  0.2870 -1.2195
   13MOL   H178 3082   7.664   5.569   2.093 -0.0813 -0.5957 -2.8442
   13MOL   H179 3083   7.300   5.433   1.841 -0.1533  0.6350 -1.5755
   13MOL   H180 3084   7.296   5.598   1.808 -0.2456  0.2729 -0.2401
   13MOL   H181 3085   7.274   5.551   1.971  1.7346  1.0623  0.6396
   13MOL   C182 3086   7.568   5.474   2.254  0.3203  0.1221  0.0928
   13MOL   C183 3087   7.460   5.575   2.279  0.4799 -0.0509 -0.2449
   13MOL   O184 3088   7.396   5.534   2.401 -0.9262 -0.0900 -0.0543
   13MOL   C185 3089   7.255   5.539   2.413 -0.5564  0.2841  0.0371
   13MOL   C186 3090   7.201   5.462   2.535 -0.6351 -0.0209  0.2173
   13MOL   O187 3091   7.178   5.586   2.333 -0.3647 -0.2374 -0.0504
   13MOL   H188 3092   7.540   5.372   2.280 -0.7198  0.3562 -0.1169
   13MOL   H189 3093   7.655   5.496   2.317 -0.4721  2.6681  0.3712
   13MOL   H190 3094   7.380   5.561   2.207 -0.5854  0.3307  0.8364
   13MOL   H191 3095   7.281   5.424   2.600 -0.4604  0.1415  0.0953
   13MOL   H192 3096   7.139   5.376   2.510 -1.6601  0.5456  0.7880
   13MOL   H193 3097   7.137   5.530   2.590 -0.1055  0.0630  0.7407
   13MOL   C194 3098   7.498   5.721   2.288 -0.4418 -0.8427  0.1053
   13MOL   C195 3099   7.378   5.817   2.263  0.5516  0.3917  0.1762
   13MOL   O196 3100   7.419   5.952   2.275  0.4796  0.2492  0.7376
   13MOL   C197 3101   7.411   6.015   2.388 -0.1909  0.3411  0.5943
   13MOL   C198 3102   7.492   6.143   2.387  0.2904  0.3918 -0.1437
   13MOL   O199 3103   7.355   5.971   2.485  0.7163  0.4713 -0.3197
   13MOL   H200 3104   7.558   5.739   2.377 -2.7914 -0.3441  1.6395
   13MOL   H201 3105   7.555   5.749   2.200 -1.0312 -0.2844 -0.1028
   13MOL   H202 3106   7.297   5.806   2.335  1.7140 -0.7685  1.3442
   13MOL   H203 3107   7.442   6.230   2.347 -0.2296  0.4210  0.5524
   13MOL   H204 3108   7.582   6.130   2.326  1.3697  1.6447  1.1183
   13MOL   H205 3109   7.536   6.145   2.487  0.2190 -1.8959 -0.0425
   13MOL   C206 3110   7.308   5.795   2.124  0.3936  0.2301 -0.4254
   13MOL   C207 3111   7.212   5.911   2.076 -0.0881  0.0385 -0.2052
   13MOL   O208 3112   7.190   5.883   1.946 -0.2196 -0.0894  0.1436
   13MOL   C209 3113   7.239   5.963   1.842  0.1142 -0.8615 -0.8603
   13MOL   C210 3114   7.208   5.905   1.705  0.1210  0.7661 -0.0091
   13MOL   O211 3115   7.292   6.069   1.861  0.5423  0.1966 -0.1920
   13MOL   H212 3116   7.385   5.785   2.047 -0.2374 -0.1388 -1.0030
   13MOL   H213 3117   7.254   5.701   2.122  0.6691  0.0104  1.5237
   13MOL   H214 3118   7.265   6.005   2.083  0.5188 -0.0944 -2.5364
   13MOL   H215 3119   7.102   5.898   1.683  0.1347  0.7979 -0.0842
   13MOL   H216 3120   7.264   5.812   1.698 -0.7650  0.1146  1.4201
   13MOL   H217 3121   7.245   5.975   1.630  2.4127 -0.7581 -0.3740
   13MOL   C218 3122   7.083   5.941   2.152 -0.2551 -0.1878 -0.0016
   13MOL   C219 3123   6.997   6.056   2.106 -0.2132  0.3426 -0.2547
   13MOL   O220 3124   6.875   6.052   2.175 -0.2604 -0.5152  0.1777
   13MOL   C221 3125   6.775   5.975   2.129 -0.1873 -0.5742  0.0727
   13MOL   C222 3126   6.650   5.980   2.218 -0.1389  0.2612 -0.0526
   13MOL   O223 3127   6.776   5.917   2.024 -0.2950 -0.1168 -0.5146
   13MOL   H224 3128   7.022   5.853   2.134  0.8481 -1.0139  0.2267
   13MOL   H225 3129   7.101   5.950   2.260 -1.1794  0.7476  0.0828
   13MOL   H226 3130   6.974   6.045   2.000 -1.4243  2.3819 -0.2267
   13MOL   H227 3131   6.657   5.905   2.297  0.2358 -1.4624 -1.6770
   13MOL   H228 3132   6.562   5.954   2.159  0.6868  0.9998 -1.6410
   13MOL   H229 3133   6.624   6.081   2.249 -2.5905 -0.1303 -0.7160
   13MOL   C230 3134   7.064   6.198   2.126 -0.4271  0.0565 -0.2504
   13MOL   C231 3135   6.973   6.321   2.103 -0.3006  0.0295 -0.3304
   13MOL   O232 3136   7.054   6.446   2.110  0.1775 -0.4043  0.3791
   13MOL   C233 3137   6.986   6.560   2.142  0.4829  0.4804 -0.0163
   13MOL   C234 3138   7.063   6.689   2.110 -0.5638 -0.6388  0.3706
   13MOL   O235 3139   6.870   6.568   2.187 -0.1153  0.3791  0.1613
   13MOL   H236 3140   7.096   6.202   2.230  1.8406 -0.8405 -0.8942
   13MOL   H237 3141   7.153   6.201   2.063  0.2638 -0.2570  0.7014
   13MOL   H238 3142   6.894   6.320   2.178 -1.1695  2.9410 -1.1724
   13MOL   H239 3143   7.081   6.686   2.003  1.5203 -2.1327  0.7373
   13MOL   H240 3144   7.156   6.709   2.163 -0.8921  0.9326  0.3904
   13MOL   H241 3145   6.998   6.774   2.130 -0.5321 -0.0322 -1.9591
   13MOL   H242 3146   6.930   6.324   2.004  0.5466  0.7291 -0.6861
   14MOL     C1 3147   7.111   7.877   3.195 -0.3876 -0.1000 -0.2709
   14MOL     C2 3148   7.237   7.822   3.128 -0.7270 -0.0286 -1.2097
   14MOL     O3 3149   7.195   7.719   3.044  0.0211 -0.4960 -0.1951
   14MOL     C4 3150   7.257   7.602   3.039  0.2317 -0.0447  0.5187
   14MOL     C5 3151   7.201   7.508   2.932 -0.1693  0.2524 -0.5706
   14MOL     O6 3152   7.344   7.561   3.117  0.1282 -0.4250  0.1989
   14MOL     H7 3153   7.058   7.791   3.234  0.9198 -0.5780  0.4704
   14MOL     H8 3154   7.053   7.935   3.122 -0.2567  0.6204  0.1947
   14MOL     H9 3155   7.296   7.775   3.206 -3.1518 -1.3596 -0.1293
   14MOL    H10 3156   7.246   7.538   2.837  1.7273 -0.9848 -0.0892
   14MOL    H11 3157   7.096   7.529   2.913  0.3850  2.2315 -1.6306
   14MOL    H12 3158   7.223   7.405   2.962 -1.9599  0.6038  2.1895
   14MOL    H13 3159   7.129   7.951   3.273 -0.0612  0.7748 -1.1587
   14MOL    C14 3160   7.313   7.929   3.046 -0.0281 -0.9023 -0.8091
   14MOL    C15 3161   7.394   0.013   3.123 -0.2530 -0.0269 -0.6438
   14MOL    O16 3162   7.310   0.099   3.193  0.1689  0.3391  0.0718
   14MOL    C17 3163   7.350   0.228   3.213  0.0525 -0.9976 -1.0192
   14MOL    C18 3164   7.232   0.299   3.287  0.0468  0.0263 -0.2748
   14MOL    O19 3165   7.453   0.284   3.174 -1.0753 -0.3492  0.5557
   14MOL    H20 3166   7.380   7.863   2.992 -0.6110 -1.8550 -0.3815
   14MOL    H21 3167   7.256   7.982   2.970 -1.3257 -0.4540  0.4382
   14MOL    H22 3168   7.454   0.059   3.044  2.5571 -3.1941 -0.4689
   14MOL    H23 3169   7.264   0.310   3.391 -2.3767  2.5840  0.2623
   14MOL    H24 3170   7.149   0.230   3.303 -0.5982  1.3520  2.4957
   14MOL    H25 3171   7.197   0.392   3.242 -0.9138 -1.2510 -2.2542
   14MOL    C26 3172   7.494   7.978   3.233  0.2210 -0.2236  0.2799
   14MOL    C27 3173   7.590   7.861   3.191  0.0468 -0.3595 -0.4211
   14MOL    O28 3174   7.692   7.925   3.120  0.1977 -0.2545  0.0831
   14MOL    C29 3175   7.694   7.919   2.984 -0.4480 -0.1112  0.7078
   14MOL    C30 3176   7.809   7.998   2.929  0.3374  0.0952  0.4438
   14MOL    O31 3177   7.609   7.859   2.918  0.5388 -0.3518  0.0849
   14MOL    H32 3178   7.553   0.043   3.261  0.6035  0.1149 -1.5197
   14MOL    H33 3179   7.439   7.956   3.325 -0.6094  0.0249 -0.1505
   14MOL    H34 3180   7.544   7.777   3.138 -1.6621  0.1397  0.2316
   14MOL    H35 3181   7.869   7.938   2.860 -0.1431  1.5351 -1.2748
   14MOL    H36 3182   7.883   0.019   2.996  0.6584  0.9291 -0.4309
   14MOL    H37 3183   7.761   0.052   2.866  0.7123 -0.0277  0.0144
   14MOL    C38 3184   7.654   7.792   3.311  0.0884  0.1386 -0.3670
   14MOL    C39 3185   7.730   7.663   3.304  0.5059  0.2849  0.3131
   14MOL    O40 3186   7.645   7.552   3.263  0.2680  0.0791  0.2735
   14MOL    C41 3187   7.612   7.452   3.350  1.0759 -0.1833 -0.0320
   14MOL    C42 3188   7.525   7.339   3.275 -1.3934 -0.2628 -0.3984
   14MOL    O43 3189   7.644   7.436   3.464  0.2487  0.6531  0.0427
   14MOL    H44 3190   7.713   7.861   3.373  0.5363 -1.6146  1.2322
   14MOL    H45 3191   7.573   7.763   3.378  0.3339  0.5691  0.1157
   14MOL    H46 3192   7.762   7.637   3.405 -0.3268 -0.0212  0.5031
   14MOL    H47 3193   7.553   7.240   3.310  0.9088  1.1864  2.0320
   14MOL    H48 3194   7.537   7.332   3.167 -2.1965 -4.0757 -0.3211
   14MOL    H49 3195   7.418   7.348   3.293 -0.8718 -0.5084  3.0361
   14MOL    C50 3196   7.852   7.666   3.205  1.0341 -0.0111 -0.2136
   14MOL    C51 3197   7.961   7.768   3.249 -0.0751 -0.2478  0.4749
   14MOL    O52 3198   8.016   7.706   3.364  0.1803 -0.0269 -0.8546
   14MOL    C53 3199   0.028   7.775   3.472 -0.3040 -0.2369  0.5843
   14MOL    C54 3200   0.082   7.685   3.585  0.5262 -0.2669  0.2481
   14MOL    O55 3201   0.017   7.895   3.484  0.0794 -0.0425  0.0369
   14MOL    H56 3202   7.885   7.569   3.166  0.3149  0.1070 -1.1417
   14MOL    H57 3203   7.826   7.706   3.107  0.0191 -0.0811  0.0241
   14MOL    H58 3204   7.912   7.865   3.265 -0.0336  0.2019 -1.9311
   14MOL    H59 3205   0.069   7.580   3.560  1.2738 -0.1653 -0.5965
   14MOL    H60 3206   0.015   7.700   3.669 -0.6977 -0.6174 -0.6523
   14MOL    H61 3207   0.187   7.706   3.607  0.5237  0.4178 -0.3328
   14MOL    C62 3208   0.042   7.785   3.130 -0.4565  0.4584  0.2338
   14MOL    C63 3209   0.156   7.884   3.164 -0.6605 -0.2770  0.4839
   14MOL    O64 3210   0.244   7.881   3.051 -0.0363  0.4819 -0.2232
   14MOL    C65 3211   0.340   7.790   3.051  0.4046  0.6846 -0.1050
   14MOL    C66 3212   0.421   7.794   2.925  1.0170  0.4664 -0.1174
   14MOL    O67 3213   0.357   7.711   3.141 -0.4310  0.2893  0.3631
   14MOL    H68 3214   0.076   7.689   3.091 -0.3518  0.5447  0.1098
   14MOL    H69 3215   7.998   7.823   3.052  0.2475 -1.4161 -1.3164
   14MOL    H70 3216   0.207   7.847   3.253  0.0573  1.6865  0.9043
   14MOL    H71 3217   0.367   7.729   2.857 -2.1255  1.8424  0.9359
   14MOL    H72 3218   0.521   7.752   2.933  0.7521  0.1177  1.5570
   14MOL    H73 3219   0.416   7.895   2.883  1.8558  0.1266 -1.0390
   14MOL    C74 3220   0.117   0.008   3.185  1.0266 -0.3844 -0.2744
   14MOL    C75 3221   0.233   0.090   3.228 -0.5471  0.6162  0.3837
   14MOL    O76 3222   0.306   0.129   3.115 -0.0491 -0.1161  1.3357
   14MOL    C77 3223   0.436   0.092   3.099  1.2147 -0.5278  0.3162
   14MOL    C78 3224   0.499   0.149   2.972  0.1948 -0.6745  0.0657
   14MOL    O79 3225   0.506   0.029   3.182  0.1551 -0.4871 -0.0850
   14MOL    H80 3226   0.059   0.049   3.102 -2.0575 -1.2806  1.3536
   14MOL    H81 3227   0.045   0.022   3.266  1.2844  3.7959 -0.6647
   14MOL    H82 3228   0.296   0.035   3.298  1.0823  0.5373 -1.1038
   14MOL    H83 3229   0.508   0.256   2.989  0.7804 -0.7466  0.2240
   14MOL    H84 3230   0.438   0.126   2.885  0.6471 -0.9843 -0.1707
   14MOL    H85 3231   0.591   0.094   2.953 -0.0812 -0.6145 -1.4633
   14MOL    C86 3232   0.181   0.216   3.306 -0.0986 -0.6836  0.0988
   14MOL    C87 3233   0.271   0.260   3.422 -0.7916  0.1849  0.2743
   14MOL    O88 3234   0.273   0.159   3.527 -0.1528 -0.2313 -0.0740
   14MOL    C89 3235   0.192   0.163   3.634  0.2314 -0.4765 -0.3313
   14MOL    C90 3236   0.229   0.064   3.743 -0.4703 -1.1308 -0.4930
   14MOL    O91 3237   0.097   0.233   3.651 -0.0980  1.0177 -0.0140
   14MOL    H92 3238   0.158   0.297   3.237 -0.3444 -0.9777 -0.1678
   14MOL    H93 3239   0.081   0.204   3.348 -0.3212 -0.3403 -0.3351
   14MOL    H94 3240   0.227   0.352   3.459 -1.2286 -1.0694  2.9724
   14MOL    H95 3241   0.316   0.006   3.711  0.5768  0.3613 -0.4162
   14MOL    H96 3242   0.164   7.999   3.753 -0.5202 -1.1666 -1.0917
   14MOL    H97 3243   0.248   0.114   3.838 -2.6228  1.7429 -1.5417
   14MOL    C98 3244   0.415   0.297   3.374 -0.5665 -0.0450 -0.3455
   14MOL    C99 3245   0.469   0.434   3.417 -0.0326 -0.4207 -0.6231
   14MOL   O100 3246   0.479   0.454   3.558 -0.4147  0.2587  0.3815
   14MOL   C101 3247   0.369   0.507   3.627 -0.2157  0.3472 -0.1159
   14MOL   C102 3248   0.396   0.500   3.773  0.2480 -0.4789 -0.7862
   14MOL   O103 3249   0.256   0.521   3.596 -0.1472 -0.3421 -0.0888
   14MOL   H104 3250   0.482   0.222   3.416  0.8309  0.9732 -0.7131
   14MOL   H105 3251   0.423   0.288   3.266 -1.1743  0.6522 -0.4529
   14MOL   H106 3252   0.409   0.511   3.368 -2.8612 -2.3007 -0.2496
   14MOL   H107 3253   0.353   0.581   3.832 -3.4435 -1.8113 -1.5274
   14MOL   H108 3254   0.503   0.495   3.790  0.2701 -1.1745 -1.1211
   14MOL   H109 3255   0.367   0.402   3.812 -0.6078  0.5237  1.1737
   14MOL   C110 3256   0.616   0.460   3.365  0.1049  0.4061 -0.0751
   14MOL   C111 3257   0.629   0.452   3.209 -0.0190  0.2349  0.2979
   14MOL   O112 3258   0.568   0.564   3.151 -0.4309  0.6051 -0.1098
   14MOL   C113 3259   0.447   0.572   3.095 -0.3580  0.4817  0.3479
   14MOL   C114 3260   0.430   0.709   3.031 -0.2644  0.4644  0.7544
   14MOL   O115 3261   0.367   0.479   3.076 -0.1245  0.0330  0.1557
   14MOL   H116 3262   0.662   0.554   3.395  0.9087 -0.6591  2.2399
   14MOL   H117 3263   0.676   0.378   3.406 -2.4173 -2.4559 -1.8727
   14MOL   H118 3264   0.576   0.361   3.181  0.6183 -0.8108  2.4229
   14MOL   H119 3265   0.526   0.760   3.030 -1.2211  2.3160 -0.3104
   14MOL   H120 3266   0.359   0.766   3.091 -0.5176  0.0158  0.8834
   14MOL   H121 3267   0.398   0.695   2.927  2.4363  0.8415 -0.1636
   14MOL   C122 3268   0.779   0.448   3.176 -0.2228  0.0447 -0.6337
   14MOL   C123 3269   0.816   0.431   3.024  0.5057  0.0743 -0.1000
   14MOL   O124 3270   0.791   0.558   2.961  0.9713 -0.1682 -0.1697
   14MOL   C125 3271   0.723   0.574   2.851  0.1882  0.3366 -0.6430
   14MOL   C126 3272   0.719   0.725   2.809  0.0215 -0.0708  0.3915
   14MOL   O127 3273   0.670   0.485   2.783  0.0249 -0.5360 -0.1008
   14MOL   H128 3274   0.825   0.539   3.214  0.2032 -0.5915  0.3728
   14MOL   H129 3275   0.826   0.361   3.221  0.3911  1.6581  1.9667
   14MOL   H130 3276   0.749   0.364   2.970 -0.0947  0.5367  0.0529
   14MOL   H131 3277   0.769   0.738   2.714 -3.0273  0.4641 -1.2017
   14MOL   H132 3278   0.766   0.799   2.874  0.0496  1.7325 -1.6145
   14MOL   H133 3279   0.615   0.751   2.787 -0.5639 -1.7431  1.1399
   14MOL   C134 3280   0.957   0.386   3.005  0.6484  0.1350 -0.4451
   14MOL   C135 3281   1.008   0.389   2.857 -0.2140  0.3476  0.3432
   14MOL   O136 3282   1.146   0.358   2.874 -0.9388 -0.4616  0.5592
   14MOL   C137 3283   1.239   0.411   2.790  0.7683 -0.6678 -0.0464
   14MOL   C138 3284   1.369   0.337   2.805  0.0903  0.0477 -0.1764
   14MOL   O139 3285   1.219   0.503   2.711 -0.3493  0.4886 -0.0660
   14MOL   H140 3286   1.018   0.435   3.081 -2.7713  2.5349  0.8606
   14MOL   H141 3287   0.955   0.283   3.040 -1.8599  0.7469  1.3515
   14MOL   H142 3288   0.983   0.487   2.816 -2.1929 -0.5757 -0.7495
   14MOL   H143 3289   1.407   0.369   2.902  0.9685  0.4031 -0.6305
   14MOL   H144 3290   1.438   0.378   2.732 -1.4995 -1.5810 -2.6628
   14MOL   H145 3291   1.367   0.229   2.797  1.3682  0.0239 -0.2281
   14MOL   C146 3292   0.937   0.274   2.776  0.8745  0.0354  0.1149
   14MOL   C147 3293   0.975   0.265   2.625 -0.0171 -0.6438 -0.0038
   14MOL   O148 3294   0.983   0.127   2.576 -0.1252  0.1076 -0.2082
   14MOL   C149 3295   1.094   0.048   2.608 -0.4115 -0.2543 -0.2986
   14MOL   C150 3296   1.070   7.921   2.578  0.3151  0.4156 -0.1291
   14MOL   O151 3297   1.191   0.080   2.673  0.0183 -0.1847 -0.5205
   14MOL   H152 3298   0.948   0.180   2.830  0.1906  0.9195  1.8308
   14MOL   H153 3299   0.829   0.289   2.770  0.6099 -1.9608 -0.4506
   14MOL   H154 3300   1.074   0.308   2.613  0.7354 -1.8799  1.5743
   14MOL   H155 3301   1.149   7.862   2.625  1.2616  2.4227  0.8559
   14MOL   H156 3302   1.073   7.901   2.470  0.7778  4.1544 -0.8598
   14MOL   H157 3303   0.971   7.891   2.613  0.0791  2.2907  0.8704
   14MOL   C158 3304   0.876   0.332   2.523  0.8817 -0.5664  0.0257
   14MOL   C159 3305   0.926   0.346   2.377 -1.1090 -0.3224 -0.0132
   14MOL   O160 3306   0.825   0.405   2.295  0.2694  0.0651 -0.1064
   14MOL   C161 3307   0.750   0.332   2.210 -0.0164 -0.0668  0.2568
   14MOL   C162 3308   0.654   0.403   2.114 -0.0371  0.2343 -0.7587
   14MOL   O163 3309   0.741   0.210   2.214  0.0036  0.0101  0.1359
   14MOL   H164 3310   0.784   0.275   2.535  2.9917 -4.3740 -1.2002
   14MOL   H165 3311   0.857   0.432   2.561 -0.0645 -0.8631  0.3334
   14MOL   H166 3312   0.959   0.250   2.336  0.7852 -0.4012  1.6461
   14MOL   H167 3313   0.694   0.412   2.013 -1.4422  1.8811 -1.1950
   14MOL   H168 3314   0.639   0.504   2.153 -0.2022 -0.2297  0.4067
   14MOL   H169 3315   0.559   0.350   2.117 -0.2826  0.7300  2.4480
   14MOL   C170 3316   1.045   0.441   2.375  0.3812  0.5095 -0.5104
   14MOL   C171 3317   1.097   0.499   2.238 -0.5075 -0.3035 -0.3778
   14MOL   O172 3318   1.168   0.627   2.251  0.2484  0.2803 -0.3489
   14MOL   C173 3319   1.123   0.746   2.192 -0.4053  0.7338  0.0643
   14MOL   C174 3320   1.226   0.863   2.207  0.5534  0.6328  0.2136
   14MOL   O175 3321   1.021   0.763   2.127 -0.4184  0.2211 -0.6399
   14MOL   H176 3322   1.031   0.521   2.447  1.7432 -0.5438  0.9286
   14MOL   H177 3323   1.133   0.385   2.406  1.0718  2.3102  0.8561
   14MOL   H178 3324   1.014   0.517   2.171 -0.6219 -1.4975 -0.5721
   14MOL   H179 3325   1.293   0.875   2.121  1.3257 -1.9185  0.4348
   14MOL   H180 3326   1.292   0.849   2.292  1.1569  0.4531 -0.2735
   14MOL   H181 3327   1.157   0.947   2.221 -0.8237 -0.3090 -0.8446
   14MOL   C182 3328   1.183   0.387   2.173  0.1309 -0.6282  0.5571
   14MOL   C183 3329   1.276   0.443   2.062  0.4466 -0.8558  0.8721
   14MOL   O184 3330   1.356   0.333   2.040  0.1124  0.7148 -0.0220
   14MOL   C185 3331   1.490   0.331   2.075 -0.3056 -0.0701  0.4628
   14MOL   C186 3332   1.555   0.199   2.054 -0.0790 -0.6125 -0.2506
   14MOL   O187 3333   1.552   0.429   2.116  0.1925  0.3783 -0.0194
   14MOL   H188 3334   1.239   0.326   2.244 -0.1010  0.2024  1.4694
   14MOL   H189 3335   1.115   0.316   2.125 -0.6495 -1.1213  2.3588
   14MOL   H190 3336   1.342   0.522   2.097  1.7943 -0.5415 -2.2249
   14MOL   H191 3337   1.543   0.165   1.951  1.6441  1.3141 -1.1306
   14MOL   H192 3338   1.521   0.118   2.119  3.6044 -2.4723 -0.5084
   14MOL   H193 3339   1.663   0.203   2.068  0.2828 -1.1040 -2.6392
   14MOL   C194 3340   1.191   0.470   1.935  0.0266 -0.2900 -0.3315
   14MOL   C195 3341   1.261   0.561   1.831  0.5223 -0.1581  0.0566
   14MOL   O196 3342   1.163   0.566   1.728 -0.5534  0.1821  0.3345
   14MOL   C197 3343   1.187   0.544   1.593  0.5336  0.2749  0.2240
   14MOL   C198 3344   1.068   0.573   1.508  0.0633 -0.2184  0.6580
   14MOL   O199 3345   1.305   0.536   1.542 -0.0407  0.4526 -0.2282
   14MOL   H200 3346   1.190   0.373   1.886  2.1113 -0.0413 -0.9238
   14MOL   H201 3347   1.090   0.496   1.967 -0.7086 -3.6659  0.3001
   14MOL   H202 3348   1.347   0.506   1.791 -0.3752 -1.3739 -0.2184
   14MOL   H203 3349   0.984   0.603   1.570  1.0687 -0.0016  1.9422
   14MOL   H204 3350   1.052   0.483   1.448 -1.1463  0.8848 -0.7179
   14MOL   H205 3351   1.082   0.648   1.431 -2.7720 -2.7842 -2.5274
   14MOL   C206 3352   1.301   0.701   1.882  0.4620  0.0874 -0.3764
   14MOL   C207 3353   1.385   0.780   1.770 -0.1929  0.5153  0.3617
   14MOL   O208 3354   1.403   0.900   1.833  0.5346  0.3341 -0.6489
   14MOL   C209 3355   1.378   1.019   1.769 -0.9386  0.2661  0.5477
   14MOL   C210 3356   1.384   1.134   1.865 -0.5689  0.7083 -0.0968
   14MOL   O211 3357   1.368   1.037   1.644  0.1130  0.0551  0.1900
   14MOL   H212 3358   1.206   0.752   1.900  1.4544  1.5567  0.8254
   14MOL   H213 3359   1.358   0.699   1.974  0.7534  1.9488 -0.4855
   14MOL   H214 3360   1.331   0.780   1.675  0.6116  1.6142 -0.1001
   14MOL   H215 3361   1.283   1.165   1.892 -0.6371 -0.6784  1.3231
   14MOL   H216 3362   1.440   1.220   1.829 -1.4071  2.0099  1.5907
   14MOL   H217 3363   1.425   1.097   1.959 -1.6938  1.9572  0.9111
   14MOL   C218 3364   1.530   0.728   1.757  0.2125  0.1092 -0.0533
   14MOL   C219 3365   1.600   0.791   1.633  0.3079 -1.0325  0.0202
   14MOL   O220 3366   1.737   0.755   1.628  0.4797  1.0144 -0.5193
   14MOL   C221 3367   1.845   0.850   1.639  0.2870  0.5307  0.1917
   14MOL   C222 3368   1.982   0.784   1.625  0.6083  0.1934  0.2692
   14MOL   O223 3369   1.839   0.970   1.651 -0.2994 -0.1768  0.7270
   14MOL   H224 3370   1.586   0.746   1.849 -0.3485  0.6714  0.1838
   14MOL   H225 3371   1.521   0.621   1.734 -2.2284 -0.1235  1.8485
   14MOL   H226 3372   1.589   0.900   1.634 -1.4532 -1.1873  0.3381
   14MOL   H227 3373   1.980   0.676   1.615 -0.6848  0.1269  1.0662
   14MOL   H228 3374   2.047   0.797   1.712  1.3689  2.0444 -0.5345
   14MOL   H229 3375   2.030   0.815   1.533 -0.4815 -1.5186 -0.8967
   14MOL   C230 3376   1.542   0.749   1.499  0.2596  0.1029  0.0197
   14MOL   C231 3377   1.603   0.815   1.378 -0.3236  0.4320  0.2710
   14MOL   O232 3378   1.538   0.760   1.271  0.0594 -0.0753  0.5121
   14MOL   C233 3379   1.609   0.717   1.161  0.2774  0.6365 -0.5040
   14MOL   C234 3380   1.520   0.680   1.047 -0.1176 -0.2632  0.2953
   14MOL   O235 3381   1.728   0.709   1.148 -0.0588 -0.3081 -0.1383
   14MOL   H236 3382   1.537   0.640   1.490 -1.3580  0.1138  0.6584
   14MOL   H237 3383   1.435   0.762   1.487  0.3827  0.7683 -0.3561
   14MOL   H238 3384   1.710   0.793   1.372 -0.8061 -1.9184 -0.1867
   14MOL   H239 3385   1.564   0.720   0.956 -1.3073 -0.9406 -0.5985
   14MOL   H240 3386   1.424   0.730   1.064 -0.7961 -1.3965 -0.1356
   14MOL   H241 3387   1.513   0.571   1.045 -0.8424 -0.2338  0.7800
   14MOL   H242 3388   1.591   0.923   1.382  1.9991  0.6936  0.9689
   15MOL     C1 3389   5.825   4.049   2.523  0.5831  0.4139 -0.5411
   15MOL     C2 3390   5.758   3.972   2.412 -0.5258 -0.4012  0.1182
   15MOL     O3 3391   5.762   3.834   2.453 -0.0989  0.2631  0.1777
   15MOL     C4 3392   5.876   3.764   2.436 -0.2196 -0.0814 -0.5609
   15MOL     C5 3393   5.868   3.622   2.489  0.6829 -0.7731  0.0665
   15MOL     O6 3394   5.974   3.808   2.372  0.3000  0.0351 -0.4686
   15MOL     H7 3395   5.781   4.020   2.618 -0.1623  0.3959 -0.8945
   15MOL     H8 3396   5.806   4.155   2.511 -1.9869  0.2734  1.8705
   15MOL     H9 3397   5.812   3.991   2.319 -0.1153  0.8506  0.6069
   15MOL    H10 3398   5.950   3.567   2.443 -0.3305 -2.0169 -0.2851
   15MOL    H11 3399   5.776   3.564   2.482 -1.1692  2.1016  0.2505
   15MOL    H12 3400   5.909   3.618   2.590  0.7104 -2.9286  0.0033
   15MOL    H13 3401   5.932   4.031   2.537  0.4771  1.2644  1.4350
   15MOL    C14 3402   5.615   4.028   2.389  0.1623 -0.5082  0.4708
   15MOL    C15 3403   5.541   3.961   2.270 -0.2396 -0.0918  0.8083
   15MOL    O16 3404   5.418   4.033   2.279  0.0544  0.6344  0.6217
   15MOL    C17 3405   5.303   3.986   2.227 -0.7608  0.8052 -0.3166
   15MOL    C18 3406   5.205   4.098   2.206  0.4848 -0.1894  0.5932
   15MOL    O19 3407   5.276   3.867   2.201 -0.0057 -0.8077  0.0071
   15MOL    H20 3408   5.558   4.000   2.477  0.3448 -0.2055  0.6867
   15MOL    H21 3409   5.612   4.137   2.392  0.5259 -0.4580 -0.6671
   15MOL    H22 3410   5.536   3.854   2.287  0.6122 -0.2499  0.0653
   15MOL    H23 3411   5.166   4.129   2.303 -0.4315 -1.6872  0.7240
   15MOL    H24 3412   5.123   4.060   2.146 -0.4939  0.1037  1.7225
   15MOL    H25 3413   5.259   4.179   2.159 -0.7852 -1.7236 -3.7559
   15MOL    C26 3414   5.602   4.000   2.128 -0.3901  0.2103  0.2414
   15MOL    C27 3415   5.679   3.882   2.076 -0.3688 -0.0842 -0.1319
   15MOL    O28 3416   5.598   3.779   2.014 -0.8622  0.2326 -0.2203
   15MOL    C29 3417   5.570   3.658   2.071  0.2503 -0.3195  0.5037
   15MOL    C30 3418   5.484   3.566   1.991 -0.2440  0.5702  1.3021
   15MOL    O31 3419   5.611   3.627   2.184 -0.4791 -0.1530  0.2590
   15MOL    H32 3420   5.524   4.030   2.057 -0.7575  0.3442  0.6985
   15MOL    H33 3421   5.654   4.094   2.148 -1.5427  0.6312  1.3147
   15MOL    H34 3422   5.729   3.841   2.164  0.7641  0.1011 -0.6793
   15MOL    H35 3423   5.521   3.464   2.000 -2.1906 -0.4025 -1.1344
   15MOL    H36 3424   5.507   3.599   1.890 -2.6824 -0.7398  0.2689
   15MOL    H37 3425   5.379   3.565   2.021 -0.9859 -0.6353 -1.1838
   15MOL    C38 3426   5.788   3.906   1.975 -0.0020  0.4769 -0.4073
   15MOL    C39 3427   5.886   3.791   1.930 -0.1741 -0.0762 -0.2569
   15MOL    O40 3428   5.964   3.820   1.822  0.4369  0.7177  0.1533
   15MOL    C41 3429   6.062   3.911   1.828  0.7065  0.6184 -0.3794
   15MOL    C42 3430   6.142   3.919   1.699  0.3712 -0.1723 -0.7643
   15MOL    O43 3431   6.089   3.987   1.923  0.3932  0.4378  1.0443
   15MOL    H44 3432   5.739   3.953   1.890 -1.3876  1.0127  0.6820
   15MOL    H45 3433   5.852   3.981   2.022 -0.9054  1.2919 -0.4735
   15MOL    H46 3434   5.811   3.713   1.910 -1.0451 -0.3421  3.5860
   15MOL    H47 3435   6.210   3.834   1.709  1.0462  0.6807  2.5516
   15MOL    H48 3436   6.208   4.006   1.689  1.7014 -1.3154 -2.2975
   15MOL    H49 3437   6.079   3.911   1.610 -0.9946 -2.3138  0.3603
   15MOL    C50 3438   5.958   3.708   2.039  0.1615  0.1798  0.0484
   15MOL    C51 3439   6.025   3.569   1.995  0.1666 -0.4075  0.4768
   15MOL    O52 3440   6.161   3.597   1.946  0.0373  0.4229  0.1191
   15MOL    C53 3441   6.202   3.552   1.834 -0.9161  0.0829  0.0935
   15MOL    C54 3442   6.353   3.579   1.821 -0.0423  0.1296  0.0229
   15MOL    O55 3443   6.144   3.483   1.754  0.2513  0.1007 -0.3199
   15MOL    H56 3444   6.033   3.775   2.081  1.0395 -0.5802 -0.3018
   15MOL    H57 3445   5.882   3.689   2.114 -1.5819 -0.3548 -1.8171
   15MOL    H58 3446   5.953   3.526   1.925 -0.9661  2.0151  0.0766
   15MOL    H59 3447   6.402   3.486   1.794  1.3490  1.8088 -3.6362
   15MOL    H60 3448   6.404   3.627   1.904 -1.1321  1.1536  0.1114
   15MOL    H61 3449   6.364   3.639   1.730 -1.8857 -1.2392 -1.1341
   15MOL    C62 3450   6.033   3.482   2.120  0.2952 -0.1466 -0.6621
   15MOL    C63 3451   6.082   3.339   2.098  0.3523 -0.1412  0.3603
   15MOL    O64 3452   6.108   3.283   2.229 -0.8305 -0.1397  0.3149
   15MOL    C65 3453   6.232   3.268   2.274  0.3508 -0.3812  0.1476
   15MOL    C66 3454   6.241   3.207   2.415  0.3892  0.1795 -0.3345
   15MOL    O67 3455   6.338   3.316   2.230 -0.0773  0.3948  0.0841
   15MOL    H68 3456   6.100   3.523   2.195 -1.3656  0.4203  0.5384
   15MOL    H69 3457   5.938   3.472   2.172 -1.0490 -1.5329 -3.2920
   15MOL    H70 3458   6.172   3.338   2.037 -0.5271 -3.1548 -0.9614
   15MOL    H71 3459   6.148   3.165   2.454  0.5487  0.4538  0.3543
   15MOL    H72 3460   6.254   3.298   2.474  0.1485 -0.6420  1.0007
   15MOL    H73 3461   6.326   3.142   2.434 -0.5568 -1.6693 -2.1803
   15MOL    C74 3462   5.985   3.252   2.013 -0.1521  0.0447  0.3448
   15MOL    C75 3463   5.838   3.232   2.071 -0.5019 -0.4821 -0.1482
   15MOL    O76 3464   5.731   3.214   1.974  0.0686  0.4505  0.0862
   15MOL    C77 3465   5.702   3.302   1.879  0.3846  0.1101  0.5183
   15MOL    C78 3466   5.590   3.251   1.789 -0.4221 -0.0034  0.1632
   15MOL    O79 3467   5.745   3.412   1.862  0.2706  0.0435  0.0809
   15MOL    H80 3468   5.987   3.287   1.910  1.7795 -0.3555  0.2307
   15MOL    H81 3469   6.028   3.153   2.002 -1.8916 -0.9307  1.8495
   15MOL    H82 3470   5.807   3.317   2.132 -2.1824 -1.1702 -0.0064
   15MOL    H83 3471   5.525   3.335   1.764  0.1675  0.7131  1.0536
   15MOL    H84 3472   5.533   3.167   1.830  0.0239  0.3322  1.4880
   15MOL    H85 3473   5.637   3.218   1.696  1.7371 -0.4406  1.3971
   15MOL    C86 3474   5.827   3.116   2.172  0.1426  0.4663 -0.8173
   15MOL    C87 3475   5.732   3.130   2.291 -0.0168  0.0509 -0.3833
   15MOL    O88 3476   5.790   3.225   2.378 -0.1689  0.1812 -0.1782
   15MOL    C89 3477   5.851   3.176   2.496 -0.3287  0.0016  0.0339
   15MOL    C90 3478   5.907   3.287   2.588 -0.1936 -0.4581  0.3442
   15MOL    O91 3479   5.848   3.059   2.533 -0.5200 -0.3895  0.1978
   15MOL    H92 3480   5.817   3.022   2.118  3.3726  0.5478 -1.6978
   15MOL    H93 3481   5.924   3.101   2.220 -0.4387 -1.6704 -0.2725
   15MOL    H94 3482   5.731   3.037   2.347  1.0256  0.1564 -0.1826
   15MOL    H95 3483   6.006   3.328   2.569 -0.6145  0.2445 -0.3819
   15MOL    H96 3484   5.913   3.245   2.688 -0.9417 -1.2375  0.0691
   15MOL    H97 3485   5.836   3.369   2.577 -0.7946 -1.0550 -0.2589
   15MOL    C98 3486   5.594   3.174   2.278 -0.4064 -0.6855 -0.5255
   15MOL    C99 3487   5.484   3.062   2.277  0.4960 -0.4012  0.0844
   15MOL   O100 3488   5.351   3.113   2.296  0.0551 -0.0719  0.2932
   15MOL   C101 3489   5.302   3.105   2.423 -0.3065 -0.2549  0.0402
   15MOL   C102 3490   5.147   3.118   2.424  0.7961 -0.6914  0.2071
   15MOL   O103 3491   5.370   3.068   2.527  1.1062 -0.2250  0.8739
   15MOL   H104 3492   5.572   3.243   2.359 -1.0411 -2.4229  0.8173
   15MOL   H105 3493   5.572   3.237   2.192 -0.6374 -0.5601 -0.3747
   15MOL   H106 3494   5.509   2.989   2.354  1.9938  0.2448  0.2351
   15MOL   H107 3495   5.119   3.180   2.338 -0.7992 -0.9618  0.5157
   15MOL   H108 3496   5.114   3.159   2.519  0.8489 -0.3207  0.0674
   15MOL   H109 3497   5.096   3.022   2.421  2.3025 -1.4875 -0.6766
   15MOL   C110 3498   5.481   2.977   2.142  0.3311  0.0135 -0.5203
   15MOL   C111 3499   5.425   2.837   2.161 -1.0689  0.4183 -0.7871
   15MOL   O112 3500   5.281   2.840   2.160 -0.3111  0.4693  0.4947
   15MOL   C113 3501   5.207   2.756   2.227 -0.0339 -0.2787 -0.0752
   15MOL   C114 3502   5.058   2.787   2.227  0.0075  0.2139 -0.3401
   15MOL   O115 3503   5.248   2.655   2.278 -0.1197  0.0983 -0.3009
   15MOL   H116 3504   5.428   3.030   2.063  0.7907 -1.0326 -1.5532
   15MOL   H117 3505   5.581   2.966   2.100  0.0821 -1.2283 -0.8053
   15MOL   H118 3506   5.463   2.801   2.256  2.5971  1.8804 -1.6325
   15MOL   H119 3507   5.033   2.868   2.158  2.4399 -1.0107 -2.7525
   15MOL   H120 3508   5.035   2.806   2.332 -0.1574  2.4885 -0.7766
   15MOL   H121 3509   4.992   2.704   2.200 -0.1730 -0.1809  1.2668
   15MOL   C122 3510   5.464   2.730   2.060  0.0820  0.0520 -0.4292
   15MOL   C123 3511   5.608   2.667   2.072 -0.5668 -1.1583  0.7132
   15MOL   O124 3512   5.624   2.599   2.199 -0.2551  0.2983 -0.3650
   15MOL   C125 3513   5.688   2.668   2.303  0.5194  0.1268  0.6313
   15MOL   C126 3514   5.688   2.575   2.423 -0.1303 -0.7150 -0.0795
   15MOL   O127 3515   5.735   2.784   2.299 -0.4218 -0.0935  0.0812
   15MOL   H128 3516   5.394   2.647   2.057  0.4760 -0.2938 -0.0352
   15MOL   H129 3517   5.439   2.773   1.963  1.7740  0.7988 -0.5576
   15MOL   H130 3518   5.687   2.742   2.064  0.0863 -2.0292 -1.6081
   15MOL   H131 3519   5.603   2.586   2.490  0.2007  0.5522  0.1450
   15MOL   H132 3520   5.771   2.607   2.485 -0.4757  1.3294 -0.6322
   15MOL   H133 3521   5.705   2.472   2.392  1.9021 -0.4062 -0.0681
   15MOL   C134 3522   5.636   2.562   1.967 -0.4993 -0.4509 -0.0400
   15MOL   C135 3523   5.786   2.549   1.940  0.4007 -0.0939  0.1248
   15MOL   O136 3524   5.835   2.437   2.024  0.1613  0.2596  0.0400
   15MOL   C137 3525   5.961   2.437   2.063 -0.7979 -0.1898 -0.3443
   15MOL   C138 3526   6.002   2.323   2.149  0.6027  0.9853  0.3271
   15MOL   O139 3527   6.038   2.528   2.046 -0.0038  0.1711 -0.9601
   15MOL   H140 3528   5.591   2.465   1.991  3.6391 -2.6600 -0.8456
   15MOL   H141 3529   5.587   2.596   1.876  2.3652  0.5498 -1.2599
   15MOL   H142 3530   5.838   2.638   1.974 -0.3460  1.4074 -2.4823
   15MOL   H143 3531   6.059   2.356   2.236  0.7792  0.1590  0.5222
   15MOL   H144 3532   6.054   2.244   2.095  0.7130  0.3024  1.4037
   15MOL   H145 3533   5.920   2.269   2.196  0.2985  1.8784  0.8537
   15MOL   C146 3534   5.816   2.524   1.791  0.2890 -0.0275  0.5756
   15MOL   C147 3535   5.795   2.634   1.694  0.1415 -0.2238  0.4743
   15MOL   O148 3536   5.870   2.747   1.734 -0.2972 -0.0319  0.6528
   15MOL   C149 3537   5.821   2.847   1.806 -0.4019  0.3559 -0.4749
   15MOL   C150 3538   5.930   2.941   1.855  0.1264 -0.0593 -0.3079
   15MOL   O151 3539   5.708   2.845   1.859  0.2177 -0.1702 -0.4712
   15MOL   H152 3540   5.921   2.499   1.779  0.0553  0.0340 -1.8298
   15MOL   H153 3541   5.768   2.433   1.754  0.5712 -0.4882  1.3435
   15MOL   H154 3542   5.689   2.659   1.697  1.0288  4.2439 -1.4694
   15MOL   H155 3543   5.887   3.038   1.831  0.2271  0.6028  2.1077
   15MOL   H156 3544   6.024   2.930   1.800  0.0270  0.9985 -0.7062
   15MOL   H157 3545   5.947   2.924   1.961 -0.5490 -1.3659 -0.4039
   15MOL   C158 3546   5.826   2.597   1.549  0.4149  0.5878  0.6402
   15MOL   C159 3547   5.739   2.674   1.439 -0.2875  0.1533  0.2927
   15MOL   O160 3548   5.597   2.655   1.447  0.2612  0.0369 -0.2789
   15MOL   C161 3549   5.520   2.632   1.335  0.2234 -0.7490 -0.3303
   15MOL   C162 3550   5.370   2.634   1.381 -0.1817 -0.3326  0.1992
   15MOL   O163 3551   5.558   2.614   1.220 -0.3875  0.1195 -0.1984
   15MOL   H164 3552   5.933   2.617   1.545  0.5135  0.1931  1.1659
   15MOL   H165 3553   5.798   2.493   1.531  1.0140  0.9859 -2.8771
   15MOL   H166 3554   5.762   2.637   1.339  0.3923 -1.5226  1.0471
   15MOL   H167 3555   5.336   2.535   1.411  0.0198  0.4389  3.1135
   15MOL   H168 3556   5.305   2.673   1.302 -0.4978  0.9221  1.0727
   15MOL   H169 3557   5.369   2.690   1.474 -0.6843 -0.5265  0.3121
   15MOL   C170 3558   5.766   2.827   1.448  0.0607 -0.5747  0.2690
   15MOL   C171 3559   5.727   2.915   1.327 -0.1952 -0.4609 -0.7878
   15MOL   O172 3560   5.583   2.934   1.315 -0.0645  0.5329 -0.1026
   15MOL   C173 3561   5.498   2.985   1.404 -0.6396 -0.4441 -0.5855
   15MOL   C174 3562   5.354   2.994   1.361  0.7595  0.4033 -0.4754
   15MOL   O175 3563   5.524   3.043   1.509  0.0075  0.6705  0.4587
   15MOL   H176 3564   5.717   2.871   1.535 -1.6791 -1.1045 -0.4336
   15MOL   H177 3565   5.872   2.850   1.463  0.8464 -2.7345 -1.6879
   15MOL   H178 3566   5.761   2.869   1.234  0.0894  2.3360 -2.1176
   15MOL   H179 3567   5.313   3.081   1.410  1.3225  1.3885 -1.7323
   15MOL   H180 3568   5.297   2.910   1.401  1.2070  0.8047  1.0241
   15MOL   H181 3569   5.342   2.995   1.252  1.3719 -1.5170 -0.5949
   15MOL   C182 3570   5.785   3.056   1.317  0.0743 -0.4747 -1.1008
   15MOL   C183 3571   5.935   3.061   1.279 -0.1959 -0.1966  0.3340
   15MOL   O184 3572   5.948   2.986   1.158  0.0163 -0.3336  0.1487
   15MOL   C185 3573   6.062   2.912   1.142 -0.2960  0.4409 -0.0674
   15MOL   C186 3574   6.072   2.839   1.012 -0.2936  0.7013 -0.3734
   15MOL   O187 3575   6.148   2.903   1.228  0.0358  1.3855 -0.0523
   15MOL   H188 3576   5.733   3.120   1.246 -0.5809 -0.4082 -0.5673
   15MOL   H189 3577   5.768   3.100   1.415  0.2213 -2.6677 -0.0612
   15MOL   H190 3578   5.995   3.022   1.361  0.9120 -0.7742 -0.7317
   15MOL   H191 3579   6.065   2.915   0.934  1.7157  0.5050 -0.7854
   15MOL   H192 3580   5.993   2.765   1.005 -1.1951  1.6952 -0.9990
   15MOL   H193 3581   6.167   2.789   0.992  0.8223  2.6661 -0.1478
   15MOL   C194 3582   5.970   3.206   1.253  0.1045 -1.0083  0.4527
   15MOL   C195 3583   5.975   3.303   1.374  0.1370 -0.7008  0.0180
   15MOL   O196 3584   6.084   3.261   1.451 -0.2310 -0.3374  0.5773
   15MOL   C197 3585   6.057   3.212   1.572 -0.7645 -0.7336  0.6066
   15MOL   C198 3586   6.184   3.154   1.643 -0.1944  1.1762  0.5533
   15MOL   O199 3587   5.950   3.183   1.613  0.5825  0.5706 -0.0595
   15MOL   H200 3588   6.071   3.207   1.211  0.0301  2.4331  0.2255
   15MOL   H201 3589   5.911   3.249   1.172  2.5729  1.8197  0.0837
   15MOL   H202 3590   5.884   3.313   1.432 -0.3016  1.1025 -0.9477
   15MOL   H203 3591   6.267   3.143   1.573  0.9844 -1.1107  2.3019
   15MOL   H204 3592   6.159   3.063   1.697  0.2181  1.7709  1.7648
   15MOL   H205 3593   6.211   3.225   1.721  0.6384  1.3042  0.1596
   15MOL   C206 3594   6.003   3.450   1.326 -0.7240  0.1526 -0.0399
   15MOL   C207 3595   6.027   3.542   1.440  0.5565  0.1143  0.5476
   15MOL   O208 3596   6.063   3.675   1.379  0.0848 -0.1799  0.5092
   15MOL   C209 3597   6.190   3.718   1.357 -0.2346 -0.3237  0.2716
   15MOL   C210 3598   6.201   3.862   1.301  0.1222  0.4313 -0.1083
   15MOL   O211 3599   6.284   3.643   1.377 -0.3344  0.2295  0.7045
   15MOL   H212 3600   6.092   3.453   1.264 -0.2104 -0.1926  0.6872
   15MOL   H213 3601   5.934   3.480   1.246  2.3245  3.9812 -1.3504
   15MOL   H214 3602   6.112   3.505   1.497  0.4780  0.0052  0.5923
   15MOL   H215 3603   6.267   3.873   1.215  0.7958 -2.8993 -0.1031
   15MOL   H216 3604   6.243   3.925   1.379  1.2806 -2.2274  1.5240
   15MOL   H217 3605   6.101   3.897   1.274  0.5635  2.5751  0.9660
   15MOL   C218 3606   5.905   3.553   1.534 -0.5147  0.4866  0.2214
   15MOL   C219 3607   5.778   3.612   1.465 -0.0810 -0.0940  0.3595
   15MOL   O220 3608   5.687   3.504   1.442  0.1301 -0.0247 -0.3191
   15MOL   C221 3609   5.619   3.498   1.323  0.4176 -0.2970  0.1089
   15MOL   C222 3610   5.527   3.382   1.320  0.2585  0.1201 -0.5480
   15MOL   O223 3611   5.641   3.566   1.224 -0.6214 -0.0881 -0.4381
   15MOL   H224 3612   5.889   3.456   1.580  0.6591 -0.2837 -0.9592
   15MOL   H225 3613   5.936   3.609   1.622  0.1216  0.9825 -0.3162
   15MOL   H226 3614   5.809   3.655   1.370  1.9533  0.5957  1.3210
   15MOL   H227 3615   5.575   3.293   1.362 -1.4414  0.2961  1.9096
   15MOL   H228 3616   5.505   3.357   1.216 -0.1995 -0.1925 -0.3801
   15MOL   H229 3617   5.427   3.395   1.362  1.2037 -0.5332  2.0115
   15MOL   C230 3618   5.701   3.726   1.544  0.5574 -0.1863  0.3982
   15MOL   C231 3619   5.785   3.847   1.536  0.0994  0.2049 -0.1108
   15MOL   O232 3620   5.759   3.931   1.417 -0.1811  0.2139 -0.3109
   15MOL   C233 3621   5.840   4.031   1.375  0.0438  0.0852 -0.2251
   15MOL   C234 3622   5.774   4.127   1.277  1.2062  0.7576  0.4381
   15MOL   O235 3623   5.963   4.046   1.409 -0.3661 -0.1513 -0.3288
   15MOL   H236 3624   5.598   3.745   1.515 -0.3298 -1.8576  2.3236
   15MOL   H237 3625   5.692   3.702   1.650 -0.6336  0.5462  0.4645
   15MOL   H238 3626   5.888   3.810   1.533 -0.5716 -1.8544  1.2134
   15MOL   H239 3627   5.754   4.226   1.320 -0.3086  1.3780 -1.6298
   15MOL   H240 3628   5.681   4.083   1.241  2.5775 -1.3727 -0.5861
   15MOL   H241 3629   5.846   4.136   1.195 -0.0878  2.2379 -0.5772
   15MOL   H242 3630   5.783   3.912   1.623 -1.6821 -0.5483  0.4311
   16MOL     C1 3631   3.274   1.016   2.601 -0.1282 -0.5765 -0.2969
   16MOL     C2 3632   3.235   0.878   2.649  0.3778  0.0244  0.1041
   16MOL     O3 3633   3.096   0.848   2.626  0.2452 -0.2275 -0.5419
   16MOL     C4 3634   3.012   0.807   2.715 -0.2403 -0.9434  0.2661
   16MOL     C5 3635   2.872   0.787   2.653  1.1978 -0.1268 -0.5927
   16MOL     O6 3636   3.032   0.790   2.838  0.0680 -0.4314 -0.4060
   16MOL     H7 3637   3.372   1.048   2.635 -0.2440 -1.3596  0.8069
   16MOL     H8 3638   3.200   1.083   2.644 -0.4301  0.6230 -2.5915
   16MOL     H9 3639   3.275   0.858   2.748  1.1569  0.4954 -0.1150
   16MOL    H10 3640   2.802   0.726   2.709  0.5654  0.6730 -0.4971
   16MOL    H11 3641   2.877   0.735   2.558  0.3408 -0.1750 -0.6169
   16MOL    H12 3642   2.819   0.882   2.645 -1.5431 -1.4855  0.7626
   16MOL    H13 3643   3.252   1.023   2.494 -0.5105  0.4941 -0.1519
   16MOL    C14 3644   3.316   0.774   2.564  0.7892  0.7388  0.0613
   16MOL    C15 3645   3.465   0.749   2.593 -0.5058  0.7851  0.5334
   16MOL    O16 3646   3.480   0.665   2.710 -0.1415  0.1830 -0.5160
   16MOL    C17 3647   3.507   0.727   2.826  0.0753 -0.1681 -0.4383
   16MOL    C18 3648   3.490   0.632   2.945 -0.6483  0.4187 -0.2216
   16MOL    O19 3649   3.531   0.844   2.845  0.2731  0.3813 -0.0506
   16MOL    H20 3650   3.264   0.679   2.557 -1.1466  1.8161 -0.5540
   16MOL    H21 3651   3.308   0.810   2.461 -0.8372 -1.1214 -0.4936
   16MOL    H22 3652   3.521   0.842   2.605  0.0107  1.2527 -4.4544
   16MOL    H23 3653   3.546   0.668   3.032 -0.6603 -0.6115  0.2155
   16MOL    H24 3654   3.524   0.530   2.927 -1.3750 -0.1784  1.6582
   16MOL    H25 3655   3.387   0.618   2.975 -0.0542  0.9359  2.1559
   16MOL    C26 3656   3.517   0.656   2.475  0.2653 -0.2300 -0.6692
   16MOL    C27 3657   3.517   0.711   2.325  0.5756  0.4025  0.4429
   16MOL    O28 3658   3.606   0.824   2.331 -0.4651  0.4927  0.3541
   16MOL    C29 3659   3.568   0.939   2.273 -0.4115 -0.4067  0.1784
   16MOL    C30 3660   3.678   1.054   2.284  0.3634  0.5059 -0.0215
   16MOL    O31 3661   3.462   0.954   2.215 -0.4631 -0.2295  0.4315
   16MOL    H32 3662   3.612   0.606   2.494  0.1521 -0.1104  0.1996
   16MOL    H33 3663   3.451   0.568   2.477 -0.0314  0.0123  0.4366
   16MOL    H34 3664   3.416   0.745   2.303 -1.0506 -0.3172  6.0173
   16MOL    H35 3665   3.665   1.092   2.385  0.9942 -0.9681  0.6268
   16MOL    H36 3666   3.646   1.135   2.219  2.0565  1.1911 -0.0261
   16MOL    H37 3667   3.777   1.017   2.260 -0.8345 -1.4415 -2.1615
   16MOL    C38 3668   3.589   0.615   2.225  1.1115  0.0682  0.5167
   16MOL    C39 3669   3.510   0.486   2.186 -0.1221  0.2338 -0.2809
   16MOL    O40 3670   3.415   0.508   2.087  0.4746  0.1240  0.7556
   16MOL    C41 3671   3.298   0.553   2.127  0.1599 -0.4728  0.3730
   16MOL    C42 3672   3.204   0.551   2.014  0.0942  0.8590 -0.3628
   16MOL    O43 3673   3.268   0.590   2.241 -0.0170 -0.5846 -0.6094
   16MOL    H44 3674   3.613   0.667   2.133 -0.9924  0.9674  0.4611
   16MOL    H45 3675   3.685   0.596   2.274  1.0124 -0.9778  0.3120
   16MOL    H46 3676   3.457   0.438   2.268  0.8890 -0.5475 -0.0724
   16MOL    H47 3677   3.106   0.576   2.053  0.1861  0.0390  0.4180
   16MOL    H48 3678   3.184   0.447   1.988  1.9921  0.6240 -0.9994
   16MOL    H49 3679   3.214   0.609   1.923  2.8620  1.8349  0.4973
   16MOL    C50 3680   3.614   0.384   2.138 -0.1051 -0.4867 -0.6401
   16MOL    C51 3681   3.561   0.244   2.086  0.0711 -0.3585  0.4408
   16MOL    O52 3682   3.512   0.265   1.957  0.1718 -0.4045  0.0175
   16MOL    C53 3683   3.379   0.238   1.928 -0.1741 -0.0031 -0.3475
   16MOL    C54 3684   3.346   0.264   1.779 -0.0727  0.0702  0.7845
   16MOL    O55 3685   3.291   0.214   2.004 -0.7285 -0.4051  0.7187
   16MOL    H56 3686   3.662   0.439   2.057 -0.5234 -0.2979 -0.7602
   16MOL    H57 3687   3.679   0.366   2.223  1.4513  2.1183 -1.2241
   16MOL    H58 3688   3.490   0.199   2.155  1.2034 -1.6659  0.7779
   16MOL    H59 3689   3.418   0.215   1.713 -1.9508 -1.6230 -0.0577
   16MOL    H60 3690   3.346   0.370   1.756  2.9849 -0.1493 -0.5044
   16MOL    H61 3691   3.245   0.232   1.754 -0.6086  1.3831  1.2144
   16MOL    C62 3692   3.681   0.149   2.073 -0.2823 -0.5671 -0.0635
   16MOL    C63 3693   3.645   0.005   2.042  0.0229 -0.0856 -0.3871
   16MOL    O64 3694   3.606   7.990   1.907  0.2146  0.4325  0.0496
   16MOL    C65 3695   3.479   7.955   1.876  0.1766 -0.0462 -0.7665
   16MOL    C66 3696   3.440   7.957   1.722 -0.7951 -0.1325  0.6790
   16MOL    O67 3697   3.393   7.919   1.959 -0.6141  0.1240  0.0948
   16MOL    H68 3698   3.745   0.180   1.990  1.1201 -3.6054 -0.1898
   16MOL    H69 3699   3.736   0.149   2.167 -2.5604  0.3616  1.2871
   16MOL    H70 3700   3.563   8.001   2.110 -0.4757 -2.4050 -1.8021
   16MOL    H71 3701   3.337   7.939   1.692 -1.1646 -0.0384  1.8497
   16MOL    H72 3702   3.489   7.874   1.670 -0.8124  1.3362 -1.7458
   16MOL    H73 3703   3.476   0.023   1.668  1.2303 -3.1776 -3.1404
   16MOL    C74 3704   3.771   7.937   2.081  0.2890 -0.4337  0.3649
   16MOL    C75 3705   3.763   7.784   2.064  0.0832 -0.4309  0.4972
   16MOL    O76 3706   3.885   7.720   2.103 -0.1675  0.1171 -0.2895
   16MOL    C77 3707   3.997   7.737   2.024  0.2762 -0.4660  0.2294
   16MOL    C78 3708   4.130   7.707   2.100  0.0888 -0.0676 -0.4026
   16MOL    O79 3709   4.002   7.787   1.906  0.2193 -0.1131  0.2075
   16MOL    H80 3710   3.852   7.982   2.023  2.0426 -0.0770  3.0324
   16MOL    H81 3711   3.801   7.961   2.183 -0.3636  1.5997  0.1185
   16MOL    H82 3712   3.751   7.760   1.958 -0.5621  3.3851 -0.3565
   16MOL    H83 3713   4.113   7.734   2.204 -1.7258 -2.4359 -0.0316
   16MOL    H84 3714   4.222   7.754   2.064 -0.3445  1.0308 -0.1063
   16MOL    H85 3715   4.146   7.600   2.089  0.6491  0.2872 -3.6493
   16MOL    C86 3716   3.643   7.722   2.133  0.1151 -0.4703 -0.2574
   16MOL    C87 3717   3.646   7.722   2.290  0.1704 -0.4321  1.0010
   16MOL    O88 3718   3.538   7.795   2.340 -1.2398  0.4062  0.1728
   16MOL    C89 3719   3.543   7.925   2.386 -0.8030 -0.0821 -0.8928
   16MOL    C90 3720   3.411   7.977   2.421 -0.0763  0.6476 -0.0625
   16MOL    O91 3721   3.649   7.989   2.399 -0.5076  0.3188 -0.2894
   16MOL    H92 3722   3.547   7.762   2.101  0.0575 -1.1032 -0.9048
   16MOL    H93 3723   3.636   7.621   2.092 -2.0024  0.1031 -1.3927
   16MOL    H94 3724   3.739   7.765   2.324 -0.5812  0.2294  2.2523
   16MOL    H95 3725   3.347   7.979   2.333 -1.9253 -2.0751  1.1454
   16MOL    H96 3726   3.425   0.060   2.445 -2.3335  0.9172  0.2091
   16MOL    H97 3727   3.371   7.924   2.508  0.3573  0.1255 -0.1799
   16MOL    C98 3728   3.631   7.584   2.346 -0.7680  0.0454  0.3940
   16MOL    C99 3729   3.689   7.564   2.485  0.9910 -0.0133 -0.4133
   16MOL   O100 3730   3.621   7.656   2.571 -0.0697 -0.0372  0.3368
   16MOL   C101 3731   3.664   7.683   2.690  0.2997 -0.3149  0.4247
   16MOL   C102 3732   3.582   7.793   2.755  0.4461  0.1565 -0.2678
   16MOL   O103 3733   3.741   7.618   2.757  0.3096  0.2405 -0.4357
   16MOL   H104 3734   3.530   7.550   2.323 -0.8527  2.0170 -2.4809
   16MOL   H105 3735   3.687   7.521   2.277 -2.0974 -0.3380 -0.3625
   16MOL   H106 3736   3.795   7.589   2.478  0.6346  1.3883 -1.1140
   16MOL   H107 3737   3.616   7.892   2.724  1.9197  0.2098  1.4776
   16MOL   H108 3738   3.590   7.781   2.863  1.2648  2.2724 -0.0718
   16MOL   H109 3739   3.481   7.761   2.729  0.8031 -1.7088  0.6224
   16MOL   C110 3740   3.677   7.414   2.518 -0.5255  0.6770  0.0404
   16MOL   C111 3741   3.741   7.311   2.423 -0.2925 -0.0278  0.2513
   16MOL   O112 3742   3.881   7.353   2.412  0.2077 -0.3469 -0.3331
   16MOL   C113 3743   3.943   7.334   2.288 -0.3157 -0.2850  0.9588
   16MOL   C114 3744   4.089   7.350   2.289  0.5466 -0.5255 -0.8770
   16MOL   O115 3745   3.888   7.312   2.182  0.0962 -0.4352  0.6996
   16MOL   H116 3746   3.723   7.411   2.617 -3.7827 -0.2128  1.6126
   16MOL   H117 3747   3.574   7.392   2.547 -1.0919 -0.5674 -2.7597
   16MOL   H118 3748   3.697   7.313   2.323  1.1287  0.6383 -0.3901
   16MOL   H119 3749   4.133   7.389   2.198  0.7806  0.2826 -0.4298
   16MOL   H120 3750   4.131   7.250   2.300  1.1222 -0.2042  0.0087
   16MOL   H121 3751   4.125   7.401   2.379 -0.9484  1.0500 -1.1459
   16MOL   C122 3752   3.751   7.170   2.477 -0.5921  1.1676 -0.3238
   16MOL   C123 3753   3.613   7.094   2.456  0.9539 -0.0076  0.0725
   16MOL   O124 3754   3.572   7.073   2.320  0.1519 -0.1332 -0.0902
   16MOL   C125 3755   3.649   7.010   2.232  0.5976 -0.0893 -0.7065
   16MOL   C126 3756   3.571   6.956   2.109  0.1452 -0.2254  0.0299
   16MOL   O127 3757   3.766   6.994   2.238 -0.0524 -0.0830 -0.4833
   16MOL   H128 3758   3.841   7.128   2.431  0.3095  1.6727  0.9234
   16MOL   H129 3759   3.780   7.170   2.582  0.5535 -0.3922 -0.6130
   16MOL   H130 3760   3.542   7.151   2.517  0.0119 -0.0377 -0.9917
   16MOL   H131 3761   3.609   6.862   2.069 -0.8948 -0.8763  0.5820
   16MOL   H132 3762   3.569   7.041   2.041  1.2743  1.6410  2.2450
   16MOL   H133 3763   3.468   6.937   2.139 -0.0743  0.4906 -0.2630
   16MOL   C134 3764   3.609   6.968   2.536  0.4460  0.5081 -0.2740
   16MOL   C135 3765   3.460   6.926   2.580 -0.2664  0.3187  0.2942
   16MOL   O136 3766   3.393   6.883   2.463 -0.3368 -0.6068  0.0667
   16MOL   C137 3767   3.266   6.907   2.442 -0.0876 -0.0838  0.2241
   16MOL   C138 3768   3.224   6.842   2.309 -0.7975  0.3471  0.5921
   16MOL   O139 3769   3.180   6.952   2.515  0.4059 -0.1454  0.1689
   16MOL   H140 3770   3.664   6.882   2.500 -0.1673 -0.1729  0.3947
   16MOL   H141 3771   3.660   6.997   2.628 -0.9137  2.3255 -0.0521
   16MOL   H142 3772   3.405   7.012   2.616 -0.1693  0.5742 -0.1563
   16MOL   H143 3773   3.310   6.781   2.280 -2.1738 -2.1138  1.5805
   16MOL   H144 3774   3.188   6.911   2.232  2.0832  0.5695 -0.6187
   16MOL   H145 3775   3.150   6.764   2.326 -0.4093  0.4592  2.8892
   16MOL   C146 3776   3.458   6.811   2.691  0.3965  0.8368 -0.1395
   16MOL   C147 3777   3.537   6.676   2.656  0.2494 -0.1827  0.4289
   16MOL   O148 3778   3.598   6.619   2.773 -0.1851 -0.1960 -0.6537
   16MOL   C149 3779   3.709   6.663   2.836 -0.3912 -0.1754 -0.1987
   16MOL   C150 3780   3.776   6.550   2.916 -0.3593 -0.3086 -0.2079
   16MOL   O151 3781   3.766   6.768   2.820 -0.1786 -0.1532 -0.2490
   16MOL   H152 3782   3.492   6.858   2.784 -2.5690  0.2150  1.3049
   16MOL   H153 3783   3.353   6.787   2.702  0.6391  0.3906  1.3361
   16MOL   H154 3784   3.619   6.693   2.586 -1.4586  2.1985 -1.0989
   16MOL   H155 3785   3.817   6.591   3.009 -0.8772  0.9874 -0.5334
   16MOL   H156 3786   3.849   6.507   2.848  2.7806  0.6710  2.3880
   16MOL   H157 3787   3.701   6.475   2.941 -0.7482  0.3117  0.5227
   16MOL   C158 3788   3.459   6.566   2.592  0.6421 -0.2605  0.3090
   16MOL   C159 3789   3.534   6.470   2.509 -0.3246 -0.1808  0.4768
   16MOL   O160 3790   3.609   6.385   2.596  0.0248  0.0862 -0.3834
   16MOL   C161 3791   3.744   6.374   2.589  0.1073  0.4498 -0.1137
   16MOL   C162 3792   3.790   6.265   2.691 -0.0552 -0.3092 -0.4351
   16MOL   O163 3793   3.826   6.452   2.542  0.4505  0.0332  0.0346
   16MOL   H164 3794   3.395   6.518   2.666 -1.8975  1.6888 -0.5713
   16MOL   H165 3795   3.384   6.618   2.533  0.5355  1.7944  2.1831
   16MOL   H166 3796   3.612   6.523   2.455 -1.3802 -0.1913 -1.0995
   16MOL   H167 3797   3.892   6.280   2.726 -0.4067 -0.1532  0.5196
   16MOL   H168 3798   3.791   6.159   2.662  0.8920 -1.1320  2.4709
   16MOL   H169 3799   3.731   6.270   2.782 -1.4256  2.5685 -1.4304
   16MOL   C170 3800   3.458   6.390   2.404  1.1529 -0.2725  0.1368
   16MOL   C171 3801   3.414   6.472   2.277 -0.1813  0.1961  0.0665
   16MOL   O172 3802   3.536   6.483   2.198 -0.4438 -0.4354  0.4500
   16MOL   C173 3803   3.622   6.587   2.210  0.2916  0.3222  0.3464
   16MOL   C174 3804   3.739   6.582   2.110  0.3717  0.2725 -0.0608
   16MOL   O175 3805   3.598   6.681   2.282  0.2981  0.2696 -0.3790
   16MOL   H176 3806   3.518   6.302   2.381  1.5446  0.0236  0.0331
   16MOL   H177 3807   3.364   6.359   2.451 -0.4997  1.2651 -2.0267
   16MOL   H178 3808   3.379   6.568   2.315 -0.3687  0.6702 -1.2822
   16MOL   H179 3809   3.749   6.677   2.058 -1.7838  0.9570  0.6989
   16MOL   H180 3810   3.715   6.502   2.040 -2.8146 -0.5787  1.8931
   16MOL   H181 3811   3.833   6.555   2.159 -0.2652  0.9935  1.5889
   16MOL   C182 3812   3.293   6.403   2.197 -0.8920 -0.2677 -0.4947
   16MOL   C183 3813   3.223   6.487   2.086 -0.0877  0.5697 -0.1804
   16MOL   O184 3814   3.323   6.522   1.989 -0.0943  0.3664 -0.6398
   16MOL   C185 3815   3.311   6.654   1.940  0.3542  0.7133  0.1186
   16MOL   C186 3816   3.434   6.694   1.853  0.1188  0.0892 -0.2639
   16MOL   O187 3817   3.230   6.742   1.970 -0.3103  0.3395  0.6015
   16MOL   H188 3818   3.337   6.315   2.151  0.1128  0.4838 -1.0132
   16MOL   H189 3819   3.220   6.371   2.270  0.4766 -1.2960  0.4294
   16MOL   H190 3820   3.173   6.571   2.134  0.1265  2.0402 -2.4355
   16MOL   H191 3821   3.429   6.626   1.768  1.4801 -1.7468  1.0887
   16MOL   H192 3822   3.529   6.677   1.902  0.9083 -1.0460 -2.1145
   16MOL   H193 3823   3.446   6.797   1.819  1.4367  0.4142  1.1353
   16MOL   C194 3824   3.119   6.395   2.022  0.7587  0.6479 -0.6570
   16MOL   C195 3825   3.016   6.483   1.943 -0.6485  0.5280  0.1153
   16MOL   O196 3826   2.961   6.398   1.841 -0.0975  0.5558 -0.1891
   16MOL   C197 3827   2.996   6.419   1.711 -0.5208  1.1105  0.3850
   16MOL   C198 3828   2.938   6.302   1.624  0.2701 -0.1742 -0.3225
   16MOL   O199 3829   3.059   6.511   1.661  0.0676  0.0956 -0.9628
   16MOL   H200 3830   3.168   6.323   1.957 -1.0846  0.7986 -2.2650
   16MOL   H201 3831   3.062   6.340   2.097  1.1051 -0.2371 -1.0399
   16MOL   H202 3832   3.068   6.566   1.895  2.4027 -0.3644  1.7724
   16MOL   H203 3833   3.017   6.227   1.630 -0.5841 -0.9083  4.8967
   16MOL   H204 3834   2.918   6.342   1.525  0.5680  1.1902  0.1597
   16MOL   H205 3835   2.850   6.259   1.672 -0.1152 -0.1774 -1.0262
   16MOL   C206 3836   2.899   6.528   2.028 -0.1579 -0.5862 -0.0720
   16MOL   C207 3837   2.788   6.604   1.952 -0.0809 -0.6217 -1.0976
   16MOL   O208 3838   2.693   6.664   2.043  0.3456 -0.7390 -0.6183
   16MOL   C209 3839   2.584   6.605   2.087 -0.5645 -0.1382  0.6357
   16MOL   C210 3840   2.508   6.689   2.184  0.6380 -0.0417 -0.7111
   16MOL   O211 3841   2.550   6.495   2.048 -0.0513 -0.3311  0.1266
   16MOL   H212 3842   2.848   6.454   2.089 -1.8489  1.9306  1.6783
   16MOL   H213 3843   2.943   6.605   2.093 -3.5599  2.6019 -1.3849
   16MOL   H214 3844   2.724   6.537   1.895 -1.8818 -0.6851  0.9419
   16MOL   H215 3845   2.570   6.738   2.259 -1.9043  0.1701  1.3338
   16MOL   H216 3846   2.447   6.628   2.252  1.0951 -0.5918 -0.7937
   16MOL   H217 3847   2.448   6.760   2.126 -1.2224 -2.4307 -1.8035
   16MOL   C218 3848   2.839   6.714   1.858 -0.1295 -0.0194 -0.3922
   16MOL   C219 3849   2.733   6.796   1.779 -0.0348  0.5414  0.3898
   16MOL   O220 3850   2.665   6.893   1.861  1.2847 -0.4242  0.2701
   16MOL   C221 3851   2.531   6.908   1.853  0.2251 -0.2994  0.1129
   16MOL   C222 3852   2.484   7.036   1.923 -0.3608 -0.1067 -0.5038
   16MOL   O223 3853   2.450   6.834   1.797 -0.2481  0.0076 -0.6580
   16MOL   H224 3854   2.904   6.772   1.924 -2.5497  0.2097  1.8675
   16MOL   H225 3855   2.906   6.664   1.788 -1.1727 -0.9468 -0.7473
   16MOL   H226 3856   2.666   6.720   1.739  0.5170  0.2325  0.0491
   16MOL   H227 3857   2.388   7.062   1.879 -0.3591  1.4705  0.3810
   16MOL   H228 3858   2.551   7.122   1.927 -0.4175  0.0027 -1.8348
   16MOL   H229 3859   2.451   7.008   2.023  3.5751 -1.4147  0.5462
   16MOL   C230 3860   2.806   6.873   1.669 -0.3042  0.0566  0.3573
   16MOL   C231 3861   2.706   6.906   1.557  0.0870 -0.5102 -0.0977
   16MOL   O232 3862   2.793   6.962   1.451 -0.2048 -0.4087 -0.0457
   16MOL   C233 3863   2.774   7.090   1.420  0.1980  0.7068 -1.2080
   16MOL   C234 3864   2.847   7.128   1.294 -0.1901 -0.4397  0.2557
   16MOL   O235 3865   2.704   7.174   1.475  0.3252 -0.0255 -0.1092
   16MOL   H236 3866   2.864   6.958   1.704  1.1429 -0.2791 -1.1815
   16MOL   H237 3867   2.878   6.804   1.624 -0.3267 -0.7744  1.5774
   16MOL   H238 3868   2.622   6.966   1.594 -0.7097  0.8478 -3.8950
   16MOL   H239 3869   2.883   7.035   1.250 -0.8835 -0.6530  0.1327
   16MOL   H240 3870   2.939   7.183   1.314  1.6224 -2.6143 -1.6922
   16MOL   H241 3871   2.789   7.183   1.219 -0.3027 -1.7406 -0.6321
   16MOL   H242 3872   2.670   6.813   1.514 -1.1540  0.6047 -1.5416
   17MOL     C1 3873   5.454   2.210   1.424  0.5357  0.0548  0.3697
   17MOL     C2 3874   5.360   2.213   1.551 -0.0978 -0.2375  0.3445
   17MOL     O3 3875   5.325   2.343   1.598  0.0340  0.0610  0.2572
   17MOL     C4 3876   5.394   2.397   1.700 -0.2139 -0.7511 -0.8209
   17MOL     C5 3877   5.339   2.539   1.726 -0.0115  0.2290  0.2322
   17MOL     O6 3878   5.490   2.347   1.758  0.0323  0.0596 -0.3782
   17MOL     H7 3879   5.469   2.112   1.379  0.2772 -1.0413  2.5956
   17MOL     H8 3880   5.552   2.254   1.437  0.2452  0.9198 -0.3103
   17MOL     H9 3881   5.402   2.152   1.631  1.1596  0.1088 -0.0400
   17MOL    H10 3882   5.241   2.559   1.682 -0.2504  2.7544  1.7912
   17MOL    H11 3883   5.400   2.614   1.675 -0.0004 -0.3187 -0.5573
   17MOL    H12 3884   5.327   2.580   1.826  1.5865 -0.7522  0.8498
   17MOL    H13 3885   5.404   2.271   1.349  1.2286  1.7915  1.2922
   17MOL    C14 3886   5.227   2.143   1.523 -0.0846 -0.0340  0.0902
   17MOL    C15 3887   5.138   2.131   1.650  0.0826  0.1716  0.3007
   17MOL    O16 3888   5.014   2.085   1.594  0.2721 -0.5147  0.4330
   17MOL    C17 3889   4.902   2.101   1.662 -0.7717  0.1540 -0.3452
   17MOL    C18 3890   4.783   2.021   1.604 -1.3825 -0.2188  0.5406
   17MOL    O19 3891   4.892   2.171   1.764  1.1660  0.8138  0.6098
   17MOL    H20 3892   5.173   2.195   1.445  0.6583  2.3116  1.0775
   17MOL    H21 3893   5.264   2.053   1.474  1.3038 -0.1878  1.3573
   17MOL    H22 3894   5.124   2.231   1.692  0.0640  0.3861 -0.2184
   17MOL    H23 3895   4.796   2.015   1.496 -0.3796  0.9385  0.5871
   17MOL    H24 3896   4.698   2.086   1.627 -1.4862  0.2922 -1.2048
   17MOL    H25 3897   4.763   1.922   1.643 -3.3782 -0.5953 -1.3358
   17MOL    C26 3898   5.197   2.030   1.756  0.0762 -0.7068  0.4748
   17MOL    C27 3899   5.166   2.076   1.901 -0.1822  0.0980 -0.5910
   17MOL    O28 3900   5.184   1.965   1.992  0.1240  0.3010 -0.7693
   17MOL    C29 3901   5.077   1.894   2.035  0.0511 -0.2806 -0.8812
   17MOL    C30 3902   5.119   1.779   2.126  0.4981 -0.5435  0.1751
   17MOL    O31 3903   4.963   1.922   2.010 -0.1168 -0.5524  0.1220
   17MOL    H32 3904   5.157   1.931   1.733  0.1965 -0.3907 -1.1659
   17MOL    H33 3905   5.304   2.014   1.748  0.4401  1.4661  0.8968
   17MOL    H34 3906   5.064   2.113   1.913 -0.5832 -1.1356 -0.1582
   17MOL    H35 3907   5.143   1.702   2.052 -0.4080 -0.6958  0.0434
   17MOL    H36 3908   5.043   1.750   2.198  2.1742 -2.7463  1.1184
   17MOL    H37 3909   5.215   1.796   2.176 -0.5908  0.2766  2.0401
   17MOL    C38 3910   5.271   2.175   1.948 -0.2241 -0.0027  0.4166
   17MOL    C39 3911   5.230   2.258   2.072 -0.2219  0.1889 -0.1233
   17MOL    O40 3912   5.346   2.283   2.152  0.4614  0.1742  0.0334
   17MOL    C41 3913   5.383   2.189   2.241  0.0785 -0.3848 -0.4864
   17MOL    C42 3914   5.507   2.220   2.315  0.0823 -0.0935 -0.6835
   17MOL    O43 3915   5.318   2.091   2.263  0.0140 -0.3585  0.4741
   17MOL    H44 3916   5.368   2.131   1.966  1.3680  3.3593  0.5160
   17MOL    H45 3917   5.288   2.243   1.864  0.8419 -0.0630  0.5774
   17MOL    H46 3918   5.154   2.201   2.125 -0.8156  0.2235 -0.9113
   17MOL    H47 3919   5.551   2.311   2.275 -1.0694  0.8979  0.2565
   17MOL    H48 3920   5.579   2.140   2.300 -1.5051 -1.0119 -4.0343
   17MOL    H49 3921   5.484   2.219   2.422 -0.4715 -1.7427 -0.7926
   17MOL    C50 3922   5.167   2.392   2.036  0.6688  0.0322 -0.3114
   17MOL    C51 3923   5.017   2.386   1.974  0.0643 -0.0164 -0.1398
   17MOL    O52 3924   4.925   2.302   2.040  0.5396 -0.3991 -0.0369
   17MOL    C53 3925   4.883   2.319   2.170  0.0886 -0.5506 -0.3118
   17MOL    C54 3926   4.796   2.208   2.221 -0.3482 -0.0927 -0.1568
   17MOL    O55 3927   4.923   2.415   2.232  0.4910  0.1838 -0.0437
   17MOL    H56 3928   5.166   2.449   2.129 -0.8774 -0.3235 -0.0961
   17MOL    H57 3929   5.234   2.447   1.969 -1.6124  0.1291 -2.6305
   17MOL    H58 3930   5.038   2.347   1.875  0.8817  1.2543 -0.4855
   17MOL    H59 3931   4.846   2.171   2.311  0.5760 -2.3609 -1.5732
   17MOL    H60 3932   4.796   2.136   2.140 -0.5139 -1.7366  1.2797
   17MOL    H61 3933   4.693   2.238   2.241 -0.7521 -1.4120 -0.1952
   17MOL    C62 3934   4.964   2.523   1.941 -0.1306  0.0124  0.6240
   17MOL    C63 3935   4.845   2.535   1.847 -0.4342  1.0206 -0.0223
   17MOL    O64 3936   4.739   2.488   1.930 -0.1831  0.1385 -0.1378
   17MOL    C65 3937   4.643   2.410   1.881 -0.8910 -0.4130  0.0325
   17MOL    C66 3938   4.540   2.373   1.983 -0.5558  0.0105  0.1684
   17MOL    O67 3939   4.633   2.381   1.763 -0.2429 -0.1631 -0.2437
   17MOL    H68 3940   4.936   2.581   2.029  2.1354  1.2719  0.5513
   17MOL    H69 3941   5.049   2.567   1.891  0.3298 -2.5084 -0.8953
   17MOL    H70 3942   4.853   2.459   1.768 -2.8972  1.1409 -0.4441
   17MOL    H71 3943   4.586   2.328   2.071 -0.8069  2.8715  1.8296
   17MOL    H72 3944   4.473   2.297   1.944 -0.3631 -0.3168  0.4660
   17MOL    H73 3945   4.485   2.460   2.018  0.5484  0.6071  0.4522
   17MOL    C74 3946   4.811   2.670   1.785  0.3136 -0.2765 -0.0929
   17MOL    C75 3947   4.901   2.710   1.663  0.9385  0.1616 -0.7034
   17MOL    O76 3948   4.877   2.617   1.560 -0.2150 -0.1310  0.3080
   17MOL    C77 3949   4.953   2.517   1.531  0.0370  0.5488 -0.5175
   17MOL    C78 3950   4.901   2.429   1.426 -0.6181 -0.2340  0.5881
   17MOL    O79 3951   5.047   2.477   1.596 -0.0489 -0.0228 -1.1298
   17MOL    H80 3952   4.704   2.671   1.763 -0.3518  1.9924  2.8784
   17MOL    H81 3953   4.810   2.749   1.860 -0.5859  1.2273 -1.6376
   17MOL    H82 3954   5.008   2.702   1.683  1.4746  1.6092 -2.7695
   17MOL    H83 3955   4.965   2.340   1.425 -1.3301 -0.7576  1.0069
   17MOL    H84 3956   4.910   2.478   1.329  0.9609  1.4070  1.5525
   17MOL    H85 3957   4.799   2.391   1.438 -0.4269 -0.9281  0.1024
   17MOL    C86 3958   4.878   2.854   1.611 -0.7823 -0.0784  0.4640
   17MOL    C87 3959   4.936   2.962   1.711 -0.0443  0.1239  0.4987
   17MOL    O88 3960   5.075   2.964   1.691  0.1749 -0.0187  0.1692
   17MOL    C89 3961   5.163   2.897   1.776 -0.0592  0.0086 -0.1584
   17MOL    C90 3962   5.310   2.927   1.757 -0.1551  0.2337 -0.3269
   17MOL    O91 3963   5.123   2.834   1.872  0.2095  0.8319 -0.0389
   17MOL    H92 3964   4.920   2.866   1.512  0.7754 -0.7512  1.0394
   17MOL    H93 3965   4.773   2.880   1.596 -0.0740  1.2730 -2.4247
   17MOL    H94 3966   4.920   2.928   1.813  0.7451  0.5191  0.7560
   17MOL    H95 3967   5.363   2.940   1.852  1.0699 -0.7436 -0.8668
   17MOL    H96 3968   5.331   3.016   1.698  0.8861 -1.5634 -2.7216
   17MOL    H97 3969   5.353   2.845   1.701  0.7038 -0.2504  1.0182
   17MOL    C98 3970   4.872   3.104   1.686 -0.4865  0.3983 -0.1358
   17MOL    C99 3971   4.863   3.191   1.808 -0.0920 -0.1987 -0.0329
   17MOL   O100 3972   4.998   3.207   1.860 -0.1054 -0.5003  0.4471
   17MOL   C101 3973   5.026   3.212   1.995 -1.3652  0.6451 -0.7637
   17MOL   C102 3974   5.176   3.207   2.029 -0.8381  0.0482  0.3306
   17MOL   O103 3975   4.942   3.210   2.086 -0.3869 -0.5993 -0.5598
   17MOL   H104 3976   4.912   3.144   1.592 -1.2378 -1.9422 -1.4842
   17MOL   H105 3977   4.772   3.093   1.645 -0.9852  0.8958  0.9459
   17MOL   H106 3978   4.814   3.125   1.880  2.3433 -1.8330  0.1752
   17MOL   H107 3979   5.194   3.112   2.079 -0.5110  0.5757  1.2194
   17MOL   H108 3980   5.208   3.288   2.094 -0.6202 -1.4462  2.1229
   17MOL   H109 3981   5.242   3.222   1.943  0.5531 -0.0902  1.3717
   17MOL   C110 3982   4.793   3.328   1.792  0.6715 -0.5091 -0.3669
   17MOL   C111 3983   4.643   3.340   1.815  0.9166  0.0051  0.2720
   17MOL   O112 3984   4.615   3.467   1.869 -0.2951 -0.2950  0.0160
   17MOL   C113 3985   4.605   3.469   2.002 -0.5957 -0.0849  0.6730
   17MOL   C114 3986   4.562   3.605   2.047 -0.2924  0.1309 -0.0794
   17MOL   O115 3987   4.636   3.386   2.084  0.1593 -0.2215  0.5483
   17MOL   H116 3988   4.839   3.409   1.849 -0.0707 -0.9483  0.8678
   17MOL   H117 3989   4.816   3.367   1.693  1.0638  3.7419  1.3118
   17MOL   H118 3990   4.620   3.261   1.886  0.2926 -1.7765 -1.8217
   17MOL   H119 3991   4.482   3.640   1.981  0.5291 -1.0918 -1.7739
   17MOL   H120 3992   4.636   3.684   2.034 -0.3948  0.3966  0.8953
   17MOL   H121 3993   4.521   3.607   2.148  1.5065  2.7273  0.6516
   17MOL   C122 3994   4.558   3.325   1.685  0.9739 -0.0787  0.2486
   17MOL   C123 3995   4.408   3.361   1.696 -0.7598  0.2478 -0.1630
   17MOL   O124 3996   4.392   3.500   1.717 -0.1360 -0.2044 -0.0069
   17MOL   C125 3997   4.288   3.546   1.780 -0.3690  0.1230  0.5116
   17MOL   C126 3998   4.295   3.697   1.796  0.2604  0.4572  0.4463
   17MOL   O127 3999   4.192   3.478   1.819  0.1294  0.0352  0.3441
   17MOL   H128 4000   4.607   3.387   1.610  0.1220  0.4712  0.1429
   17MOL   H129 4001   4.576   3.225   1.646  0.7225 -0.3664  0.8606
   17MOL   H130 4002   4.365   3.309   1.782 -1.3820  0.9985 -0.0144
   17MOL   H131 4003   4.207   3.738   1.747  1.2044 -1.0093 -2.6233
   17MOL   H132 4004   4.385   3.741   1.752  2.1543  0.1750  3.8275
   17MOL   H133 4005   4.294   3.746   1.893 -1.3561  4.1161 -1.3473
   17MOL   C134 4006   4.332   3.314   1.569  0.5258  0.1654  0.0210
   17MOL   C135 4007   4.330   3.159   1.533  0.4310  0.0718 -0.1040
   17MOL   O136 4008   4.236   3.096   1.623 -0.2212 -0.0924 -0.2248
   17MOL   C137 4009   4.284   3.013   1.713 -0.3216 -0.3757 -0.5243
   17MOL   C138 4010   4.172   2.936   1.787 -0.0843  0.1282  0.2057
   17MOL   O139 4011   4.401   2.999   1.744  0.9311 -0.0464 -0.1622
   17MOL   H140 4012   4.227   3.344   1.579  0.7528  1.5867 -1.5869
   17MOL   H141 4013   4.372   3.380   1.492  2.5487  0.3910  1.2251
   17MOL   H142 4014   4.432   3.121   1.539  0.9728  1.3282 -1.2270
   17MOL   H143 4015   4.117   2.884   1.709  0.1985 -1.2857  0.9181
   17MOL   H144 4016   4.107   2.998   1.848  1.1035  0.6195  1.0116
   17MOL   H145 4017   4.211   2.853   1.847  0.1970 -0.4324 -0.7386
   17MOL   C146 4018   4.273   3.144   1.387 -0.6771  0.4527 -0.4076
   17MOL   C147 4019   4.388   3.141   1.282 -0.4932 -0.8548  0.4759
   17MOL   O148 4020   4.440   3.014   1.284 -0.6252 -0.0761  0.0978
   17MOL   C149 4021   4.564   2.981   1.334  0.2832 -0.2014 -0.6376
   17MOL   C150 4022   4.598   2.834   1.315  0.5213  0.1819  0.3761
   17MOL   O151 4023   4.641   3.056   1.392  0.1767 -0.4314  0.4650
   17MOL   H152 4024   4.232   3.043   1.383  0.6317 -0.1974  1.7696
   17MOL   H153 4025   4.212   3.232   1.363  0.8394  1.4800 -0.5379
   17MOL   H154 4026   4.459   3.217   1.314 -0.1811 -0.3025 -1.5159
   17MOL   H155 4027   4.587   2.806   1.210  1.7020 -3.4358  1.1399
   17MOL   H156 4028   4.549   2.760   1.379 -1.0956  1.2835  0.4284
   17MOL   H157 4029   4.702   2.814   1.343  0.3037 -2.1600 -0.3864
   17MOL   C158 4030   4.347   3.160   1.132 -0.4463  0.2354 -0.3829
   17MOL   C159 4031   4.314   3.300   1.087 -0.5682 -0.3277  0.0804
   17MOL   O160 4032   4.425   3.388   1.087 -0.1375 -0.5014 -0.7478
   17MOL   C161 4033   4.433   3.485   1.174  0.0664  0.4288 -0.3594
   17MOL   C162 4034   4.537   3.591   1.128  0.0267 -0.1888 -0.4106
   17MOL   O163 4035   4.358   3.509   1.264  0.0577 -0.0608 -0.1744
   17MOL   H164 4036   4.432   3.127   1.072 -0.1082  0.6583 -0.1376
   17MOL   H165 4037   4.280   3.079   1.103  0.9383 -0.7305 -0.9579
   17MOL   H166 4038   4.234   3.347   1.145 -0.6912 -0.6178  0.1463
   17MOL   H167 4039   4.570   3.561   1.028  1.6408 -0.8063  0.2981
   17MOL   H168 4040   4.612   3.572   1.204  1.1928  2.3690 -0.8753
   17MOL   H169 4041   4.511   3.697   1.128  2.1589  0.3674  2.7902
   17MOL   C170 4042   4.265   3.303   0.937 -0.2855 -0.7094 -1.0041
   17MOL   C171 4043   4.116   3.260   0.932 -0.4135  0.4239 -0.5351
   17MOL   O172 4044   4.043   3.370   0.980  0.2225  0.5309 -0.1111
   17MOL   C173 4045   3.970   3.366   1.094  0.0235 -0.4582 -0.0039
   17MOL   C174 4046   3.880   3.491   1.113  0.2098 -0.5851  0.5990
   17MOL   O175 4047   3.970   3.271   1.171  0.1328 -0.1257 -0.5487
   17MOL   H176 4048   4.277   3.401   0.891  0.1737  0.9912  2.5296
   17MOL   H177 4049   4.339   3.232   0.898  2.5284  0.2667  2.2397
   17MOL   H178 4050   4.099   3.172   0.995  2.2059 -0.2790 -0.7515
   17MOL   H179 4051   3.781   3.482   1.068 -0.9165 -0.3076  2.9593
   17MOL   H180 4052   3.935   3.569   1.060 -1.8093  0.1344 -0.5117
   17MOL   H181 4053   3.876   3.525   1.216 -3.5708  0.5632  0.1511
   17MOL   C182 4054   4.069   3.239   0.787  0.2468 -0.1001  0.1282
   17MOL   C183 4055   4.142   3.123   0.710  0.1865 -0.3459  0.0790
   17MOL   O184 4056   4.094   2.997   0.758 -0.4641 -0.0194  0.5262
   17MOL   C185 4057   4.167   2.916   0.831  0.3706 -0.1151 -0.1827
   17MOL   C186 4058   4.078   2.793   0.876 -0.3374  0.7473 -0.3926
   17MOL   O187 4059   4.284   2.930   0.861  0.0836  0.3205 -0.2966
   17MOL   H188 4060   3.963   3.223   0.771  0.6810 -1.3351 -1.5790
   17MOL   H189 4061   4.089   3.334   0.737  0.0215  0.1435  0.4976
   17MOL   H190 4062   4.250   3.135   0.714 -0.1478  2.4781  1.7122
   17MOL   H191 4063   4.040   2.824   0.974 -0.4166  1.5098 -0.6590
   17MOL   H192 4064   4.134   2.700   0.883 -2.0066 -0.1835  1.1473
   17MOL   H193 4065   3.990   2.779   0.815  0.2412 -0.5146 -0.9450
   17MOL   C194 4066   4.101   3.120   0.567  0.1158 -0.1376  0.5427
   17MOL   C195 4067   4.189   3.043   0.467  0.0678  0.4316  0.1016
   17MOL   O196 4068   4.318   3.098   0.478 -0.4719 -0.3973  0.0218
   17MOL   C197 4069   4.374   3.169   0.369  0.6894  0.5123  0.4798
   17MOL   C198 4070   4.497   3.244   0.411  0.0345 -0.0210 -0.3727
   17MOL   O199 4071   4.316   3.193   0.263 -0.0499 -0.4329 -0.1421
   17MOL   H200 4072   3.999   3.084   0.554  0.3053 -0.6167  0.3607
   17MOL   H201 4073   4.101   3.220   0.525 -1.4619  0.1176  1.1135
   17MOL   H202 4074   4.146   3.056   0.367 -0.9090 -3.2785 -0.0227
   17MOL   H203 4075   4.473   3.289   0.507 -1.9519 -1.6722 -0.0602
   17MOL   H204 4076   4.502   3.331   0.344  0.8923 -0.0966 -0.4152
   17MOL   H205 4077   4.586   3.183   0.427 -0.2969 -0.4875 -0.3033
   17MOL   C206 4078   4.182   2.890   0.489 -0.6414  0.3308  0.2850
   17MOL   C207 4079   4.213   2.806   0.362 -0.2646 -0.4354 -0.1078
   17MOL   O208 4080   4.354   2.829   0.317  0.8423  0.8687 -0.9255
   17MOL   C209 4081   4.379   2.860   0.190  0.1799  0.5348 -1.0107
   17MOL   C210 4082   4.520   2.911   0.170  0.7490 -0.3346  0.3107
   17MOL   O211 4083   4.302   2.832   0.097 -0.5720 -0.3163 -0.6662
   17MOL   H212 4084   4.241   2.862   0.576  0.3915  0.6234 -0.3081
   17MOL   H213 4085   4.081   2.872   0.525  0.0294 -2.0844  1.0817
   17MOL   H214 4086   4.141   2.834   0.286 -2.1564 -1.4911  1.2499
   17MOL   H215 4087   4.594   2.908   0.249  1.3090 -1.2054 -0.2266
   17MOL   H216 4088   4.515   3.012   0.129 -2.0860 -1.0738 -1.3305
   17MOL   H217 4089   4.564   2.874   0.077  1.6172  1.2519  0.0692
   17MOL   C218 4090   4.198   2.661   0.387 -0.0485  0.3108  0.1737
   17MOL   C219 4091   4.175   2.564   0.271 -0.1951  0.6465 -0.8744
   17MOL   O220 4092   4.152   2.431   0.321 -0.3846  0.4235 -0.5723
   17MOL   C221 4093   4.248   2.336   0.311  0.3365  0.3620  0.4065
   17MOL   C222 4094   4.194   2.195   0.343  0.4444 -0.5326  0.1023
   17MOL   O223 4095   4.357   2.348   0.265  0.2874  0.0944 -0.3657
   17MOL   H224 4096   4.286   2.627   0.441  1.6495  1.6765 -1.6702
   17MOL   H225 4097   4.107   2.655   0.446 -0.0102 -0.4048  0.1587
   17MOL   H226 4098   4.260   2.555   0.203  1.7775 -0.8921  1.7060
   17MOL   H227 4099   4.262   2.153   0.417  1.6763  0.7745 -0.2825
   17MOL   H228 4100   4.208   2.140   0.250 -0.1928  0.3056 -0.4930
   17MOL   H229 4101   4.090   2.196   0.376  0.7923 -0.8546  1.2364
   17MOL   C230 4102   4.051   2.598   0.174 -0.2785  0.6819 -0.3941
   17MOL   C231 4103   3.917   2.622   0.249  0.2702  0.9641  0.0327
   17MOL   O232 4104   3.823   2.671   0.158 -0.3372  0.5164  0.6486
   17MOL   C233 4105   3.827   2.800   0.120 -0.6831  0.0845  0.0267
   17MOL   C234 4106   3.722   2.830   0.015 -0.4805  0.2608  0.1953
   17MOL   O235 4107   3.895   2.894   0.167  0.1608  0.0040 -0.7608
   17MOL   H236 4108   4.071   2.698   0.135 -1.2115  1.0129 -0.0417
   17MOL   H237 4109   4.044   2.536   0.084  0.7104  0.5032 -0.3468
   17MOL   H238 4110   3.935   2.696   0.326  3.0380  0.2798  0.1125
   17MOL   H239 4111   3.698   2.937   0.020  1.7311  0.8481 -0.9551
   17MOL   H240 4112   3.635   2.782   0.060 -0.5537  1.6385  1.6135
   17MOL   H241 4113   3.740   2.781   7.941 -1.1835  0.0436  0.1721
   17MOL   H242 4114   3.879   2.527   0.287 -1.1886  1.5746  0.0954
   18MOL     C1 4115   2.466   2.444   6.998 -0.5632  0.5543  0.0567
   18MOL     C2 4116   2.540   2.353   7.094  0.5990 -0.1335  0.2275
   18MOL     O3 4117   2.657   2.415   7.140  0.4505  0.0252  0.1622
   18MOL     C4 4118   2.772   2.371   7.107  0.5328  0.3479  0.8724
   18MOL     C5 4119   2.882   2.462   7.151  0.0490 -0.1819 -0.7023
   18MOL     O6 4120   2.804   2.270   7.043  0.5922 -0.1587 -0.1533
   18MOL     H7 4121   2.447   2.539   7.049 -0.9199 -0.1204  1.1841
   18MOL     H8 4122   2.373   2.401   6.961 -0.7426  0.8850  0.1109
   18MOL     H9 4123   2.545   2.257   7.042 -0.1216 -0.4796  0.7801
   18MOL    H10 4124   2.933   2.503   7.065  0.0010  1.4589  0.0261
   18MOL    H11 4125   2.955   2.404   7.208 -0.8964 -1.2433 -0.5224
   18MOL    H12 4126   2.839   2.545   7.207  0.4257 -0.0853 -0.5583
   18MOL    H13 4127   2.524   2.455   6.906  0.4314  0.4115  0.6576
   18MOL    C14 4128   2.452   2.332   7.216 -0.0127  0.7364 -0.4031
   18MOL    C15 4129   2.499   2.214   7.314 -0.2834 -0.3623 -0.4945
   18MOL    O16 4130   2.586   2.278   7.408 -0.2649  0.1490  0.0100
   18MOL    C17 4131   2.709   2.243   7.420 -0.3447  0.0103  0.2679
   18MOL    C18 4132   2.783   2.324   7.534  0.3376  0.6142  0.3423
   18MOL    O19 4133   2.764   2.149   7.361  0.3704 -0.4334  0.2835
   18MOL    H20 4134   2.424   2.427   7.260  0.2376  1.3386 -1.5253
   18MOL    H21 4135   2.359   2.299   7.170 -0.7779 -1.2775  2.4726
   18MOL    H22 4136   2.555   2.137   7.261  0.1351 -0.4239  0.0268
   18MOL    H23 4137   2.831   2.264   7.611  0.6129  0.4881  0.0782
   18MOL    H24 4138   2.696   2.372   7.578 -1.7187  0.8537 -3.7332
   18MOL    H25 4139   2.854   2.394   7.489 -0.0404  0.7697 -0.0143
   18MOL    C26 4140   2.379   2.152   7.388 -0.3174 -0.1090 -0.4536
   18MOL    C27 4141   2.412   2.016   7.458 -0.3581  0.1007 -0.2684
   18MOL    O28 4142   2.499   2.045   7.561  0.2277 -0.2666  0.5118
   18MOL    C29 4143   2.570   1.948   7.612  0.5322  0.2382 -0.3200
   18MOL    C30 4144   2.690   1.982   7.701  0.4448 -0.3912 -0.4311
   18MOL    O31 4145   2.553   1.832   7.587 -0.0840  0.2949  0.4437
   18MOL    H32 4146   2.346   2.234   7.451 -1.0771 -0.7022 -0.0732
   18MOL    H33 4147   2.310   2.137   7.305  1.6017 -2.3684 -1.7360
   18MOL    H34 4148   2.479   1.966   7.387  0.8038 -0.0084  0.8850
   18MOL    H35 4149   2.768   2.013   7.631  0.8305  1.1679  0.6476
   18MOL    H36 4150   2.714   1.900   7.768  2.0531 -0.4854 -1.1164
   18MOL    H37 4151   2.672   2.065   7.770 -0.0140 -0.2533 -0.7113
   18MOL    C38 4152   2.282   1.940   7.491 -0.9226  0.4400 -0.0287
   18MOL    C39 4153   2.183   2.007   7.590 -0.1877 -0.0931  0.0177
   18MOL    O40 4154   2.060   1.950   7.566  0.5119  0.0492  0.7154
   18MOL    C41 4155   1.976   2.005   7.481  0.0625  0.1653  0.5836
   18MOL    C42 4156   1.857   1.913   7.464  0.4631 -0.1309 -0.3271
   18MOL    O43 4157   1.985   2.109   7.423 -0.3112  0.9090 -0.3552
   18MOL    H44 4158   2.234   1.921   7.395 -1.7061  0.1089  0.4228
   18MOL    H45 4159   2.312   1.845   7.535  1.7774  2.0813  1.8044
   18MOL    H46 4160   2.191   2.116   7.588  3.8908 -0.2671  1.8733
   18MOL    H47 4161   1.880   1.833   7.394 -1.5244 -0.4011 -0.7048
   18MOL    H48 4162   1.774   1.975   7.432  0.6068  0.6902  0.8539
   18MOL    H49 4163   1.831   1.872   7.562  0.5993 -0.5581 -0.4671
   18MOL    C50 4164   2.216   1.985   7.739  0.0184 -0.5495 -0.1007
   18MOL    C51 4165   2.129   2.064   7.839  0.2916  0.3160  0.1945
   18MOL    O52 4166   2.002   1.991   7.839  0.4645  0.4877 -0.0308
   18MOL    C53 4167   1.885   2.063   7.819  0.0054  0.4790  0.2097
   18MOL    C54 4168   1.767   1.975   7.843  0.0804 -0.1365  0.2702
   18MOL    O55 4169   1.867   2.178   7.793 -0.0525 -0.2811 -0.5941
   18MOL    H56 4170   2.212   1.879   7.761  1.8080 -0.2172  2.0117
   18MOL    H57 4171   2.320   2.013   7.754 -0.5340  1.1558  0.6687
   18MOL    H58 4172   2.116   2.171   7.819 -1.5904  0.1976  0.7140
   18MOL    H59 4173   1.761   1.887   7.779 -1.2103 -0.1450  0.4024
   18MOL    H60 4174   1.673   2.027   7.824  0.2132  0.0220  0.0368
   18MOL    H61 4175   1.764   1.938   7.945 -1.0135 -1.4626 -0.2245
   18MOL    C62 4176   2.185   2.041   7.982 -0.4628 -1.2158 -0.3531
   18MOL    C63 4177   2.324   2.110   7.998  0.4942 -0.5042  0.1121
   18MOL    O64 4178   2.312   2.238   7.946 -0.5576  0.4846 -0.2326
   18MOL    C65 4179   2.399   2.282   7.857  0.0310  0.1018  0.1923
   18MOL    C66 4180   2.359   2.416   7.806  0.1576 -0.3552 -0.4726
   18MOL    O67 4181   2.500   2.224   7.814 -0.3475  0.1818 -0.0439
   18MOL    H68 4182   2.111   2.067   0.036  1.7164  1.0196  1.0896
   18MOL    H69 4183   2.205   1.934   7.990  3.6946 -0.6903 -2.4042
   18MOL    H70 4184   2.395   2.058   7.935 -1.6696 -2.6772 -0.6178
   18MOL    H71 4185   2.415   2.496   7.853 -1.6373  0.3607  0.4803
   18MOL    H72 4186   2.254   2.446   7.797  0.0353 -0.8099 -0.5740
   18MOL    H73 4187   2.393   2.425   7.703 -0.6325  0.2261 -0.6948
   18MOL    C74 4188   2.391   2.100   0.116 -0.3342  0.3959 -0.0889
   18MOL    C75 4189   2.408   2.235   0.193  0.0325  0.0893 -1.1300
   18MOL    O76 4190   2.486   2.322   0.112 -0.2932  0.6884 -0.2628
   18MOL    C77 4191   2.611   2.345   0.133  0.1939 -0.0113 -0.0283
   18MOL    C78 4192   2.685   2.422   0.028 -0.4161 -0.8799 -0.1409
   18MOL    O79 4193   2.674   2.301   0.232 -0.1152  0.2445  0.3143
   18MOL    H80 4194   2.340   2.017   0.166 -1.1883  0.2183 -1.2344
   18MOL    H81 4195   2.495   2.068   0.107 -0.1671  0.7235  0.6591
   18MOL    H82 4196   2.447   2.218   0.293  0.2553 -0.6894 -1.3448
   18MOL    H83 4197   2.629   2.509   8.015  0.3486 -1.2152 -2.2899
   18MOL    H84 4198   2.705   2.360   7.962 -0.1247  0.5062 -1.0679
   18MOL    H85 4199   2.776   2.461   0.075  0.1069 -1.3736 -0.7358
   18MOL    C86 4200   2.265   2.302   0.237  0.1259  0.4691  0.8193
   18MOL    C87 4201   2.274   2.447   0.285 -0.5899  0.0514  0.1434
   18MOL    O88 4202   2.246   2.530   0.170  0.2984  0.2377 -0.5438
   18MOL    C89 4203   2.337   2.626   0.132  0.3949  0.6073 -0.1124
   18MOL    C90 4204   2.281   2.690   0.005  0.3276  0.2167  0.5412
   18MOL    O91 4205   2.434   2.671   0.194 -0.1152  0.3440  0.1439
   18MOL    H92 4206   2.185   2.300   0.163  2.4790  0.2733 -1.8089
   18MOL    H93 4207   2.223   2.235   0.312  0.5925 -0.4888  0.2375
   18MOL    H94 4208   2.374   2.466   0.325 -0.7606  1.8406 -0.2487
   18MOL    H95 4209   2.192   2.748   0.027 -0.0163 -0.4040  0.7986
   18MOL    H96 4210   2.252   2.608   7.960 -0.3144  0.4845  0.4855
   18MOL    H97 4211   2.355   2.757   7.984 -0.0707 -0.4726 -1.2934
   18MOL    C98 4212   2.167   2.484   0.382  1.2844  0.2853 -0.1807
   18MOL    C99 4213   2.154   2.634   0.438  0.4589  0.2538 -0.3542
   18MOL   O100 4214   2.046   2.630   0.531  0.1927  0.2227 -1.1024
   18MOL   C101 4215   1.977   2.740   0.560  0.7963  0.2538 -0.1083
   18MOL   C102 4216   1.873   2.719   0.669  0.0041 -0.2352  0.0683
   18MOL   O103 4217   1.991   2.851   0.517  0.5974 -0.2435 -0.5974
   18MOL   H104 4218   2.075   2.460   0.329  2.2660 -0.7328 -1.4650
   18MOL   H105 4219   2.174   2.413   0.465  0.8901 -2.5675 -2.5241
   18MOL   H106 4220   2.134   2.699   0.353  1.2931 -0.3824 -1.0584
   18MOL   H107 4221   1.771   2.744   0.640 -0.6786 -0.8013  1.8874
   18MOL   H108 4222   1.913   2.791   0.742 -0.4230 -0.7469  0.8147
   18MOL   H109 4223   1.869   2.622   0.719 -0.0413  0.6004  1.7233
   18MOL   C110 4224   2.290   2.675   0.511  0.3402 -0.5157  0.6321
   18MOL   C111 4225   2.306   2.828   0.557 -0.1379  0.3642  0.1392
   18MOL   O112 4226   2.441   2.846   0.611  0.2790  0.2521 -0.0793
   18MOL   C113 4227   2.463   2.847   0.748 -0.6142 -0.2275  0.3995
   18MOL   C114 4228   2.609   2.897   0.787  1.0073  0.3011  0.5850
   18MOL   O115 4229   2.387   2.817   0.835 -0.0589  0.0586  0.1948
   18MOL   H116 4230   2.299   2.607   0.595 -2.2708 -1.5573  0.1131
   18MOL   H117 4231   2.374   2.649   0.446 -0.6672  0.9315 -1.3152
   18MOL   H118 4232   2.234   2.861   0.632 -0.6636 -0.5538  0.0443
   18MOL   H119 4233   2.626   2.853   0.885 -0.7851 -0.0062  0.7788
   18MOL   H120 4234   2.608   3.005   0.792  3.1875  0.7426 -4.6709
   18MOL   H121 4235   2.690   2.864   0.721  1.0240 -0.9742  1.2127
   18MOL   C122 4236   2.297   2.939   0.451  0.2317 -0.1554  0.3891
   18MOL   C123 4237   2.331   3.083   0.507  0.3002 -0.2815  0.0168
   18MOL   O124 4238   2.448   3.135   0.429  1.2512 -0.5459  0.0674
   18MOL   C125 4239   2.554   3.178   0.500 -0.3337 -0.7995  0.3102
   18MOL   C126 4240   2.681   3.222   0.421  0.2206 -0.0365 -0.6902
   18MOL   O127 4241   2.555   3.176   0.626 -0.2824  0.1340 -0.0907
   18MOL   H128 4242   2.365   2.920   0.368 -0.0930  0.3890 -0.0042
   18MOL   H129 4243   2.197   2.942   0.410 -0.0707 -0.3008  1.1060
   18MOL   H130 4244   2.354   3.082   0.613 -2.1480  1.8622  0.6326
   18MOL   H131 4245   2.655   3.221   0.316 -1.2137 -0.2436 -0.3395
   18MOL   H132 4246   2.756   3.145   0.435  0.9104  0.5871 -0.9075
   18MOL   H133 4247   2.723   3.319   0.451  0.9738 -0.7701  0.6739
   18MOL   C134 4248   2.220   3.185   0.490 -0.4067  0.0309  0.0942
   18MOL   C135 4249   2.113   3.170   0.603 -0.2021  0.4453  0.0482
   18MOL   O136 4250   2.180   3.180   0.733  0.7674 -0.3238  0.5847
   18MOL   C137 4251   2.157   3.088   0.838  0.3859 -0.0297 -0.2059
   18MOL   C138 4252   2.260   3.109   0.956  0.6331 -0.0092 -0.0611
   18MOL   O139 4253   2.070   3.002   0.843 -0.2797  1.0027  0.1803
   18MOL   H140 4254   2.274   3.279   0.493  2.0887 -1.3248 -0.3227
   18MOL   H141 4255   2.168   3.175   0.395 -1.7936  2.3895  0.5615
   18MOL   H142 4256   2.074   3.069   0.593 -1.3903  0.7397  1.3884
   18MOL   H143 4257   2.342   3.179   0.940  0.5718  0.2231  0.6226
   18MOL   H144 4258   2.287   3.004   0.972 -4.5043 -1.4220  0.3188
   18MOL   H145 4259   2.212   3.124   1.053 -1.1887  0.4008 -1.0121
   18MOL   C146 4260   2.001   3.272   0.601  0.1267  0.0278  0.7017
   18MOL   C147 4261   1.876   3.242   0.683  0.7624 -0.1718 -0.4481
   18MOL   O148 4262   1.788   3.348   0.659 -0.2569 -0.1360 -0.0481
   18MOL   C149 4263   1.775   3.444   0.759  0.9717  0.0451 -0.5967
   18MOL   C150 4264   1.689   3.560   0.707 -1.0930  0.9301 -0.1214
   18MOL   O151 4265   1.795   3.423   0.879  0.5466  0.4021  0.6036
   18MOL   H152 4266   2.049   3.364   0.632  1.2879 -0.0664 -0.7112
   18MOL   H153 4267   1.968   3.286   0.498  1.0207 -1.0315  0.2461
   18MOL   H154 4268   1.901   3.236   0.789  2.5205  0.8648 -0.7895
   18MOL   H155 4269   1.679   3.646   0.773  4.2715  2.6077 -1.2703
   18MOL   H156 4270   1.590   3.515   0.694 -0.6699 -0.0822  0.1217
   18MOL   H157 4271   1.731   3.589   0.610 -0.5884 -1.7291 -0.7220
   18MOL   C158 4272   1.808   3.115   0.635 -0.0228 -0.4443 -0.1619
   18MOL   C159 4273   1.669   3.095   0.710 -0.5352 -0.1783  0.0673
   18MOL   O160 4274   1.608   2.987   0.643 -0.5036  0.6098  1.0048
   18MOL   C161 4275   1.495   3.005   0.568  0.0999  0.1545 -0.2720
   18MOL   C162 4276   1.467   2.879   0.496  0.0458  0.2043  0.0432
   18MOL   O163 4277   1.425   3.102   0.557  0.1547 -0.7887 -0.1465
   18MOL   H164 4278   1.798   3.106   0.526  1.5399 -0.3550 -0.3278
   18MOL   H165 4279   1.865   3.027   0.665  1.5475  1.1016  1.4713
   18MOL   H166 4280   1.607   3.184   0.700 -1.1311 -0.4157  1.5434
   18MOL   H167 4281   1.362   2.853   0.507 -0.2148 -0.0342 -2.5385
   18MOL   H168 4282   1.532   2.798   0.528  1.1880  1.9002  2.0517
   18MOL   H169 4283   1.488   2.899   0.391 -0.7772  0.6223 -0.0432
   18MOL   C170 4284   1.677   3.056   0.855  0.0219 -0.1969  0.0533
   18MOL   C171 4285   1.544   3.046   0.939 -0.2589 -0.0804  0.3082
   18MOL   O172 4286   1.596   3.018   1.068 -0.5248 -0.1088 -0.5129
   18MOL   C173 4287   1.592   2.891   1.125  0.2818 -0.4976  0.2849
   18MOL   C174 4288   1.691   2.867   1.236  0.1040 -0.5902 -0.2278
   18MOL   O175 4289   1.515   2.805   1.082  0.3348  0.0662 -0.0982
   18MOL   H176 4290   1.733   2.962   0.858  1.3422  0.5943  0.8079
   18MOL   H177 4291   1.740   3.134   0.897  0.6809 -0.9604  0.5167
   18MOL   H178 4292   1.477   2.968   0.903 -3.2374  2.6114 -0.1332
   18MOL   H179 4293   1.792   2.834   1.213 -0.1415 -2.0041  0.6627
   18MOL   H180 4294   1.641   2.782   1.283 -1.0131  0.7923  1.1347
   18MOL   H181 4295   1.689   2.943   1.314  1.1259  0.5778 -1.3237
   18MOL   C182 4296   1.466   3.182   0.945  0.2173  0.0117  0.5158
   18MOL   C183 4297   1.317   3.164   0.986 -0.2433  0.2900  0.7140
   18MOL   O184 4298   1.320   3.144   1.125  0.2662  0.2773 -0.2304
   18MOL   C185 4299   1.262   3.035   1.183  0.5044  0.0519  0.4714
   18MOL   C186 4300   1.330   3.001   1.317 -0.6465 -0.0622  0.1472
   18MOL   O187 4301   1.162   2.974   1.143 -0.0276 -0.5604 -0.3566
   18MOL   H188 4302   1.517   3.257   1.006  0.7444  0.9380 -1.0393
   18MOL   H189 4303   1.461   3.228   0.847  0.1061 -1.2137 -0.0637
   18MOL   H190 4304   1.267   3.078   0.941 -0.4425 -0.4550  2.3017
   18MOL   H191 4305   1.437   2.983   1.311 -0.4905  1.0235 -0.6085
   18MOL   H192 4306   1.293   2.908   1.358  0.9460 -0.6418  0.2820
   18MOL   H193 4307   1.306   3.085   1.382 -4.2375  0.7141 -2.0227
   18MOL   C194 4308   1.231   3.288   0.947  0.3566 -0.3386  0.1948
   18MOL   C195 4309   1.188   3.287   0.798 -0.0343 -0.5323 -0.0833
   18MOL   O196 4310   1.074   3.196   0.779 -0.1850  0.0911 -0.1513
   18MOL   C197 4311   1.097   3.071   0.741 -0.0237  0.7273  0.2081
   18MOL   C198 4312   0.973   2.996   0.701 -0.2200  0.5805 -0.1970
   18MOL   O199 4313   1.207   3.020   0.722  0.2191 -0.3228 -0.0786
   18MOL   H200 4314   1.147   3.281   1.016  0.1169 -3.5617 -0.3122
   18MOL   H201 4315   1.281   3.381   0.971  1.7709 -0.6550 -1.4091
   18MOL   H202 4316   1.271   3.262   0.731 -1.3138  1.9127 -2.6860
   18MOL   H203 4317   0.884   3.059   0.707 -1.5716 -1.3335  0.1801
   18MOL   H204 4318   0.956   2.910   0.766 -0.0907 -0.4064 -1.4535
   18MOL   H205 4319   0.987   2.962   0.599  0.2290  0.7866 -0.2061
   18MOL   C206 4320   1.145   3.426   0.741  0.5263 -0.1489 -0.4763
   18MOL   C207 4321   1.152   3.421   0.591 -0.1258 -0.6447 -0.3309
   18MOL   O208 4322   1.079   3.536   0.550  0.1364 -0.2101  0.0789
   18MOL   C209 4323   0.942   3.530   0.536 -0.5513  0.2106  0.3024
   18MOL   C210 4324   0.878   3.662   0.475 -0.6073 -0.0504 -0.4655
   18MOL   O211 4325   0.877   3.429   0.569 -0.3391 -0.2017 -0.4868
   18MOL   H212 4326   1.046   3.449   0.780  2.1252  0.3386  3.5451
   18MOL   H213 4327   1.203   3.509   0.781 -1.3098  1.8177 -1.7776
   18MOL   H214 4328   1.106   3.330   0.552 -1.6674 -0.2799  0.5933
   18MOL   H215 4329   0.779   3.655   0.430 -0.9740  1.8535  0.0014
   18MOL   H216 4330   0.951   3.712   0.411  0.1449 -0.4418  0.0784
   18MOL   H217 4331   0.860   3.732   0.556  2.0499  0.2380 -0.0685
   18MOL   C218 4332   1.302   3.425   0.538 -0.5765  0.1647 -0.1605
   18MOL   C219 4333   1.327   3.382   0.395 -0.5099 -0.3991  0.5206
   18MOL   O220 4334   1.276   3.483   0.305 -0.0740 -0.0172 -0.2650
   18MOL   C221 4335   1.207   3.456   0.201 -0.0558 -0.4197 -0.7987
   18MOL   C222 4336   1.177   3.575   0.109 -0.8077 -0.3079  0.0376
   18MOL   O223 4337   1.165   3.341   0.179 -0.1146  0.3042 -0.1942
   18MOL   H224 4338   1.332   3.529   0.547 -0.2827  0.0651  0.0180
   18MOL   H225 4339   1.378   3.379   0.601 -0.8472 -0.1754 -0.0778
   18MOL   H226 4340   1.275   3.287   0.389  0.0926 -0.6412 -1.1528
   18MOL   H227 4341   1.263   3.643   0.112 -0.7145 -0.3445 -1.2850
   18MOL   H228 4342   1.092   3.640   0.130  0.2825  1.0175  0.4273
   18MOL   H229 4343   1.172   3.549   0.003 -0.1952 -0.1221 -0.0392
   18MOL   C230 4344   1.474   3.359   0.364  0.3310 -0.3730 -0.7330
   18MOL   C231 4345   1.515   3.328   0.218 -0.0755 -0.2523  0.5651
   18MOL   O232 4346   1.656   3.313   0.204 -0.4758 -0.1759 -0.0441
   18MOL   C233 4347   1.712   3.196   0.236 -0.2328 -1.0193 -0.1603
   18MOL   C234 4348   1.863   3.197   0.240  0.0691  0.8398 -0.1177
   18MOL   O235 4349   1.658   3.091   0.266  0.7282  0.0178  0.5360
   18MOL   H236 4350   1.527   3.449   0.396  0.3937 -0.6961  0.0968
   18MOL   H237 4351   1.508   3.276   0.426 -1.5485 -0.9185 -0.4082
   18MOL   H238 4352   1.482   3.405   0.149 -0.8968 -1.8597 -0.8683
   18MOL   H239 4353   1.897   3.134   0.158 -0.6976 -0.3659  0.4856
   18MOL   H240 4354   1.911   3.154   0.328  1.2656 -0.8546 -1.5534
   18MOL   H241 4355   1.897   3.301   0.241  0.7992  0.6116 -0.8178
   18MOL   H242 4356   1.468   3.238   0.178  1.8238 -1.2320  0.4658
   19MOL     C1 4357   0.940   1.682   5.883  0.6579 -0.0294  0.0272
   19MOL     C2 4358   0.823   1.587   5.870 -0.2540  0.1233  0.8411
   19MOL     O3 4359   0.711   1.655   5.806 -0.1809  0.4438 -0.2221
   19MOL     C4 4360   0.579   1.629   5.829  0.4986  0.0578 -0.6129
   19MOL     C5 4361   0.492   1.717   5.738 -0.3596 -0.0219 -0.7277
   19MOL     O6 4362   0.526   1.545   5.903 -0.0156  0.0356 -0.7074
   19MOL     H7 4363   1.034   1.641   5.921  0.7935 -0.9012 -1.2419
   19MOL     H8 4364   0.904   1.766   5.943 -1.9150 -0.6637 -0.5541
   19MOL     H9 4365   0.796   1.550   5.969  1.5047 -1.8174  0.6421
   19MOL    H10 4366   0.390   1.697   5.772  0.1618 -0.2644  0.7676
   19MOL    H11 4367   0.501   1.683   5.635  0.6366 -1.2975 -0.2369
   19MOL    H12 4368   0.521   1.821   5.754  1.2540 -1.0085  3.7324
   19MOL    H13 4369   0.969   1.728   5.789  0.2348  0.2021  0.0109
   19MOL    C14 4370   0.868   1.472   5.782  0.0897  0.3777 -0.1512
   19MOL    C15 4371   0.775   1.351   5.795  0.0317 -0.3445  0.7539
   19MOL    O16 4372   0.820   1.249   5.701  0.0677 -0.7950 -0.0987
   19MOL    C17 4373   0.770   1.247   5.575  0.1382  0.3857  0.3436
   19MOL    C18 4374   0.854   1.162   5.483 -0.1322  0.4742  0.9892
   19MOL    O19 4375   0.667   1.302   5.530 -0.2327 -0.3640 -0.3574
   19MOL    H20 4376   0.875   1.503   5.677 -1.0078 -0.0725 -0.3589
   19MOL    H21 4377   0.965   1.439   5.818 -1.0429 -1.0952  1.6417
   19MOL    H22 4378   0.673   1.378   5.770  1.2984  2.0033 -2.1742
   19MOL    H23 4379   0.796   1.117   5.402  1.2837  2.2434 -1.0616
   19MOL    H24 4380   0.889   1.071   5.533 -0.8365 -0.5049 -0.2840
   19MOL    H25 4381   0.945   1.217   5.460 -1.1348  1.9223  0.4930
   19MOL    C26 4382   0.797   1.275   5.928  0.1169 -0.0391 -0.4152
   19MOL    C27 4383   0.694   1.164   5.984  0.3354  0.4613  0.4114
   19MOL    O28 4384   0.741   1.107   6.104 -0.2476 -0.3278  0.0893
   19MOL    C29 4385   0.731   0.970   6.123 -0.1389 -0.0828 -0.1591
   19MOL    C30 4386   0.809   0.929   6.236 -1.5055  0.5862  0.0730
   19MOL    O31 4387   0.657   0.895   6.070 -0.1343  0.2046  0.6343
   19MOL    H32 4388   0.901   1.242   5.923  0.0368 -0.6716  1.5969
   19MOL    H33 4389   0.792   1.339   6.015 -0.0331 -0.1864 -0.3140
   19MOL    H34 4390   0.713   1.082   5.915  0.4885  1.8718 -1.2605
   19MOL    H35 4391   0.898   0.989   6.258 -0.1803 -1.3014 -0.0311
   19MOL    H36 4392   0.855   0.831   6.230 -0.6182  1.0577 -0.9413
   19MOL    H37 4393   0.754   0.938   6.330  1.6297  0.6042  1.9900
   19MOL    C38 4394   0.552   1.193   5.998  0.1774 -0.4564 -0.6211
   19MOL    C39 4395   0.470   1.172   5.866  0.0937  0.2639 -0.8800
   19MOL    O40 4396   0.443   1.031   5.851  0.1445 -0.3725  0.3657
   19MOL    C41 4397   0.498   0.970   5.749 -0.2624 -0.0750  0.1556
   19MOL    C42 4398   0.450   0.832   5.754  0.3430  0.3349 -0.5718
   19MOL    O43 4399   0.591   1.013   5.673  0.2524  0.4421 -0.2447
   19MOL    H44 4400   0.514   1.136   6.082  0.6029  0.5522  0.2625
   19MOL    H45 4401   0.535   1.297   6.028 -2.2862 -0.9779 -0.1289
   19MOL    H46 4402   0.529   1.191   5.776  1.8368  0.1262  0.2135
   19MOL    H47 4403   0.355   0.815   5.805  0.5116 -0.8287 -0.6280
   19MOL    H48 4404   0.528   0.774   5.803  0.3727  0.7465 -0.1346
   19MOL    H49 4405   0.439   0.802   5.649  0.9173  1.2017 -0.8839
   19MOL    C50 4406   0.338   1.253   5.855 -0.4090  0.0624  0.1916
   19MOL    C51 4407   0.264   1.253   5.720  0.2886  0.1398 -0.1576
   19MOL    O52 4408   0.148   1.335   5.747 -0.4234 -0.1159  0.6280
   19MOL    C53 4409   0.022   1.317   5.703  0.2711 -0.4326 -0.3118
   19MOL    C54 4410   7.948   1.428   5.732 -0.6204  0.1051 -0.0979
   19MOL    O55 4411   8.012   1.217   5.642 -0.3980  0.4276 -0.0912
   19MOL    H56 4412   0.273   1.222   5.937 -0.8505  0.6369  0.0618
   19MOL    H57 4413   0.359   1.355   5.886 -0.5271  1.4497 -4.0508
   19MOL    H58 4414   0.233   1.158   5.677 -0.8395  0.9054 -1.0887
   19MOL    H59 4415   7.920   1.490   5.647  2.8965  2.4913  0.3953
   19MOL    H60 4416   7.982   1.505   5.801 -1.2858 -0.2965  0.6944
   19MOL    H61 4417   7.852   1.394   5.770 -0.6489  1.1174  0.7659
   19MOL    C62 4418   0.344   1.321   5.603  0.0701  0.7417 -0.0552
   19MOL    C63 4419   0.267   1.287   5.466 -0.3577  0.2470  0.0792
   19MOL    O64 4420   0.273   1.397   5.374  0.0017  0.2533  0.2913
   19MOL    C65 4421   0.203   1.511   5.393  0.4239 -0.1520  0.2936
   19MOL    C66 4422   0.275   1.628   5.331 -0.0799 -0.1827  0.1827
   19MOL    O67 4423   0.098   1.521   5.456  0.4541 -0.0126 -0.1168
   19MOL    H68 4424   0.347   1.430   5.610 -1.5999  0.8376 -0.4810
   19MOL    H69 4425   0.447   1.286   5.606 -0.6116 -1.3001  0.3743
   19MOL    H70 4426   0.165   1.263   5.493 -0.2854  0.6624  0.7391
   19MOL    H71 4427   0.377   1.603   5.302 -0.1556  1.2884 -1.4137
   19MOL    H72 4428   0.267   1.703   5.410 -1.2702  1.0129 -1.0503
   19MOL    H73 4429   0.222   1.670   5.246  1.2734 -1.1314 -1.1649
   19MOL    C74 4430   0.339   1.171   5.399 -0.0526  0.4564  0.0619
   19MOL    C75 4431   0.258   1.085   5.288  0.3485  0.1966  0.4378
   19MOL    O76 4432   0.139   1.044   5.350  0.4272 -0.2912  0.4131
   19MOL    C77 4433   0.116   0.916   5.361  0.4243 -0.2883 -0.0922
   19MOL    C78 4434   8.020   0.875   5.447 -0.1976  0.3437 -0.3526
   19MOL    O79 4435   0.189   0.827   5.322 -0.2454 -0.1215  0.4737
   19MOL    H80 4436   0.436   1.200   5.358 -0.1631 -1.3458 -1.5312
   19MOL    H81 4437   0.374   1.101   5.474  0.2158  0.7280  0.1878
   19MOL    H82 4438   0.317   0.999   5.259  1.7597  1.2813  0.0206
   19MOL    H83 4439   7.948   0.822   5.384  1.6657 -0.6262 -1.7158
   19MOL    H84 4440   7.972   0.966   5.481 -1.4216 -1.4761  3.0173
   19MOL    H85 4441   0.020   0.818   5.537 -1.8659  0.6389  0.2440
   19MOL    C86 4442   0.216   1.158   5.150 -0.2648 -1.0842  0.0455
   19MOL    C87 4443   0.336   1.223   5.079  0.2887  0.3999 -0.0489
   19MOL    O88 4444   0.414   1.113   5.034  0.9036  0.5174 -0.2714
   19MOL    C89 4445   0.546   1.101   5.053  0.3073 -0.1538 -0.2502
   19MOL    C90 4446   0.593   0.978   4.973 -0.0867  0.0731 -0.1720
   19MOL    O91 4447   0.619   1.174   5.119  0.2693 -0.6363  0.1700
   19MOL    H92 4448   0.176   1.089   5.075 -1.5389 -2.8873  2.2881
   19MOL    H93 4449   0.145   1.240   5.162 -0.8092 -1.5163 -0.1473
   19MOL    H94 4450   0.394   1.281   5.151  1.2042  0.6488 -0.9852
   19MOL    H95 4451   0.549   0.888   5.015  0.4594 -0.6888 -1.1989
   19MOL    H96 4452   0.701   0.980   4.986 -0.3492  1.7435  1.9089
   19MOL    H97 4453   0.566   0.990   4.868 -0.8161 -1.5085 -0.1679
   19MOL    C98 4454   0.305   1.316   4.959 -0.5184 -0.2137 -0.1517
   19MOL    C99 4455   0.430   1.403   4.911  0.3569 -0.0405  0.4906
   19MOL   O100 4456   0.401   1.455   4.781  0.3885  0.0769 -0.3875
   19MOL   C101 4457   0.420   1.380   4.673  1.1946  0.1300 -0.1117
   19MOL   C102 4458   0.401   1.458   4.548  0.0446 -0.0127 -0.2506
   19MOL   O103 4459   0.452   1.262   4.675 -0.2703 -0.0114  0.1064
   19MOL   H104 4460   0.268   1.249   4.882 -1.6963  0.4484 -0.1782
   19MOL   H105 4461   0.208   1.364   4.973 -0.2575  0.0633  0.7524
   19MOL   H106 4462   0.518   1.339   4.912 -0.1549 -0.7353  1.4432
   19MOL   H107 4463   0.380   1.562   4.571  0.4772  0.1971 -0.8094
   19MOL   H108 4464   0.314   1.424   4.491 -0.4606 -0.5946  0.8409
   19MOL   H109 4465   0.492   1.452   4.488 -0.2390 -0.3860 -0.6451
   19MOL   C110 4466   0.449   1.514   5.016  0.9933 -0.3668 -0.2292
   19MOL   C111 4467   0.579   1.604   5.007  0.4387 -0.9460  0.1642
   19MOL   O112 4468   0.681   1.502   4.985  0.2447 -0.1202 -0.0562
   19MOL   C113 4469   0.784   1.489   5.072 -0.9246 -0.0186 -0.3696
   19MOL   C114 4470   0.841   1.347   5.072  0.0879  0.1276 -0.2193
   19MOL   O115 4471   0.837   1.584   5.138  0.2717  0.0793 -0.1070
   19MOL   H116 4472   0.369   1.587   5.012 -0.0167 -1.5629 -3.1115
   19MOL   H117 4473   0.444   1.472   5.117 -0.4700 -1.8481 -0.8978
   19MOL   H118 4474   0.596   1.670   5.091 -1.2186 -2.2397  1.5462
   19MOL   H119 4475   0.817   1.302   5.168  0.3259  2.3531  0.9187
   19MOL   H120 4476   0.947   1.348   5.048  0.1275 -1.5111 -0.1780
   19MOL   H121 4477   0.790   1.303   4.986  1.8991 -1.4276 -0.5307
   19MOL   C122 4478   0.581   1.700   4.886  0.9436  0.0922  0.6660
   19MOL   C123 4479   0.498   1.831   4.894  0.1996  0.0292  0.1809
   19MOL   O124 4480   0.535   1.910   5.003  0.2562 -0.9334  0.1792
   19MOL   C125 4481   0.460   1.938   5.116  0.5609 -0.1715  0.2534
   19MOL   C126 4482   0.542   2.011   5.217  0.0726  0.3807 -0.1773
   19MOL   O127 4483   0.341   1.906   5.138 -0.8674 -0.2316  0.1088
   19MOL   H128 4484   0.678   1.734   4.849  0.9245 -0.9262 -0.3534
   19MOL   H129 4485   0.548   1.641   4.800 -0.6006 -0.2054  1.4569
   19MOL   H130 4486   0.392   1.806   4.901  0.0502  0.9802  1.6771
   19MOL   H131 4487   0.486   2.013   5.311 -0.2501  0.2788 -0.3659
   19MOL   H132 4488   0.588   2.106   5.190 -1.9103  1.2591 -0.6067
   19MOL   H133 4489   0.625   1.941   5.221 -0.2080  0.0459 -0.0678
   19MOL   C134 4490   0.508   1.915   4.766  0.2006 -0.4628 -0.4621
   19MOL   C135 4491   0.416   2.039   4.750  0.3515 -0.9865 -0.9711
   19MOL   O136 4492   0.453   2.102   4.628 -0.1960 -0.2123 -0.1616
   19MOL   C137 4493   0.509   2.217   4.626 -0.2764  0.1769  0.0412
   19MOL   C138 4494   0.534   2.247   4.481 -0.2663 -0.1281  0.4019
   19MOL   O139 4495   0.549   2.282   4.721 -0.5991 -0.2507 -0.1160
   19MOL   H140 4496   0.612   1.950   4.769 -0.6317  2.1524 -1.3646
   19MOL   H141 4497   0.489   1.851   4.680  1.1072  3.0895 -3.3939
   19MOL   H142 4498   0.436   2.110   4.830  0.7898 -1.9236 -0.2498
   19MOL   H143 4499   0.475   2.184   4.414  0.2006 -0.3217  0.1651
   19MOL   H144 4500   0.639   2.227   4.461  0.6162  1.2961  3.2949
   19MOL   H145 4501   0.503   2.348   4.458 -1.1427 -1.2519 -3.8733
   19MOL   C146 4502   0.261   2.011   4.752 -0.3775 -0.7148  0.1268
   19MOL   C147 4503   0.167   2.135   4.747 -0.1546 -0.4425 -0.1326
   19MOL   O148 4504   0.031   2.101   4.717  0.1620  0.0748  0.3660
   19MOL   C149 4505   8.015   2.073   4.590 -0.1561  0.3594  0.8862
   19MOL   C150 4506   7.882   2.002   4.591 -0.1695 -0.0466 -0.1219
   19MOL   O151 4507   0.058   2.071   4.490 -0.7349 -0.1681  0.1142
   19MOL   H152 4508   0.235   1.946   4.669 -1.2073 -3.6718  2.6003
   19MOL   H153 4509   0.227   1.953   4.838 -0.7834 -2.1814 -1.0016
   19MOL   H154 4510   0.202   2.206   4.671 -0.5188  0.1811  0.2753
   19MOL   H155 4511   7.866   1.972   4.487 -1.1086 -0.2107  0.0643
   19MOL   H156 4512   7.805   2.074   4.618  0.2405  0.5988 -0.6441
   19MOL   H157 4513   7.867   1.924   4.665 -2.2535  0.5886  0.1513
   19MOL   C158 4514   0.161   2.218   4.879 -0.1801  1.4104  0.0181
   19MOL   C159 4515   0.120   2.371   4.864  0.2978 -0.1727  0.3897
   19MOL   O160 4516   0.216   2.433   4.777  0.1222  0.0907  0.0962
   19MOL   C161 4517   0.307   2.511   4.820 -0.1703  0.1773  0.0802
   19MOL   C162 4518   0.383   2.570   4.702 -0.0519  0.0488  0.0897
   19MOL   O163 4519   0.338   2.541   4.931 -0.4158 -0.3514  0.2997
   19MOL   H164 4520   0.091   2.172   4.948  0.4500 -0.5835 -0.6251
   19MOL   H165 4521   0.258   2.209   4.928 -0.3462 -0.4281  0.0372
   19MOL   H166 4522   0.135   2.421   4.960  0.2926 -1.9206  1.3255
   19MOL   H167 4523   0.486   2.577   4.735  0.2520 -0.3676 -0.7483
   19MOL   H168 4524   0.345   2.669   4.676  0.9459  1.0467  2.3617
   19MOL   H169 4525   0.385   2.505   4.614 -1.2770  0.6788 -0.4127
   19MOL   C170 4526   8.004   2.412   4.808  0.6864 -0.7876  0.7448
   19MOL   C171 4527   7.885   2.367   4.894  0.5154  0.6326 -0.0129
   19MOL   O172 4528   7.871   2.461   4.994  0.0620 -0.1536  0.5709
   19MOL   C173 4529   7.901   2.435   5.121  0.3903 -0.0695 -0.4369
   19MOL   C174 4530   7.914   2.568   5.199  0.6070 -0.2059  0.4866
   19MOL   O175 4531   7.937   2.324   5.157 -0.0365  0.1913 -0.4622
   19MOL   H176 4532   7.996   2.519   4.794 -0.9495 -0.9187  0.6543
   19MOL   H177 4533   8.004   2.369   4.708  0.6903 -1.8554  1.1973
   19MOL   H178 4534   7.902   2.268   4.935 -2.1240 -0.0961 -0.6135
   19MOL   H179 4535   7.819   2.579   5.251  1.3832  2.7987  1.3363
   19MOL   H180 4536   7.931   2.654   5.134  0.2949 -0.8560 -0.4770
   19MOL   H181 4537   7.991   2.564   5.276  2.0400 -3.2077 -0.9812
   19MOL   C182 4538   7.763   2.347   4.809 -0.2702  0.0255 -0.2820
   19MOL   C183 4539   7.657   2.260   4.876  0.2895  0.1405 -0.1829
   19MOL   O184 4540   7.528   2.285   4.816  0.0417 -0.6508  0.0127
   19MOL   C185 4541   7.407   2.271   4.886 -0.5040 -0.3883 -0.5661
   19MOL   C186 4542   7.290   2.288   4.789 -0.3656  0.6688 -0.0093
   19MOL   O187 4543   7.390   2.234   5.005 -0.3313 -0.0995 -0.2441
   19MOL   H188 4544   7.719   2.437   4.766  0.4947  0.4905 -0.1225
   19MOL   H189 4545   7.796   2.294   4.720  0.0508  2.1000 -1.4481
   19MOL   H190 4546   7.645   2.306   4.974 -2.2008  1.6277 -1.1518
   19MOL   H191 4547   7.242   2.386   4.796  1.8030  1.8839 -1.4865
   19MOL   H192 4548   7.217   2.222   4.835 -0.7867  0.7215 -0.5944
   19MOL   H193 4549   7.320   2.257   4.689 -0.6271  1.9616 -0.5082
   19MOL   C194 4550   7.691   2.106   4.876 -0.5490  0.0009  0.0523
   19MOL   C195 4551   7.615   2.015   4.973 -0.2117  0.2775  0.1219
   19MOL   O196 4552   7.653   1.886   4.940  0.4698 -0.0651 -0.0792
   19MOL   C197 4553   7.569   1.810   4.864  0.1442 -0.5013  0.6298
   19MOL   C198 4554   7.623   1.666   4.851 -0.0026 -0.0253  0.2297
   19MOL   O199 4555   7.475   1.844   4.793 -0.1292  0.3031  0.2871
   19MOL   H200 4556   7.661   2.067   4.779  0.1671  0.4577 -0.3587
   19MOL   H201 4557   7.797   2.081   4.873 -0.7433 -0.7707 -0.7409
   19MOL   H202 4558   7.510   2.026   4.946 -0.6655 -0.8023  1.3434
   19MOL   H203 4559   7.713   1.649   4.909  0.0167 -1.5780 -0.2197
   19MOL   H204 4560   7.663   1.651   4.751  1.4195 -0.3870  0.8480
   19MOL   H205 4561   7.548   1.598   4.893  0.5836 -0.5986  0.3447
   19MOL   C206 4562   7.629   2.051   5.121 -0.0024 -0.0875 -0.2498
   19MOL   C207 4563   7.508   2.004   5.204  0.3050 -0.3291  0.0344
   19MOL   O208 4564   7.474   1.866   5.168 -0.0684  0.2148 -0.2281
   19MOL   C209 4565   7.350   1.821   5.138  0.4334  0.0643  0.2886
   19MOL   C210 4566   7.336   1.670   5.119  0.1746 -0.2274  0.1533
   19MOL   O211 4567   7.249   1.890   5.122 -0.2584  0.0314  0.4570
   19MOL   H212 4568   7.715   2.003   5.168 -1.0597 -1.5344  0.2469
   19MOL   H213 4569   7.658   2.156   5.132  1.7937 -0.6143  0.2430
   19MOL   H214 4570   7.424   2.064   5.170  0.4911 -0.8199 -1.3314
   19MOL   H215 4571   7.295   1.654   5.020  1.2277  0.6089 -0.4337
   19MOL   H216 4572   7.272   1.631   5.198 -0.6455 -1.7685 -1.2338
   19MOL   H217 4573   7.429   1.615   5.134 -0.8929 -2.0030  0.3020
   19MOL   C218 4574   7.522   2.015   5.360 -0.6331  0.2128 -0.4623
   19MOL   C219 4575   7.399   1.964   5.440  0.1026 -0.1828 -0.5350
   19MOL   O220 4576   7.452   1.964   5.575 -0.3863  0.5174  0.4163
   19MOL   C221 4577   7.508   1.853   5.618 -0.8382  0.6755  0.4041
   19MOL   C222 4578   7.577   1.876   5.752  0.4308 -0.3703 -0.4835
   19MOL   O223 4579   7.514   1.740   5.554  0.4558 -0.3047 -0.4667
   19MOL   H224 4580   7.606   1.954   5.394 -0.5257  0.5096 -0.1835
   19MOL   H225 4581   7.556   2.117   5.380 -0.1042 -0.4247  2.1131
   19MOL   H226 4582   7.365   1.865   5.409  1.8714 -1.4389  1.4022
   19MOL   H227 4583   7.509   1.926   5.821 -0.0336 -1.3322 -0.2315
   19MOL   H228 4584   7.668   1.932   5.729  0.7489 -0.5429  0.3449
   19MOL   H229 4585   7.593   1.775   5.790 -4.0765 -1.1848 -0.4390
   19MOL   C230 4586   7.282   2.059   5.435 -0.1759 -0.3037  0.4511
   19MOL   C231 4587   7.166   2.022   5.529 -0.0568  0.2920 -0.3390
   19MOL   O232 4588   7.045   2.095   5.503 -0.0576 -0.2009  0.5143
   19MOL   C233 4589   6.949   2.094   5.596  0.1830 -0.4277  0.9220
   19MOL   C234 4590   6.827   2.174   5.549 -0.3579  0.0902 -0.1218
   19MOL   O235 4591   6.948   2.037   5.703 -0.1515 -0.5645  0.0083
   19MOL   H236 4592   7.310   2.159   5.467 -0.0103  0.0794 -0.8698
   19MOL   H237 4593   7.241   2.075   5.336  0.8076  0.7827  0.2094
   19MOL   H238 4594   7.210   2.019   5.629  1.6757 -2.9901 -1.1212
   19MOL   H239 4595   6.846   2.281   5.542  1.4338 -0.1184  0.9901
   19MOL   H240 4596   6.738   2.161   5.610  0.8551  0.5164  1.8165
   19MOL   H241 4597   6.809   2.146   5.445  1.7170  0.3656 -0.5791
   19MOL   H242 4598   7.140   1.918   5.509  1.0277  0.1403 -1.0147
   20MOL     C1 4599   4.050   7.486   6.111  0.0032 -0.2056  0.4592
   20MOL     C2 4600   4.160   7.384   6.143 -0.2091  0.2334  0.2057
   20MOL     O3 4601   4.176   7.291   6.035 -0.0818  0.5735 -0.1620
   20MOL     C4 4602   4.189   7.157   6.062 -0.0436 -0.4445 -0.1950
   20MOL     C5 4603   4.212   7.084   5.931 -0.4024 -0.4032  0.4961
   20MOL     O6 4604   4.148   7.097   6.156  0.4369  0.7339 -0.1058
   20MOL     H7 4605   4.046   7.575   6.175 -1.4462 -1.0213  1.5362
   20MOL     H8 4606   3.948   7.449   6.109 -0.1620  0.2440  0.4944
   20MOL     H9 4607   4.126   7.327   6.230  0.0602 -0.4539 -0.1350
   20MOL    H10 4608   4.292   7.129   5.872 -0.7164 -1.0928 -0.4803
   20MOL    H11 4609   4.121   7.059   5.877 -0.0236  2.1339 -1.4347
   20MOL    H12 4610   4.244   6.980   5.945  0.4226 -0.8390 -3.9058
   20MOL    H13 4611   4.061   7.517   6.008 -0.6647  3.0792  1.3205
   20MOL    C14 4612   4.299   7.438   6.174 -0.3403  0.3716 -0.1885
   20MOL    C15 4613   4.316   7.493   6.318 -0.3876 -0.4559  0.1045
   20MOL    O16 4614   4.291   7.383   6.408  0.0010 -0.0175 -0.4664
   20MOL    C17 4615   4.191   7.387   6.494  0.2832 -0.0464  0.0746
   20MOL    C18 4616   4.165   7.250   6.555  1.0347 -0.0442 -0.2855
   20MOL    O19 4617   4.135   7.490   6.537  0.2365  0.5200 -0.2305
   20MOL    H20 4618   4.373   7.361   6.152 -1.2373  0.5341 -4.1651
   20MOL    H21 4619   4.316   7.512   6.095  0.4480  1.0213  0.5810
   20MOL    H22 4620   4.258   7.581   6.346 -1.0584 -0.1653 -2.0977
   20MOL    H23 4621   4.115   7.265   6.651  2.6304 -1.4374  0.7949
   20MOL    H24 4622   4.263   7.204   6.569  1.9396  1.4203 -1.6546
   20MOL    H25 4623   4.104   7.196   6.482 -0.0145 -0.0228  0.5521
   20MOL    C26 4624   4.461   7.550   6.345  0.8060  0.2928 -0.1507
   20MOL    C27 4625   4.500   7.683   6.266  0.0241 -0.2468 -0.3036
   20MOL    O28 4626   4.418   7.787   6.324  0.0038 -0.0073 -0.2246
   20MOL    C29 4627   4.369   7.882   6.232  0.2504  0.4437 -0.5383
   20MOL    C30 4628   4.289   7.995   6.308 -0.0971  0.5587 -1.1844
   20MOL    O31 4629   4.384   7.878   6.109  0.4864  0.3077 -0.6796
   20MOL    H32 4630   4.471   7.583   6.449  1.6845  1.4074 -0.5866
   20MOL    H33 4631   4.536   7.472   6.332 -0.7475 -1.4997  1.2550
   20MOL    H34 4632   4.462   7.662   6.166  4.3624 -0.0976 -2.0942
   20MOL    H35 4633   4.282   0.052   6.233 -2.6182  2.5446  1.0396
   20MOL    H36 4634   4.350   0.006   6.392  0.2888 -0.7929 -0.9225
   20MOL    H37 4635   4.186   7.970   6.333  0.4794  2.1375  3.1407
   20MOL    C38 4636   4.654   7.706   6.250  0.1489 -0.1528  0.1211
   20MOL    C39 4637   4.705   7.785   6.124  1.3032 -0.0491  0.0366
   20MOL    O40 4638   4.840   7.827   6.139  0.3659 -0.3808 -0.2215
   20MOL    C41 4639   4.864   7.959   6.143 -0.2156  0.5586 -0.0172
   20MOL    C42 4640   5.006   7.988   6.123 -0.7567  0.1212 -0.5693
   20MOL    O43 4641   4.778   0.029   6.149 -0.0308  0.1499  0.7401
   20MOL    H44 4642   4.693   7.755   6.340 -2.2634  1.8563  0.1322
   20MOL    H45 4643   4.706   7.611   6.241  1.7752  0.4284  2.7404
   20MOL    H46 4644   4.644   7.872   6.102  4.3475  2.4348  1.0016
   20MOL    H47 4645   5.023   0.073   6.131 -1.5835  0.2597 -0.6219
   20MOL    H48 4646   5.041   7.946   6.028 -1.5654 -1.5834 -0.1393
   20MOL    H49 4647   5.055   7.941   6.208  0.6300  4.8984  1.4249
   20MOL    C50 4648   4.688   7.715   5.986 -0.8259  0.0110  0.0605
   20MOL    C51 4649   4.722   7.563   5.968 -0.2593 -0.1986  0.1770
   20MOL    O52 4650   4.680   7.528   5.833  0.1305  0.2877 -1.0570
   20MOL    C53 4651   4.555   7.492   5.806 -0.2056  0.2223 -0.0695
   20MOL    C54 4652   4.522   7.470   5.657  0.1895  0.1389 -0.3925
   20MOL    O55 4653   4.475   7.455   5.894 -0.1185 -0.1423 -0.3295
   20MOL    H56 4654   4.584   7.739   5.964 -0.7030  1.4257  0.9321
   20MOL    H57 4655   4.748   7.768   5.912 -0.1502 -1.4266 -0.4445
   20MOL    H58 4656   4.665   7.498   6.034  1.2796  0.8613  2.6047
   20MOL    H59 4657   4.611   7.464   5.593  0.9554  1.0856  0.5599
   20MOL    H60 4658   4.458   7.548   5.616 -1.4411 -0.9440  0.0752
   20MOL    H61 4659   4.460   7.381   5.652 -1.1919  1.1823 -2.9777
   20MOL    C62 4660   4.871   7.532   5.976 -0.0753 -0.5474  0.1680
   20MOL    C63 4661   4.894   7.401   6.050  0.4225 -0.3096 -0.2626
   20MOL    O64 4662   4.845   7.295   5.971  0.1920  0.4590  0.2589
   20MOL    C65 4663   4.757   7.208   6.031 -0.2227  0.6594  0.5703
   20MOL    C66 4664   4.696   7.112   5.921  0.1075 -0.1295 -0.2082
   20MOL    O67 4665   4.724   7.204   6.149  0.1755 -0.1775 -0.4476
   20MOL    H68 4666   4.917   7.532   5.877 -2.0754  0.1608 -0.7768
   20MOL    H69 4667   4.928   7.599   6.040 -0.0231  0.2693 -0.7343
   20MOL    H70 4668   4.840   7.424   6.142 -1.4636  0.0761 -1.4421
   20MOL    H71 4669   4.733   7.140   5.822  0.5627  1.4050  0.3885
   20MOL    H72 4670   4.589   7.132   5.927 -0.0630 -0.4328 -1.9177
   20MOL    H73 4671   4.715   7.008   5.950 -0.3694 -0.3649 -0.7313
   20MOL    C74 4672   5.036   7.371   6.093 -0.0137  0.2360  0.0262
   20MOL    C75 4673   5.060   7.259   6.200 -0.2460 -0.4428 -0.4836
   20MOL    O76 4674   5.081   7.131   6.139  1.1359  0.0675 -0.1850
   20MOL    C77 4675   5.020   7.017   6.186 -0.0191  0.2910  0.3958
   20MOL    C78 4676   5.046   6.907   6.094 -0.1495 -0.4273  0.1299
   20MOL    O79 4677   4.967   6.998   6.297  0.2164 -0.0106  0.3303
   20MOL    H80 4678   5.091   7.345   6.003 -1.6179  3.8570 -2.1114
   20MOL    H81 4679   5.083   7.463   6.129  0.0977  1.0994 -2.2871
   20MOL    H82 4680   4.965   7.257   6.254  0.6615 -2.9675  1.0945
   20MOL    H83 4681   5.151   6.881   6.089  0.1630  0.8405  0.0991
   20MOL    H84 4682   5.018   6.943   5.994  0.5655 -0.5482 -0.1143
   20MOL    H85 4683   4.977   6.828   6.125  1.8871 -1.7466  1.3471
   20MOL    C86 4684   5.172   7.280   6.299  0.2129  0.0890 -0.1467
   20MOL    C87 4685   5.147   7.395   6.393  0.6756  0.3339 -0.1997
   20MOL    O88 4686   5.027   7.382   6.466 -0.2095 -0.4554 -0.4657
   20MOL    C89 4687   4.925   7.465   6.453  0.4691  0.3375 -0.0678
   20MOL    C90 4688   4.812   7.441   6.553  0.5306  0.8173  0.1209
   20MOL    O91 4689   4.919   7.562   6.375  0.3104  0.9829  0.1935
   20MOL    H92 4690   5.196   7.194   6.362 -1.6175 -0.2659  0.0938
   20MOL    H93 4691   5.264   7.311   6.248 -0.4675 -1.1867 -2.1986
   20MOL    H94 4692   5.147   7.489   6.339 -0.6350  1.0624  1.0436
   20MOL    H95 4693   4.818   7.518   6.630 -5.2046  0.4195  1.2102
   20MOL    H96 4694   4.809   7.341   6.596 -0.1248  1.4563  1.5916
   20MOL    H97 4695   4.717   7.453   6.500 -0.8821 -0.6985  2.2069
   20MOL    C98 4696   5.255   7.421   6.494 -0.4306  0.0860 -0.1487
   20MOL    C99 4697   5.390   7.475   6.435 -0.2171  0.5229  0.0222
   20MOL   O100 4698   5.381   7.604   6.380  0.0444  0.1639 -0.4959
   20MOL   C101 4699   5.362   7.608   6.237 -0.6519  0.4535  0.2151
   20MOL   C102 4700   5.331   7.752   6.197  0.4385  0.1867 -0.6176
   20MOL   O103 4701   5.360   7.516   6.153  0.3104 -0.6901  0.3656
   20MOL   H104 4702   5.216   7.491   6.568 -1.0812 -1.6585  1.2041
   20MOL   H105 4703   5.273   7.332   6.555 -0.2343 -0.5962 -1.1891
   20MOL   H106 4704   5.416   7.410   6.351  0.2793  1.4216 -0.5246
   20MOL   H107 4705   5.250   7.784   6.263  1.5414  2.4730 -0.3198
   20MOL   H108 4706   5.287   7.774   6.099 -1.9428 -1.0123  0.1198
   20MOL   H109 4707   5.420   7.812   6.216  1.3756 -1.1708 -0.6682
   20MOL   C110 4708   5.505   7.479   6.541 -0.2046 -0.4619 -0.4640
   20MOL   C111 4709   5.500   7.600   6.639 -0.0546  0.0495  0.0845
   20MOL   O112 4710   5.391   7.596   6.731  0.2422  0.4247  0.3743
   20MOL   C113 4711   5.295   7.686   6.725  0.7570 -0.3829 -0.3929
   20MOL   C114 4712   5.183   7.665   6.823 -0.1459  0.0962 -0.3491
   20MOL   O115 4713   5.297   7.779   6.644  0.3636 -0.3206  0.3131
   20MOL   H116 4714   5.515   7.386   6.597 -1.2912 -0.0875  0.3549
   20MOL   H117 4715   5.593   7.490   6.478  1.0764  1.3315  1.5565
   20MOL   H118 4716   5.502   7.688   6.575  1.9257  0.1537  0.2625
   20MOL   H119 4717   5.134   7.567   6.825 -1.5631  0.7179 -2.6788
   20MOL   H120 4718   5.099   7.733   6.805  1.2388  1.7859 -0.5877
   20MOL   H121 4719   5.209   7.681   6.927 -0.2166  0.1054 -0.3325
   20MOL   C122 4720   5.643   7.612   6.718 -0.0945 -0.0690 -0.2329
   20MOL   C123 4721   5.652   7.724   6.820 -0.0957  0.1142  0.9310
   20MOL   O124 4722   5.782   7.718   6.881 -0.2789 -0.0832 -0.5388
   20MOL   C125 4723   5.797   7.650   6.996 -0.3155  0.1541 -0.0422
   20MOL   C126 4724   5.939   7.655   7.054 -0.2814 -0.4235  0.2584
   20MOL   O127 4725   5.709   7.588   7.062 -0.3884 -0.1191  0.5928
   20MOL   H128 4726   5.656   7.517   6.769 -0.1193 -0.7389 -1.4503
   20MOL   H129 4727   5.716   7.619   6.638 -1.1757 -0.8744 -1.3048
   20MOL   H130 4728   5.573   7.710   6.894  0.3408  0.5579  1.4805
   20MOL   H131 4729   5.934   7.692   7.156  2.0761  1.1755 -0.1543
   20MOL   H132 4730   6.002   7.730   7.006  0.0459 -0.8347  0.0468
   20MOL   H133 4731   5.994   7.561   7.051 -0.8936 -0.8852  2.5528
   20MOL   C134 4732   5.635   7.868   6.764 -0.1238 -0.0851 -0.2061
   20MOL   C135 4733   5.601   7.982   6.865 -0.0201  0.2953  0.0251
   20MOL   O136 4734   5.722   0.019   6.912 -0.1458  0.0240  0.0021
   20MOL   C137 4735   5.755   0.013   7.041  0.3805 -0.2761 -0.5935
   20MOL   C138 4736   5.876   0.095   7.083 -0.5982  1.1237 -0.0493
   20MOL   O139 4737   5.687   7.980   7.133 -0.4945  0.7419 -0.2527
   20MOL   H140 4738   5.722   7.890   6.702 -0.9245  0.3995 -1.1813
   20MOL   H141 4739   5.544   7.860   6.704 -0.4106  0.4986  0.1464
   20MOL   H142 4740   5.542   7.949   6.950 -1.9742 -1.2298 -1.8369
   20MOL   H143 4741   5.854   0.109   7.189 -0.6875 -0.8085  0.2031
   20MOL   H144 4742   5.889   0.190   7.030  1.7307 -0.3045 -2.1243
   20MOL   H145 4743   5.961   0.028   7.070 -2.1775 -1.1145  0.8594
   20MOL   C146 4744   5.538   0.083   6.781  0.0878 -0.0162 -0.4093
   20MOL   C147 4745   5.382   0.085   6.767 -0.1882  0.3032 -0.1760
   20MOL   O148 4746   5.319   0.121   6.892  0.2432 -0.3874  0.5249
   20MOL   C149 4747   5.257   0.027   6.971 -0.4088 -0.3975  0.3695
   20MOL   C150 4748   5.169   0.086   7.083 -0.1248  0.2938 -0.2715
   20MOL   O151 4749   5.268   7.926   6.958  0.0397 -0.0299 -0.1982
   20MOL   H152 4750   5.582   0.178   6.810  0.3782 -0.3769  0.3427
   20MOL   H153 4751   5.579   0.077   6.681  2.2381  2.3430  0.2850
   20MOL   H154 4752   5.348   8.008   6.734  0.5531  0.0517 -0.2037
   20MOL   H155 4753   5.176   0.039   7.181 -1.1005  0.0412 -0.3130
   20MOL   H156 4754   5.064   0.080   7.055 -0.8726  1.0882  2.1703
   20MOL   H157 4755   5.189   0.191   7.107 -0.9024  0.2856  0.4492
   20MOL   C158 4756   5.340   0.192   6.663 -0.3556 -0.1192  0.7414
   20MOL   C159 4757   5.329   0.147   6.511  0.0571  0.4912  0.2498
   20MOL   O160 4758   5.408   0.035   6.484  0.4876 -0.1570 -0.1764
   20MOL   C161 4759   5.508   0.048   6.394 -0.5435  0.4224 -0.4938
   20MOL   C162 4760   5.597   7.946   6.375  0.1911  0.5201  0.1052
   20MOL   O163 4761   5.521   0.150   6.319  0.2925  0.4005 -0.0800
   20MOL   H164 4762   5.248   0.239   6.698 -0.8814 -0.1687 -0.5427
   20MOL   H165 4763   5.415   0.271   6.658 -1.3341  0.8893  1.8309
   20MOL   H166 4764   5.352   0.232   6.447  2.3418 -0.5279 -0.3372
   20MOL   H167 4765   5.619   7.928   6.270 -1.8108 -0.0472 -0.2365
   20MOL   H168 4766   5.562   7.857   6.427  2.7555 -0.2552  0.5799
   20MOL   H169 4767   5.695   7.973   6.414 -0.2447  0.0561  1.5350
   20MOL   C170 4768   5.187   0.105   6.467  0.1442 -0.1086 -0.2463
   20MOL   C171 4769   5.100   0.228   6.436  0.8177 -0.2977 -0.0216
   20MOL   O172 4770   5.145   0.261   6.305  0.3385  0.3320 -0.1643
   20MOL   C173 4771   5.162   0.382   6.265 -0.7510  0.3246 -0.1103
   20MOL   C174 4772   5.210   0.394   6.124 -0.0784 -0.1061  0.3179
   20MOL   O175 4773   5.140   0.479   6.327 -0.3066 -0.0672 -0.1478
   20MOL   H176 4774   5.199   0.039   6.382 -1.5902  0.0507 -0.6410
   20MOL   H177 4775   5.150   0.048   6.553  1.8523 -0.1561  0.4754
   20MOL   H178 4776   5.119   0.304   6.512  2.5916 -1.7203  0.9931
   20MOL   H179 4777   5.168   0.330   6.047  0.1964  1.7289 -1.3866
   20MOL   H180 4778   5.311   0.356   6.145  0.8797  2.8240  1.3555
   20MOL   H181 4779   5.223   0.493   6.082  0.0719 -0.7452 -1.1481
   20MOL   C182 4780   4.953   0.192   6.429 -0.3680 -0.1962  0.6911
   20MOL   C183 4781   4.877   0.145   6.559 -0.1760 -0.3439  0.4473
   20MOL   O184 4782   4.900   0.250   6.649  0.3267  0.4933  0.5046
   20MOL   C185 4783   4.942   0.217   6.774 -0.1117 -0.1204  0.0041
   20MOL   C186 4784   4.980   0.339   6.858 -0.1202  0.2489  0.4121
   20MOL   O187 4785   4.955   0.102   6.821 -0.3594 -0.5531 -0.2591
   20MOL   H188 4786   4.907   0.286   6.397 -0.5308 -0.6851 -0.5284
   20MOL   H189 4787   4.930   0.117   6.354  0.2307  0.5005 -0.1979
   20MOL   H190 4788   4.923   0.057   6.603 -2.2245 -1.0768  1.1712
   20MOL   H191 4789   4.994   0.327   6.965 -0.9236  0.7362  0.5807
   20MOL   H192 4790   4.910   0.423   6.849 -0.9046 -0.3401  0.9169
   20MOL   H193 4791   5.074   0.377   6.819  0.5733  0.6741  2.4521
   20MOL   C194 4792   4.725   0.135   6.534  0.4566  0.1223  0.7345
   20MOL   C195 4793   4.650   0.055   6.635 -0.0868 -0.1118  0.2699
   20MOL   O196 4794   4.508   0.077   6.621 -0.3240  0.2671 -0.1348
   20MOL   C197 4795   4.439   0.158   6.703  0.7409 -0.8479 -0.3288
   20MOL   C198 4796   4.288   0.146   6.673 -0.0136 -0.7359  0.7728
   20MOL   O199 4797   4.486   0.224   6.797  0.0135  0.1544 -0.6197
   20MOL   H200 4798   4.674   0.232   6.534  1.0371  0.4424  2.5078
   20MOL   H201 4799   4.701   0.096   6.435 -1.4830  0.3281  1.0995
   20MOL   H202 4800   4.679   0.083   6.736 -0.8712  1.7636 -0.0095
   20MOL   H203 4801   4.241   0.101   6.760  0.1746 -1.2093  0.6292
   20MOL   H204 4802   4.265   0.094   6.580 -0.7269 -0.5099  0.8251
   20MOL   H205 4803   4.258   0.251   6.667  1.5947 -0.2335  1.1900
   20MOL   C206 4804   4.674   7.930   6.614 -0.3077  0.2773 -0.5528
   20MOL   C207 4805   4.624   7.829   6.713 -0.3614  0.1411  0.3799
   20MOL   O208 4806   4.689   7.866   6.840 -0.2319 -0.2508  0.0045
   20MOL   C209 4807   4.778   7.788   6.893  0.0929 -0.1224 -0.4100
   20MOL   C210 4808   4.831   7.842   7.019 -0.1013  0.6902 -1.3053
   20MOL   O211 4809   4.809   7.672   6.859  0.3658 -0.5308  0.2663
   20MOL   H212 4810   4.633   7.896   6.519 -1.5043  0.9089 -0.2723
   20MOL   H213 4811   4.782   7.923   6.602 -0.2192 -0.4569  0.5797
   20MOL   H214 4812   4.665   7.732   6.689 -0.1267 -0.0973  1.6915
   20MOL   H215 4813   4.782   7.937   7.043  0.9112  0.4400  1.9450
   20MOL   H216 4814   4.940   7.847   7.025 -0.1941  0.3109  1.2925
   20MOL   H217 4815   4.791   7.781   7.100 -0.0040  2.4691  0.1156
   20MOL   C218 4816   4.475   7.809   6.719  0.1009 -0.0476 -0.2217
   20MOL   C219 4817   4.445   7.685   6.803  0.0917 -0.2702  0.0697
   20MOL   O220 4818   4.314   7.697   6.856  0.0366 -0.4604 -0.0172
   20MOL   C221 4819   4.293   7.686   6.989  0.1158  0.0811  0.7399
   20MOL   C222 4820   4.146   7.690   7.024 -0.2039 -0.4309  0.0691
   20MOL   O223 4821   4.378   7.657   7.076  0.1206  0.5034 -0.3145
   20MOL   H224 4822   4.438   7.892   6.779  0.0284 -0.8769  0.8846
   20MOL   H225 4823   4.425   7.813   6.622  1.0886 -0.0403 -0.7361
   20MOL   H226 4824   4.518   7.685   6.884  0.4148 -1.0551 -0.2186
   20MOL   H227 4825   4.110   7.589   7.003 -0.8042  0.0068 -1.0257
   20MOL   H228 4826   4.094   7.765   6.965 -0.3814 -1.1496 -0.6890
   20MOL   H229 4827   4.134   7.714   7.130  1.6635 -1.5263  0.5531
   20MOL   C230 4828   4.455   7.552   6.730  0.4734 -0.1179  0.3356
   20MOL   C231 4829   4.518   7.450   6.831  0.2425  0.0249 -0.1411
   20MOL   O232 4830   4.500   7.316   6.784 -0.0958 -0.3489 -0.4558
   20MOL   C233 4831   4.603   7.229   6.766  0.6912  0.7870  0.0057
   20MOL   C234 4832   4.563   7.100   6.692 -0.3457  0.6435 -0.4311
   20MOL   O235 4833   4.717   7.238   6.806  0.0856  0.3768 -0.3250
   20MOL   H236 4834   4.360   7.511   6.696  1.2095 -1.2734 -0.3464
   20MOL   H237 4835   4.517   7.565   6.642 -0.5321  0.6735 -0.2738
   20MOL   H238 4836   4.477   7.460   6.932 -3.0333  1.9970 -1.6126
   20MOL   H239 4837   4.592   7.108   6.587  3.1520  4.7419  0.6956
   20MOL   H240 4838   4.455   7.089   6.704 -0.1437  0.2469  1.2267
   20MOL   H241 4839   4.617   7.013   6.731 -2.7961 -0.4944  0.5252
   20MOL   H242 4840   4.625   7.471   6.842 -0.0781 -0.4360  5.0985
   21MOL     C1 4841   8.021   2.635   2.644 -0.3667  0.2185 -0.2411
   21MOL     C2 4842   7.893   2.557   2.678 -0.9337  0.4234 -0.2356
   21MOL     O3 4843   7.782   2.641   2.658 -0.2088 -0.2421  0.5734
   21MOL     C4 4844   7.720   2.712   2.755 -0.1919  0.0857 -0.7783
   21MOL     C5 4845   7.589   2.760   2.713  0.0625 -0.2778 -0.3947
   21MOL     O6 4846   7.757   2.727   2.874 -0.2253  0.0123 -0.1871
   21MOL     H7 4847   0.013   2.712   2.720 -0.0533 -0.1417  0.0710
   21MOL     H8 4848   8.008   2.679   2.544  1.6505  0.5701 -0.3670
   21MOL     H9 4849   7.897   2.522   2.782 -1.5624 -0.3356 -0.4605
   21MOL    H10 4850   7.513   2.683   2.698 -0.7525  0.4808 -0.2012
   21MOL    H11 4851   7.594   2.820   2.622 -2.3802  0.5257 -0.0335
   21MOL    H12 4852   7.551   2.835   2.781  2.4098  2.3154 -1.8331
   21MOL    H13 4853   0.089   2.573   2.650  0.1624  0.4761 -3.9536
   21MOL    C14 4854   7.883   2.444   2.573 -0.0619 -0.5705  0.0099
   21MOL    C15 4855   7.991   2.335   2.549 -0.9757  0.6596  0.4274
   21MOL    O16 4856   7.986   2.255   2.668 -0.2804  0.0052 -0.8374
   21MOL    C17 4857   0.065   2.256   2.752 -0.5249  0.3653 -0.1616
   21MOL    C18 4858   0.052   2.157   2.867 -0.4825 -0.1602 -0.1632
   21MOL    O19 4859   0.176   2.305   2.735 -0.1737 -0.1517  0.1833
   21MOL    H20 4860   7.792   2.389   2.598 -0.9755 -0.2370 -2.3469
   21MOL    H21 4861   7.863   2.497   2.479 -0.8985  0.2616  0.6500
   21MOL    H22 4862   0.071   2.369   2.526 -0.6623 -1.6294 -1.7535
   21MOL    H23 4863   7.970   2.166   2.900 -0.2935 -0.7678  0.6213
   21MOL    H24 4864   0.115   2.180   2.953 -1.6943 -1.0244  0.9985
   21MOL    H25 4865   0.070   2.052   2.844 -0.3722 -0.7389  2.3822
   21MOL    C26 4866   7.942   2.234   2.444  0.2794 -0.3091 -0.3032
   21MOL    C27 4867   7.921   2.297   2.303  0.4591 -0.2316  0.1358
   21MOL    O28 4868   0.020   2.344   2.244 -0.2829  0.8026 -0.2944
   21MOL    C29 4869   0.044   2.474   2.251 -0.4472  0.3942 -0.0131
   21MOL    C30 4870   0.156   2.515   2.165 -0.4230  0.4361 -0.0133
   21MOL    O31 4871   7.996   2.558   2.299 -0.5017 -0.0699  0.0134
   21MOL    H32 4872   8.009   2.148   2.444 -0.7269 -1.1035 -0.9044
   21MOL    H33 4873   7.846   2.202   2.485 -0.3308 -0.6640 -1.9543
   21MOL    H34 4874   7.851   2.381   2.301 -0.2289 -0.8115 -1.6394
   21MOL    H35 4875   0.245   2.460   2.195  0.0787 -0.0061 -2.2320
   21MOL    H36 4876   0.166   2.622   2.177  2.0528  0.3711 -1.1227
   21MOL    H37 4877   0.134   2.488   2.062 -1.6811 -1.9997  0.8547
   21MOL    C38 4878   7.858   2.205   2.196  0.6818 -0.0137 -0.0483
   21MOL    C39 4879   7.707   2.163   2.216  0.1927  0.0833  0.4282
   21MOL    O40 4880   7.714   2.051   2.303 -0.3092 -0.0955 -0.1215
   21MOL    C41 4881   7.753   1.934   2.246 -0.1241 -0.1122 -0.4249
   21MOL    C42 4882   7.776   1.826   2.355  0.5987 -0.3384 -0.0393
   21MOL    O43 4883   7.759   1.914   2.123  0.6900  0.2068  0.2193
   21MOL    H44 4884   7.851   2.257   2.100 -1.9842 -0.9883 -0.4198
   21MOL    H45 4885   7.926   2.121   2.182  0.3350 -0.3497  0.2800
   21MOL    H46 4886   7.669   2.132   2.119  1.8718  0.8701 -0.4915
   21MOL    H47 4887   7.759   1.728   2.311 -3.4276  1.5295 -3.0550
   21MOL    H48 4888   7.707   1.840   2.438  0.4676  1.5223 -0.4236
   21MOL    H49 4889   7.880   1.831   2.389  0.9669 -0.0876 -1.1764
   21MOL    C50 4890   7.608   2.262   2.275 -0.4287  0.6318 -0.3214
   21MOL    C51 4891   7.592   2.403   2.209 -0.1928  0.3397 -0.1607
   21MOL    O52 4892   7.492   2.405   2.105  0.0701 -0.0639 -0.3481
   21MOL    C53 4893   7.516   2.362   1.978 -0.6391 -0.4930  0.1884
   21MOL    C54 4894   7.387   2.355   1.893 -0.4692  0.2898 -0.9510
   21MOL    O55 4895   7.622   2.324   1.933  0.7015 -0.2488  0.4473
   21MOL    H56 4896   7.509   2.216   2.272 -1.2081  2.2985 -0.4908
   21MOL    H57 4897   7.628   2.272   2.382  0.3726 -0.3337 -0.3722
   21MOL    H58 4898   7.687   2.439   2.170 -0.7063  0.4690 -1.3265
   21MOL    H59 4899   7.409   2.361   1.787 -0.4069  0.7668 -0.9107
   21MOL    H60 4900   7.318   2.430   1.929 -1.3017 -0.9182  0.0242
   21MOL    H61 4901   7.332   2.264   1.917 -2.4664  0.9866 -2.8241
   21MOL    C62 4902   7.559   2.518   2.311  0.4665  0.0378  0.6191
   21MOL    C63 4903   7.589   2.667   2.262  0.1901  0.8105 -0.2187
   21MOL    O64 4904   7.516   2.745   2.360 -0.3842 -0.6249  0.8581
   21MOL    C65 4905   7.411   2.824   2.330 -0.4561 -0.7272  0.0609
   21MOL    C66 4906   7.363   2.920   2.441 -0.3369  0.1414  0.5273
   21MOL    O67 4907   7.364   2.821   2.220  0.3096  0.0358  0.5153
   21MOL    H68 4908   7.450   2.518   2.320  0.2235  0.1586 -1.8390
   21MOL    H69 4909   7.599   2.507   2.411  0.3101 -1.7106  0.5045
   21MOL    H70 4910   7.553   2.685   2.160  0.1324  0.0391 -0.3341
   21MOL    H71 4911   7.373   2.869   2.536  0.4898  0.5400  0.6658
   21MOL    H72 4912   7.256   2.936   2.429 -0.6625 -3.5508 -2.1461
   21MOL    H73 4913   7.418   3.014   2.432  0.8440 -0.6247 -0.4237
   21MOL    C74 4914   7.732   2.701   2.269 -0.0150 -0.6505  0.0870
   21MOL    C75 4915   7.772   2.856   2.245 -0.5594 -0.0002  0.4387
   21MOL    O76 4916   7.906   2.853   2.216 -0.1288  0.5526 -0.4647
   21MOL    C77 4917   7.991   2.876   2.310 -0.2467  0.2008  0.4651
   21MOL    C78 4918   0.108   2.911   2.262  0.3369  0.1087 -0.3947
   21MOL    O79 4919   7.957   2.888   2.430  0.7116 -0.2333 -0.2274
   21MOL    H80 4920   7.766   2.683   2.371  0.2778  0.4767  0.1943
   21MOL    H81 4921   7.773   2.634   2.192  3.1701  0.6070  0.6312
   21MOL    H82 4922   7.751   2.910   2.337 -0.8304  1.6000 -0.5419
   21MOL    H83 4923   0.136   2.871   2.164 -1.3042 -1.4976 -0.2345
   21MOL    H84 4924   0.177   2.864   2.332  0.6311  0.6854 -0.2942
   21MOL    H85 4925   0.133   3.017   2.265  0.0513  0.1294  1.9815
   21MOL    C86 4926   7.702   2.929   2.120 -0.1233  0.0298 -0.4517
   21MOL    C87 4927   7.709   3.083   2.113 -0.1867  0.1339 -0.1652
   21MOL    O88 4928   7.842   3.113   2.078 -0.0722  0.0037  0.3630
   21MOL    C89 4929   7.924   3.176   2.168  1.0758  0.7957  0.4448
   21MOL    C90 4930   0.026   3.215   2.100 -0.1272  0.5911  0.3246
   21MOL    O91 4931   7.895   3.213   2.280 -0.3841  0.1687  0.5366
   21MOL    H92 4932   7.741   2.895   2.024  0.6475  0.1984 -0.1992
   21MOL    H93 4933   7.599   2.893   2.117  0.2625 -1.2337  1.0744
   21MOL    H94 4934   7.680   3.125   2.209 -1.0883  0.9509 -0.7777
   21MOL    H95 4935   0.103   3.253   2.168  1.2892  0.1823 -1.0152
   21MOL    H96 4936   0.033   3.302   2.034 -1.0332  1.0050  0.7681
   21MOL    H97 4937   0.073   3.131   2.049  0.6573 -0.1037  2.1610
   21MOL    C98 4938   7.608   3.141   2.005 -0.2871 -0.0252  0.2754
   21MOL    C99 4939   7.611   3.292   1.990 -0.0832  0.3314 -0.8456
   21MOL   O100 4940   7.683   3.325   1.882 -0.3656 -1.0099 -0.0560
   21MOL   C101 4941   7.787   3.416   1.897  0.0761  0.0706 -0.5809
   21MOL   C102 4942   7.871   3.421   1.774  0.2141  0.1588 -1.1430
   21MOL   O103 4943   7.821   3.482   1.994  0.5559  0.0868  0.2834
   21MOL   H104 4944   7.612   3.080   1.915  0.9540  0.0531  0.2634
   21MOL   H105 4945   7.508   3.118   2.040 -1.0091  1.7067 -0.6173
   21MOL   H106 4946   7.652   3.342   2.077 -1.3579 -0.3455  0.1665
   21MOL   H107 4947   7.820   3.358   1.701 -1.5002  0.9382 -0.6436
   21MOL   H108 4948   7.965   3.375   1.804 -1.4874 -0.8128  2.9815
   21MOL   H109 4949   7.882   3.525   1.743 -0.2925  0.2217 -1.1129
   21MOL   C110 4950   7.475   3.359   1.956  0.5614 -0.1193 -0.2079
   21MOL   C111 4951   7.374   3.374   2.074  0.8598 -0.1921  0.3401
   21MOL   O112 4952   7.443   3.437   2.180 -0.0532 -0.1823  0.9351
   21MOL   C113 4953   7.457   3.361   2.289  0.2211  0.4973  0.4218
   21MOL   C114 4954   7.534   3.444   2.392  0.4995  0.5509 -0.3938
   21MOL   O115 4955   7.418   3.242   2.304  0.0631 -0.2975  0.2059
   21MOL   H116 4956   7.489   3.462   1.926  1.2734  0.6104  2.5063
   21MOL   H117 4957   7.434   3.299   1.875 -1.7006 -0.9778  1.5170
   21MOL   H118 4958   7.347   3.274   2.109 -0.6388 -0.0382 -0.3548
   21MOL   H119 4959   7.606   3.520   2.359 -0.3676  0.0821 -3.5961
   21MOL   H120 4960   7.580   3.373   2.460 -1.9190 -2.2928 -1.5897
   21MOL   H121 4961   7.452   3.485   2.450  0.9869  0.4521  0.3661
   21MOL   C122 4962   7.255   3.466   2.051  0.0824  0.2835  0.0477
   21MOL   C123 4963   7.144   3.432   1.939 -0.2648  0.5581 -0.3333
   21MOL   O124 4964   7.068   3.324   1.997 -0.0637 -0.0773 -0.7442
   21MOL   C125 4965   7.090   3.193   1.968  0.0196 -0.4902  0.4923
   21MOL   C126 4966   7.003   3.098   2.049 -0.4062 -0.1335  0.3678
   21MOL   O127 4967   7.168   3.150   1.885 -0.0805  0.1914 -0.3594
   21MOL   H128 4968   7.206   3.468   2.148  0.9358 -2.3706  0.5874
   21MOL   H129 4969   7.289   3.567   2.028  1.1206 -0.3633 -1.3509
   21MOL   H130 4970   7.202   3.403   1.851  0.0820  0.5888 -0.1137
   21MOL   H131 4971   6.963   3.149   2.137 -1.8897  0.6735 -0.7414
   21MOL   H132 4972   7.055   3.006   2.078  1.1204  0.3972 -0.6774
   21MOL   H133 4973   6.911   3.065   2.001 -0.4203 -0.0076  0.3086
   21MOL   C134 4974   7.045   3.540   1.892  0.3596 -0.1311 -0.2094
   21MOL   C135 4975   6.979   3.494   1.762  0.0744 -0.5680 -0.2086
   21MOL   O136 4976   6.876   3.587   1.736  0.1523 -0.4577  0.2093
   21MOL   C137 4977   6.765   3.549   1.668  0.1756  0.5141  0.1863
   21MOL   C138 4978   6.654   3.652   1.661  0.4728  0.3303 -0.2249
   21MOL   O139 4979   6.760   3.441   1.604  0.6757 -0.0644 -0.5270
   21MOL   H140 4980   6.968   3.556   1.967 -0.6074 -1.1123 -0.9586
   21MOL   H141 4981   7.098   3.633   1.874 -0.5093  0.6556  1.1840
   21MOL   H142 4982   6.934   3.396   1.779  1.9849 -1.6352 -1.1724
   21MOL   H143 4983   6.613   3.657   1.762 -1.6881  1.4191 -1.1160
   21MOL   H144 4984   6.573   3.624   1.593  1.8983 -1.2602 -1.2985
   21MOL   H145 4985   6.697   3.748   1.632  3.0540 -0.7196  0.0192
   21MOL   C146 4986   7.077   3.501   1.641 -0.3802 -0.0781  0.1701
   21MOL   C147 4987   7.061   3.407   1.521  0.5549  0.6895 -0.5286
   21MOL   O148 4988   7.125   3.458   1.411 -0.3291  0.2139 -0.4275
   21MOL   C149 4989   7.056   3.527   1.319 -0.2055  0.5026 -0.0537
   21MOL   C150 4990   7.148   3.592   1.218 -0.0414 -0.0992 -0.1903
   21MOL   O151 4991   6.930   3.525   1.311  0.1206  0.1269  0.5942
   21MOL   H152 4992   7.074   3.604   1.605  0.4629 -0.6707 -1.6088
   21MOL   H153 4993   7.182   3.492   1.666  0.0795  0.0491 -1.6777
   21MOL   H154 4994   6.953   3.397   1.508  0.4953  0.1462  0.3196
   21MOL   H155 4995   7.134   3.699   1.226  3.5196  0.2249  2.7148
   21MOL   H156 4996   7.135   3.555   1.116  1.5878 -0.2249 -0.3706
   21MOL   H157 4997   7.252   3.562   1.235 -0.1969 -1.6859 -1.7690
   21MOL   C158 4998   7.106   3.268   1.567  0.6338  0.0193 -0.0261
   21MOL   C159 4999   7.081   3.166   1.451  0.1659  0.0234 -0.1227
   21MOL   O160 5000   7.170   3.160   1.341 -0.8125 -0.3849 -0.3144
   21MOL   C161 5001   7.126   3.163   1.208 -0.0672  0.4919  0.3999
   21MOL   C162 5002   7.241   3.126   1.113  0.3426 -0.3350  0.2507
   21MOL   O163 5003   7.007   3.181   1.174 -0.6932 -0.0143  0.0567
   21MOL   H164 5004   7.214   3.276   1.578  0.7476 -0.3521 -0.8035
   21MOL   H165 5005   7.057   3.243   1.661  1.9259  1.3476  1.0168
   21MOL   H166 5006   6.983   3.183   1.406 -0.5366 -3.4431 -0.0332
   21MOL   H167 5007   7.225   3.019   1.097 -0.9412 -0.3341  1.4283
   21MOL   H168 5008   7.340   3.147   1.154  0.1440  0.0624  0.5274
   21MOL   H169 5009   7.242   3.179   1.018 -1.1244  2.7546  1.9041
   21MOL   C170 5010   7.065   3.012   1.491  0.0283 -0.1988 -0.2875
   21MOL   C171 5011   6.968   2.968   1.610  0.1143  0.2931 -0.0813
   21MOL   O172 5012   6.838   3.010   1.590  0.2669  0.3966  0.1314
   21MOL   C173 5013   6.782   3.105   1.661  0.0791 -0.1720  0.0876
   21MOL   C174 5014   6.631   3.118   1.634 -0.5553  0.4880  0.6533
   21MOL   O175 5015   6.836   3.172   1.750  0.4315 -0.1898  0.3238
   21MOL   H176 5016   7.036   2.962   1.398  0.7693  0.4640 -0.8820
   21MOL   H177 5017   7.163   2.970   1.509  0.7991  1.5736 -0.1897
   21MOL   H178 5018   7.016   3.023   1.691  0.7592 -0.2751 -0.0808
   21MOL   H179 5019   6.602   3.069   1.541 -1.0066 -1.4482  1.7812
   21MOL   H180 5020   6.617   3.226   1.624  1.1324  0.6817  0.2337
   21MOL   H181 5021   6.577   3.068   1.715 -1.2749 -1.8202 -1.1963
   21MOL   C182 5022   6.967   2.818   1.670 -0.3313  0.0180 -0.1971
   21MOL   C183 5023   6.867   2.724   1.609  0.4015 -0.0873 -0.1831
   21MOL   O184 5024   6.899   2.717   1.470  0.0252 -0.3939 -0.4748
   21MOL   C185 5025   6.807   2.672   1.382 -0.5236 -0.5938 -0.1348
   21MOL   C186 5026   6.868   2.655   1.241  0.1695 -1.1118  0.2508
   21MOL   O187 5027   6.687   2.658   1.402 -0.2073 -0.1786  0.1112
   21MOL   H188 5028   7.061   2.764   1.659 -0.5769 -0.4616  0.0686
   21MOL   H189 5029   6.953   2.837   1.777 -0.7011  0.5590 -0.3364
   21MOL   H190 5030   6.764   2.759   1.617  0.6347  0.7593 -0.8099
   21MOL   H191 5031   6.969   2.614   1.243  0.4678 -0.3454  1.0677
   21MOL   H192 5032   6.863   2.755   1.199  0.0154 -0.4458  1.8409
   21MOL   H193 5033   6.806   2.598   1.171  1.1938  0.3551 -1.9076
   21MOL   C194 5034   6.892   2.578   1.672  0.6428  0.4840 -0.2848
   21MOL   C195 5035   6.777   2.485   1.655 -0.1414  0.0646  0.3865
   21MOL   O196 5036   6.811   2.343   1.667 -0.0334 -0.4051  0.6180
   21MOL   C197 5037   6.881   2.281   1.569  0.0116  0.0823 -0.3454
   21MOL   C198 5038   6.920   2.136   1.602  0.4032  0.4931  0.3939
   21MOL   O199 5039   6.919   2.336   1.462  0.5353  0.0826 -0.2676
   21MOL   H200 5040   6.984   2.540   1.627  0.0420 -1.7953  0.3316
   21MOL   H201 5041   6.909   2.583   1.780  0.2548 -2.0518 -0.0648
   21MOL   H202 5042   6.737   2.502   1.555 -0.2832  1.0474  0.6041
   21MOL   H203 5043   6.908   2.129   1.710 -0.8715  1.7387  0.3432
   21MOL   H204 5044   7.024   2.115   1.578  0.9941  2.2962  1.2609
   21MOL   H205 5045   6.860   2.072   1.538  1.0246  1.3283 -1.0448
   21MOL   C206 5046   6.668   2.523   1.760  0.0361 -0.4035  1.0655
   21MOL   C207 5047   6.529   2.459   1.735 -0.0280 -0.5079  0.3831
   21MOL   O208 5048   6.520   2.323   1.763 -0.8302  0.3218 -0.1560
   21MOL   C209 5049   6.511   2.220   1.674  0.9450  0.1070  0.3167
   21MOL   C210 5050   6.489   2.086   1.735  0.1665 -0.4453  0.0900
   21MOL   O211 5051   6.508   2.228   1.554 -0.6320 -0.1036  0.1649
   21MOL   H212 5052   6.697   2.487   1.858 -0.1618 -1.1838  0.8481
   21MOL   H213 5053   6.663   2.631   1.770 -2.5444 -0.4551  0.8392
   21MOL   H214 5054   6.510   2.473   1.629  2.0534  0.7583  0.1532
   21MOL   H215 5055   6.590   2.064   1.769  0.5221 -1.1468 -1.3598
   21MOL   H216 5056   6.468   2.013   1.657 -1.9208  0.1413  0.0803
   21MOL   H217 5057   6.426   2.088   1.824 -1.5131 -1.2623 -1.0393
   21MOL   C218 5058   6.408   2.527   1.817  0.1728 -0.1347  0.1570
   21MOL   C219 5059   6.376   2.675   1.797  0.5237 -0.0028 -0.3811
   21MOL   O220 5060   6.342   2.687   1.661 -0.1807 -0.1140  0.3741
   21MOL   C221 5061   6.416   2.760   1.574  0.7719 -0.5660  0.2649
   21MOL   C222 5062   6.353   2.753   1.434 -0.2650 -0.1582 -0.4680
   21MOL   O223 5063   6.516   2.829   1.600 -0.0196 -0.2784  0.4117
   21MOL   H224 5064   6.317   2.468   1.804  0.5661 -1.0784  1.5199
   21MOL   H225 5065   6.432   2.513   1.922  1.1901  2.6264  0.3340
   21MOL   H226 5066   6.465   2.738   1.807  0.1347  0.6897 -1.2052
   21MOL   H227 5067   6.263   2.813   1.447  1.3733  2.5118 -1.0801
   21MOL   H228 5068   6.331   2.651   1.403  2.6972 -1.1387  0.4622
   21MOL   H229 5069   6.413   2.806   1.359  0.1271 -0.7443 -0.5718
   21MOL   C230 5070   6.266   2.724   1.885  0.1083  0.1045 -0.2648
   21MOL   C231 5071   6.303   2.751   2.036  0.1384 -0.2953  0.0729
   21MOL   O232 5072   6.191   2.806   2.101  0.2412  0.3222 -0.0762
   21MOL   C233 5073   6.197   2.835   2.228  0.0508  0.4525 -1.0069
   21MOL   C234 5074   6.070   2.866   2.296 -0.6153 -0.0284 -0.4084
   21MOL   O235 5075   6.301   2.845   2.296  0.1583  0.4602 -0.0377
   21MOL   H236 5076   6.232   2.818   1.842  0.0280  0.4232  0.4811
   21MOL   H237 5077   6.182   2.655   1.875  1.5940 -1.7806 -0.0199
   21MOL   H238 5078   6.387   2.819   2.029 -1.3028  1.5619  0.3258
   21MOL   H239 5079   6.080   2.839   2.401  1.6010 -2.1017 -1.1078
   21MOL   H240 5080   5.982   2.817   2.255 -1.6051  1.5980 -0.3021
   21MOL   H241 5081   6.040   2.970   2.285 -0.4207 -0.1657 -2.4630
   21MOL   H242 5082   6.335   2.659   2.085 -0.1235 -0.2242  0.3773
   22MOL     C1 5083   7.736   3.700   0.798 -0.0460  0.0684  0.3101
   22MOL     C2 5084   7.793   3.664   0.657 -0.5550  0.2149 -0.6771
   22MOL     O3 5085   7.935   3.647   0.666 -0.0630 -0.8575 -0.0972
   22MOL     C4 5086   8.016   3.757   0.659 -0.4903 -0.5758  0.1226
   22MOL     C5 5087   0.137   3.722   0.684  0.2835  0.0286 -0.0303
   22MOL     O6 5088   7.973   3.870   0.643 -0.4498 -0.0269 -0.1445
   22MOL     H7 5089   7.628   3.685   0.807 -0.2522  0.6083 -1.1280
   22MOL     H8 5090   7.768   3.794   0.842  0.0648  0.7532 -1.2052
   22MOL     H9 5091   7.776   3.745   0.586 -0.0804  2.2012  1.4256
   22MOL    H10 5092   0.128   3.697   0.789  0.2720  1.3535  0.2853
   22MOL    H11 5093   0.200   3.808   0.660  1.1659 -1.4294 -3.2985
   22MOL    H12 5094   0.188   3.637   0.637  0.7960  0.5856 -0.4941
   22MOL    H13 5095   7.783   3.621   0.857  0.6196  0.2109 -0.0284
   22MOL    C14 5096   7.738   3.526   0.614 -0.6073  0.1671  0.2689
   22MOL    C15 5097   7.597   3.517   0.546  1.2229 -0.0866  0.8073
   22MOL    O16 5098   7.609   3.583   0.415 -0.5376 -0.0431 -0.0062
   22MOL    C17 5099   7.564   3.708   0.392 -0.2386 -0.2849  0.5007
   22MOL    C18 5100   7.601   3.761   0.251  0.0573  0.3078 -0.4727
   22MOL    O19 5101   7.516   3.778   0.477  0.0019  0.8307 -0.4443
   22MOL    H20 5102   7.801   3.472   0.544 -1.3524  0.9106 -0.9846
   22MOL    H21 5103   7.739   3.458   0.700 -2.1169 -1.7946 -1.2216
   22MOL    H22 5104   7.514   3.555   0.605 -0.4593 -1.1648 -0.8332
   22MOL    H23 5105   7.527   3.756   0.171 -0.1314  0.2649 -0.2972
   22MOL    H24 5106   7.686   3.699   0.223 -0.3367 -0.7083  0.5462
   22MOL    H25 5107   7.642   3.862   0.248 -0.1597  0.5189  2.4034
   22MOL    C26 5108   7.548   3.371   0.510 -0.1408  0.1617 -0.1826
   22MOL    C27 5109   7.497   3.300   0.639 -0.2236  0.4015  0.3339
   22MOL    O28 5110   7.373   3.364   0.695  0.0715 -0.1521 -0.6744
   22MOL    C29 5111   7.364   3.397   0.822 -0.0494 -0.5425 -0.8821
   22MOL    C30 5112   7.241   3.468   0.857  0.1719 -0.5545  0.4755
   22MOL    O31 5113   7.447   3.370   0.910 -0.0027 -0.5183  0.4812
   22MOL    H32 5114   7.469   3.368   0.435 -1.3320 -1.8823  1.1010
   22MOL    H33 5115   7.631   3.309   0.475 -0.2398  0.7270 -1.4551
   22MOL    H34 5116   7.587   3.307   0.700 -0.5571 -1.1302  1.0196
   22MOL    H35 5117   7.265   3.571   0.885  0.0839 -0.2744 -0.4651
   22MOL    H36 5118   7.194   3.428   0.947 -0.4274  0.5490  0.6673
   22MOL    H37 5119   7.181   3.485   0.768 -1.0782 -1.2241  1.1773
   22MOL    C38 5120   7.475   3.148   0.617  0.1747 -0.4292  0.2237
   22MOL    C39 5121   7.489   3.071   0.747 -0.4011 -0.4576  0.1923
   22MOL    O40 5122   7.451   2.932   0.717  0.1812  0.3438  0.7297
   22MOL    C41 5123   7.324   2.896   0.741 -0.3752  0.4885  0.0844
   22MOL    C42 5124   7.289   2.752   0.694  0.5003 -0.4504  0.3230
   22MOL    O43 5125   7.234   2.959   0.789 -0.2948  0.0049 -0.3235
   22MOL    H44 5126   7.377   3.123   0.576  1.6356 -1.7485 -2.6417
   22MOL    H45 5127   7.542   3.112   0.539 -1.4741 -2.3350 -0.3491
   22MOL    H46 5128   7.428   3.118   0.823  1.5568  0.5635  1.1717
   22MOL    H47 5129   7.182   2.745   0.676  0.7355 -0.4042 -1.1644
   22MOL    H48 5130   7.323   2.675   0.764 -1.6418 -0.6579  1.1492
   22MOL    H49 5131   7.328   2.729   0.595 -2.0584  2.4126 -1.4179
   22MOL    C50 5132   7.639   3.063   0.794 -0.9220 -0.6665 -0.3193
   22MOL    C51 5133   7.659   3.018   0.938  0.3198  0.0058 -0.1252
   22MOL    O52 5134   7.616   2.878   0.934  0.1993 -0.2318  0.1424
   22MOL    C53 5135   7.528   2.829   1.029  0.8063 -0.5865  0.4922
   22MOL    C54 5136   7.506   2.681   1.010  0.0775 -0.6894 -0.2286
   22MOL    O55 5137   7.476   2.899   1.118  0.2543  0.9851  0.7976
   22MOL    H56 5138   7.694   3.006   0.719  0.9603 -0.6446  1.0096
   22MOL    H57 5139   7.690   3.159   0.786  0.8603 -1.6982 -1.7557
   22MOL    H58 5140   7.601   3.079   1.007  1.3047  0.0790  0.6471
   22MOL    H59 5141   7.591   2.623   1.045 -1.1015 -1.0014  2.2670
   22MOL    H60 5142   7.479   2.640   0.912  0.5703 -0.5022 -0.4436
   22MOL    H61 5143   7.422   2.653   1.074 -0.0472  3.3624  1.5704
   22MOL    C62 5144   7.814   3.017   0.985  0.9557  0.1360  0.0509
   22MOL    C63 5145   7.891   3.153   0.969 -0.1065 -0.1957  0.1698
   22MOL    O64 5146   7.850   3.238   1.075 -0.2795 -0.2558 -0.1580
   22MOL    C65 5147   7.764   3.337   1.049 -0.6342  1.0319  0.2577
   22MOL    C66 5148   7.711   3.407   1.177  0.6054  0.3504  0.2536
   22MOL    O67 5149   7.729   3.374   0.940  0.0770  0.1249 -0.3979
   22MOL    H68 5150   7.823   2.975   1.086 -3.0599  2.1024  1.3146
   22MOL    H69 5151   7.865   2.947   0.918 -1.5598 -1.3839 -0.3477
   22MOL    H70 5152   7.885   3.192   0.868 -0.7445 -0.2081  0.2018
   22MOL    H71 5153   7.650   3.490   1.141  3.2730  1.8286 -0.9470
   22MOL    H72 5154   7.787   3.454   1.239 -0.8952  0.5393  2.0142
   22MOL    H73 5155   7.660   3.337   1.244  1.7380 -1.5684 -0.8456
   22MOL    C74 5156   0.023   3.148   0.977 -0.6428  0.3617  0.5744
   22MOL    C75 5157   0.087   3.052   0.874 -0.3144  0.0296 -0.0485
   22MOL    O76 5158   0.077   3.108   0.740  0.2443  0.3012 -0.0951
   22MOL    C77 5159   0.013   3.049   0.644  0.0130  0.0057 -0.3888
   22MOL    C78 5160   0.040   3.101   0.513 -0.3498 -0.0403  0.0029
   22MOL    O79 5161   7.953   2.962   0.661  0.0464  0.4033 -0.6266
   22MOL    H80 5162   0.068   3.247   0.967  0.4553 -0.5401 -4.8700
   22MOL    H81 5163   0.053   3.114   1.076  0.6701  1.1819  0.4643
   22MOL    H82 5164   0.035   2.956   0.881  2.8853 -1.7836 -0.1779
   22MOL    H83 5165   0.086   3.018   0.460 -0.3119  0.3668 -0.6073
   22MOL    H84 5166   0.108   3.186   0.497 -1.8765  1.1928 -0.0643
   22MOL    H85 5167   7.968   3.138   0.471 -1.5023  0.7380  3.1504
   22MOL    C86 5168   0.232   3.009   0.912 -0.0890  0.1842  0.1717
   22MOL    C87 5169   0.332   3.127   0.905  0.4201 -0.6318 -0.2037
   22MOL    O88 5170   0.327   3.201   1.028  0.2203  0.4996 -0.1246
   22MOL    C89 5171   0.339   3.336   1.028  0.0144 -0.8639 -0.3377
   22MOL    C90 5172   0.293   3.400   1.155 -0.5341 -0.6843 -0.1392
   22MOL    O91 5173   0.366   3.406   0.932  0.4919 -0.5059  0.1565
   22MOL    H92 5174   0.227   2.975   1.015 -2.3679  0.6594  0.2341
   22MOL    H93 5175   0.255   2.922   0.850 -0.8823 -1.9430  2.7661
   22MOL    H94 5176   0.298   3.199   0.829 -0.4927 -0.1521  0.6551
   22MOL    H95 5177   0.275   3.507   1.151 -2.3594 -0.9140  1.0449
   22MOL    H96 5178   0.355   3.371   1.239  0.2714  0.8111 -0.2051
   22MOL    H97 5179   0.191   3.366   1.174 -0.6463 -1.1545 -1.4782
   22MOL    C98 5180   0.473   3.079   0.884  0.0293 -0.6708  0.2578
   22MOL    C99 5181   0.509   3.047   0.736 -0.3191 -0.4344  0.8663
   22MOL   O100 5182   0.564   3.171   0.690 -0.2662 -0.0652  0.5590
   22MOL   C101 5183   0.481   3.254   0.618 -0.4902 -0.5685  0.4157
   22MOL   C102 5184   0.537   3.394   0.611 -0.1747 -0.0278  0.1880
   22MOL   O103 5185   0.371   3.228   0.568 -0.3713 -0.3214  0.6278
   22MOL   H104 5186   0.542   3.152   0.927  3.3960 -2.1595 -2.3749
   22MOL   H105 5187   0.485   2.988   0.942  0.0184 -0.1764  1.0444
   22MOL   H106 5188   0.428   3.010   0.673  3.4078 -3.1404 -2.6222
   22MOL   H107 5189   0.644   3.394   0.592 -0.1697  1.5336  0.1189
   22MOL   H108 5190   0.495   3.450   0.695 -0.9156  3.0761 -2.1410
   22MOL   H109 5191   0.486   3.439   0.525  0.5549 -0.8684 -0.6986
   22MOL   C110 5192   0.620   2.931   0.717 -0.5658 -0.0500 -0.0709
   22MOL   C111 5193   0.553   2.796   0.701  0.3308 -0.0259 -0.5621
   22MOL   O112 5194   0.507   2.785   0.569  0.3250  0.4147 -0.1058
   22MOL   C113 5195   0.375   2.774   0.539  0.3408  0.4696  0.4819
   22MOL   C114 5196   0.338   2.792   0.390  0.3186  0.3072 -0.0729
   22MOL   O115 5197   0.287   2.756   0.628 -0.6740 -0.1135 -0.6175
   22MOL   H116 5198   0.687   2.951   0.633  0.2416 -1.3385  0.2552
   22MOL   H117 5199   0.696   2.932   0.795  0.0037  0.3305 -0.6182
   22MOL   H118 5200   0.471   2.801   0.773  2.2898  0.5451  1.6860
   22MOL   H119 5201   0.329   2.898   0.366 -1.0505  0.4655  1.0928
   22MOL   H120 5202   0.242   2.748   0.366  1.1455 -1.9567  0.6665
   22MOL   H121 5203   0.421   2.745   0.336  0.1869  1.8297 -1.6833
   22MOL   C122 5204   0.635   2.677   0.744 -0.1575  0.3638  0.6592
   22MOL   C123 5205   0.629   2.664   0.901  1.0345  0.0260 -0.0889
   22MOL   O124 5206   0.528   2.572   0.938  0.4688  0.3325 -0.0619
   22MOL   C125 5207   0.403   2.621   0.966  0.5717 -0.0772  0.0088
   22MOL   C126 5208   0.314   2.506   1.000  0.2996 -0.2635  0.2929
   22MOL   O127 5209   0.365   2.736   0.967  0.4727 -0.6058  0.1967
   22MOL   H128 5210   0.604   2.585   0.694 -0.7037  1.2556 -0.6720
   22MOL   H129 5211   0.740   2.687   0.714 -1.0354  2.1573 -1.9895
   22MOL   H130 5212   0.608   2.760   0.948 -0.1817 -0.3858  0.2240
   22MOL   H131 5213   0.283   2.511   1.105 -1.7725 -0.3345 -0.2853
   22MOL   H132 5214   0.360   2.409   0.983  2.0387  0.3731  1.2549
   22MOL   H133 5215   0.215   2.510   0.953  0.3539 -0.2027  0.1842
   22MOL   C134 5216   0.760   2.610   0.965  0.0182 -0.5029 -0.5553
   22MOL   C135 5217   0.890   2.701   0.953  0.3676 -0.1690  0.0202
   22MOL   O136 5218   0.876   2.835   1.005 -0.1393  0.3293 -0.2340
   22MOL   C137 5219   0.825   2.855   1.131  0.1173 -0.5231  0.7704
   22MOL   C138 5220   0.790   3.000   1.151  0.2920  0.1116 -0.4257
   22MOL   O139 5221   0.785   2.771   1.212 -0.1744 -0.3191  0.6181
   22MOL   H140 5222   0.740   2.599   1.071  1.3173  3.7369  0.2372
   22MOL   H141 5223   0.779   2.505   0.942  0.5779  0.0939 -2.9268
   22MOL   H142 5224   0.905   2.709   0.845  0.1550 -1.6720 -0.1257
   22MOL   H143 5225   0.883   3.047   1.181  0.7750 -1.0612 -0.0378
   22MOL   H144 5226   0.706   3.017   1.219  0.5175  2.7135 -0.7579
   22MOL   H145 5227   0.753   3.035   1.055 -1.2675 -1.6942 -0.5160
   22MOL   C146 5228   1.013   2.616   0.992 -0.2759  0.0576 -0.1651
   22MOL   C147 5229   1.151   2.685   0.994 -0.0193  0.1163 -0.2022
   22MOL   O148 5230   1.245   2.594   1.045  0.6781  0.1525  0.3656
   22MOL   C149 5231   1.297   2.608   1.170  0.1156  0.1367  0.3894
   22MOL   C150 5232   1.413   2.508   1.182  0.3988  0.1222  0.3600
   22MOL   O151 5233   1.262   2.691   1.255 -0.7963 -0.0493 -0.5116
   22MOL   H152 5234   0.999   2.594   1.098  1.8254 -1.2391 -0.1237
   22MOL   H153 5235   1.012   2.524   0.933 -1.6801  0.9890 -1.6447
   22MOL   H154 5236   1.135   2.767   1.065 -2.5126  0.3912 -1.0455
   22MOL   H155 5237   1.458   2.506   1.083  0.8413  1.4286  0.5301
   22MOL   H156 5238   1.391   2.407   1.218  0.8600  0.0203  0.3582
   22MOL   H157 5239   1.490   2.542   1.251  1.3628  2.0944 -1.6264
   22MOL   C158 5240   1.203   2.744   0.869  0.3762 -0.2121 -0.0776
   22MOL   C159 5241   1.228   2.640   0.762 -0.5113  0.2636  0.7984
   22MOL   O160 5242   1.186   2.684   0.625 -0.2967 -0.7387  0.7849
   22MOL   C161 5243   1.074   2.652   0.572  0.1897  0.2053 -0.3356
   22MOL   C162 5244   1.076   2.676   0.424 -0.3466  0.0793  0.0273
   22MOL   O163 5245   0.983   2.592   0.628  0.2203 -0.0811 -1.1023
   22MOL   H164 5246   1.127   2.807   0.825 -0.7086 -2.3636 -1.3858
   22MOL   H165 5247   1.296   2.799   0.886  0.5963 -0.5618 -0.1339
   22MOL   H166 5248   1.179   2.546   0.789 -0.9807  0.9012  2.1969
   22MOL   H167 5249   1.047   2.584   0.373 -0.4783  0.5292 -0.7238
   22MOL   H168 5250   1.177   2.706   0.397 -1.0711  1.5233 -1.1653
   22MOL   H169 5251   1.001   2.747   0.387 -1.4751 -1.1420 -0.0672
   22MOL   C170 5252   1.379   2.598   0.751  0.4562  0.2268  0.9236
   22MOL   C171 5253   1.416   2.483   0.663  0.4269  0.0215  0.5375
   22MOL   O172 5254   1.437   2.535   0.536 -0.3431 -0.2305 -0.5932
   22MOL   C173 5255   1.377   2.483   0.435 -0.0052  1.3021  0.4956
   22MOL   C174 5256   1.417   2.549   0.308  0.4977  0.6615  0.0308
   22MOL   O175 5257   1.291   2.398   0.450 -0.4220  0.3629  0.2100
   22MOL   H176 5258   1.442   2.677   0.711 -0.9038 -1.1858 -4.4824
   22MOL   H177 5259   1.416   2.573   0.851  0.2704  0.1116  0.9644
   22MOL   H178 5260   1.337   2.409   0.675  0.4417  0.0042  0.5286
   22MOL   H179 5261   1.439   2.654   0.325 -0.3369  0.8059  0.2099
   22MOL   H180 5262   1.331   2.537   0.242  1.8465 -0.8844 -1.5220
   22MOL   H181 5263   1.489   2.498   0.243 -0.0392 -0.9055  0.6447
   22MOL   C182 5264   1.550   2.409   0.696  0.9177 -0.2412 -0.2911
   22MOL   C183 5265   1.590   2.286   0.609 -0.2796  0.0295 -0.9279
   22MOL   O184 5266   1.713   2.234   0.645 -0.9057 -0.3546 -0.4761
   22MOL   C185 5267   1.829   2.256   0.572  1.5537 -0.5077  0.1009
   22MOL   C186 5268   1.952   2.190   0.632 -0.5326 -0.3078  0.1839
   22MOL   O187 5269   1.834   2.328   0.471 -0.0053  0.3147 -0.3298
   22MOL   H188 5270   1.636   2.475   0.707 -0.5008  1.3281  1.5965
   22MOL   H189 5271   1.543   2.365   0.796  1.5148 -0.9085 -0.5378
   22MOL   H190 5272   1.593   2.321   0.506  2.6960 -1.5091 -1.3992
   22MOL   H191 5273   1.991   2.256   0.710  1.5948  0.1703 -1.2296
   22MOL   H192 5274   2.039   2.174   0.569  0.4317 -0.4061  1.4982
   22MOL   H193 5275   1.924   2.096   0.679 -0.7766  0.7800  2.3122
   22MOL   C194 5276   1.486   2.169   0.615 -0.1252  0.4014  0.2100
   22MOL   C195 5277   1.448   2.106   0.482 -0.3246 -0.3160  0.6149
   22MOL   O196 5278   1.561   2.079   0.402 -0.2382  0.2745 -0.1968
   22MOL   C197 5279   1.586   2.141   0.289  0.0700  0.5442 -0.5416
   22MOL   C198 5280   1.706   2.083   0.215 -0.2435 -0.0337  0.3560
   22MOL   O199 5281   1.510   2.234   0.245 -0.2856 -0.1789  0.2934
   22MOL   H200 5282   1.506   2.101   0.698 -2.4667  0.2944  0.7036
   22MOL   H201 5283   1.400   2.203   0.673 -2.1763 -1.0808 -1.8642
   22MOL   H202 5284   1.383   2.173   0.427 -0.6093 -2.9162 -2.3545
   22MOL   H203 5285   1.698   2.103   0.108 -0.8220  1.6053  0.7004
   22MOL   H204 5286   1.689   1.976   0.232 -1.2881 -0.0089 -0.4981
   22MOL   H205 5287   1.800   2.112   0.262  0.6076 -1.1240 -0.6505
   22MOL   C206 5288   1.376   1.975   0.514 -0.5440  0.3317 -0.3367
   22MOL   C207 5289   1.238   1.986   0.587 -0.1018 -0.6319 -0.1614
   22MOL   O208 5290   1.166   2.069   0.504 -0.5190 -0.3147  0.0383
   22MOL   C209 5291   1.105   2.178   0.539 -0.7525  1.3529  0.7404
   22MOL   C210 5292   1.037   2.227   0.415 -0.0076 -0.0474 -0.1934
   22MOL   O211 5293   1.099   2.224   0.651  1.1945 -0.9934  0.2141
   22MOL   H212 5294   1.352   1.926   0.419 -0.0220 -0.5689 -0.0090
   22MOL   H213 5295   1.434   1.897   0.563 -3.5654 -1.0004  1.2583
   22MOL   H214 5296   1.254   2.040   0.681 -2.1393  1.3004 -0.8859
   22MOL   H215 5297   1.014   2.333   0.427 -1.8759 -0.1443 -2.5287
   22MOL   H216 5298   0.946   2.167   0.403 -1.5689  1.9464  1.2928
   22MOL   H217 5299   1.098   2.212   0.326  1.1658 -1.8639  0.8681
   22MOL   C218 5300   1.183   1.839   0.602  0.1244  0.9390  0.1629
   22MOL   C219 5301   1.059   1.810   0.694  0.4605 -0.3383  0.1991
   22MOL   O220 5302   1.051   1.672   0.718  0.2595 -0.1355 -0.0441
   22MOL   C221 5303   0.946   1.602   0.683  0.3251 -0.8035 -0.2719
   22MOL   C222 5304   0.961   1.453   0.687 -0.4293 -0.1411 -0.0896
   22MOL   O223 5305   0.838   1.648   0.638 -0.2472  0.1143 -0.0874
   22MOL   H224 5306   1.159   1.795   0.505  1.6021  0.8341 -0.1638
   22MOL   H225 5307   1.266   1.785   0.648 -0.3100 -0.3474 -0.5494
   22MOL   H226 5308   0.972   1.837   0.633  0.3801  0.4363  0.6599
   22MOL   H227 5309   0.973   1.414   0.788 -0.6187  1.0403  0.4016
   22MOL   H228 5310   1.053   1.434   0.631  0.1891  2.7122 -0.1116
   22MOL   H229 5311   0.879   1.404   0.635 -0.1990 -0.3515 -0.2556
   22MOL   C230 5312   1.053   1.881   0.825 -0.1356  0.9241  0.5675
   22MOL   C231 5313   0.943   1.846   0.927 -0.1252 -0.4313 -0.7447
   22MOL   O232 5314   0.939   1.943   1.028  0.3808  0.6168  0.2799
   22MOL   C233 5315   1.021   1.939   1.129 -0.3874 -0.0686 -0.3912
   22MOL   C234 5316   0.987   2.052   1.225  0.3827  0.5409  0.0847
   22MOL   O235 5317   1.114   1.856   1.155 -0.4222  0.2198  0.8393
   22MOL   H236 5318   1.146   1.870   0.880 -0.0095 -0.3084  0.1149
   22MOL   H237 5319   1.054   1.987   0.799 -0.3283  0.3447 -1.9513
   22MOL   H238 5320   0.971   1.750   0.970  0.6216  0.4116  0.7120
   22MOL   H239 5321   0.988   2.006   1.323 -0.8203 -0.1947 -0.2324
   22MOL   H240 5322   0.886   2.091   1.211  0.3206 -0.4656 -2.7987
   22MOL   H241 5323   1.060   2.134   1.222 -1.9445  2.6829  0.4624
   22MOL   H242 5324   0.846   1.828   0.881 -0.6739 -0.6990  0.4927
   23MOL     C1 5325   2.194   2.836   2.743 -0.2768 -0.7148  0.2399
   23MOL     C2 5326   2.321   2.813   2.833 -0.5130  0.0279 -0.1809
   23MOL     O3 5327   2.339   2.672   2.853  0.7423  0.0603 -0.2918
   23MOL     C4 5328   2.289   2.607   2.960 -0.0769  0.0194 -0.8018
   23MOL     C5 5329   2.311   2.459   2.951 -0.0939 -0.4012 -0.3144
   23MOL     O6 5330   2.232   2.662   3.059 -0.7280 -0.2732 -0.0711
   23MOL     H7 5331   2.110   2.821   2.811 -1.4077  0.6851 -0.8012
   23MOL     H8 5332   2.184   2.766   2.661 -1.2484  0.2838 -0.5205
   23MOL     H9 5333   2.306   2.857   2.932  1.6695  1.1751 -0.3238
   23MOL    H10 5334   2.320   2.410   3.048 -2.4429 -2.0322 -0.8736
   23MOL    H11 5335   2.405   2.443   2.898  0.5612 -1.5116  1.1356
   23MOL    H12 5336   2.223   2.418   2.901 -1.3003  3.6707 -1.7107
   23MOL    H13 5337   2.180   2.936   2.702 -1.9959 -1.4087 -0.9173
   23MOL    C14 5338   2.447   2.863   2.760 -0.4861  0.5853 -0.5554
   23MOL    C15 5339   2.441   3.018   2.745  0.3834  0.3784  1.6628
   23MOL    O16 5340   2.431   3.074   2.873  0.4142 -0.0019 -0.9801
   23MOL    C17 5341   2.340   3.171   2.897 -0.1912  0.6227  0.0418
   23MOL    C18 5342   2.331   3.201   3.050 -0.2142  0.5254  0.1856
   23MOL    O19 5343   2.267   3.219   2.817 -0.3469  0.1066  0.4507
   23MOL    H20 5344   2.523   2.833   2.833 -1.6099 -0.5961  0.1459
   23MOL    H21 5345   2.448   2.800   2.670 -1.6849 -0.6903  0.3058
   23MOL    H22 5346   2.358   3.041   2.678  1.7455 -1.8805 -0.8765
   23MOL    H23 5347   2.263   3.284   3.068 -1.2237 -0.4070  0.7722
   23MOL    H24 5348   2.423   3.223   3.103 -0.8463  0.5699  1.2837
   23MOL    H25 5349   2.292   3.110   3.095 -1.1027 -0.3245 -2.1934
   23MOL    C26 5350   2.563   3.073   2.684  0.1588 -0.7931  0.3230
   23MOL    C27 5351   2.605   3.016   2.550 -0.5284  0.9758  0.0591
   23MOL    O28 5352   2.498   3.045   2.458  0.0003 -0.2471 -0.0966
   23MOL    C29 5353   2.462   2.950   2.373 -0.1850 -0.4276 -0.1680
   23MOL    C30 5354   2.369   2.992   2.257 -0.8223  0.7224  0.4223
   23MOL    O31 5355   2.505   2.834   2.374 -0.0599 -0.2179 -0.3796
   23MOL    H32 5356   2.564   3.181   2.668  0.4068 -0.7698  0.4910
   23MOL    H33 5357   2.644   3.067   2.757  1.3669 -0.4310 -0.9415
   23MOL    H34 5358   2.615   2.914   2.585 -3.5262  0.6310  0.0137
   23MOL    H35 5359   2.338   2.902   2.203 -1.4646  0.5722  1.0312
   23MOL    H36 5360   2.419   3.065   2.194  0.7719  1.0266  2.0163
   23MOL    H37 5361   2.278   3.033   2.302 -1.3993  0.3202 -0.3614
   23MOL    C38 5362   2.738   3.075   2.487 -0.2257 -0.1284  0.4510
   23MOL    C39 5363   2.790   2.989   2.376 -0.2787  0.6226 -0.4535
   23MOL    O40 5364   2.881   3.054   2.288 -0.3537 -0.1558  0.2460
   23MOL    C41 5365   2.843   3.113   2.167  0.0768 -0.3821 -0.2843
   23MOL    C42 5366   2.966   3.182   2.100  0.4265 -0.0942  0.2866
   23MOL    O43 5367   2.734   3.106   2.117  0.0371  0.2818  0.5961
   23MOL    H44 5368   2.712   3.175   2.453 -2.0921 -1.3886 -1.9576
   23MOL    H45 5369   2.817   3.093   2.559 -1.0044  0.2746  1.2239
   23MOL    H46 5370   2.706   2.959   2.313  0.2983 -1.5212 -0.2332
   23MOL    H47 5371   2.951   3.186   1.992 -2.1908 -1.8076  0.5215
   23MOL    H48 5372   3.055   3.131   2.137  0.0611 -0.3484  0.8316
   23MOL    H49 5373   2.969   3.284   2.138 -0.8539  1.2862 -3.1352
   23MOL    C50 5374   2.860   2.855   2.418 -0.3082  0.4930  0.3462
   23MOL    C51 5375   3.011   2.851   2.452 -0.3380 -0.0342  0.4986
   23MOL    O52 5376   3.018   2.929   2.573  0.5054  0.2691  0.8922
   23MOL    C53 5377   3.099   3.036   2.585  0.8186  0.4565  0.9157
   23MOL    C54 5378   3.084   3.103   2.722  0.2040 -0.7148 -0.2290
   23MOL    O55 5379   3.182   3.072   2.503 -0.0064 -0.8102  0.2323
   23MOL    H56 5380   2.805   2.799   2.494 -1.2754 -0.4636 -1.0435
   23MOL    H57 5381   2.832   2.792   2.334 -0.9044 -0.1876  1.0484
   23MOL    H58 5382   3.063   2.897   2.368 -0.6021 -0.3662  0.1527
   23MOL    H59 5383   3.117   3.049   2.812 -0.4121 -1.5982 -0.5308
   23MOL    H60 5384   2.978   3.100   2.746  0.8622 -3.1047  2.7199
   23MOL    H61 5385   3.120   3.206   2.729  0.9367 -0.9909  0.2641
   23MOL    C62 5386   3.060   2.709   2.483 -1.1872  0.3393  0.0961
   23MOL    C63 5387   3.218   2.681   2.490  0.7256  0.7277  0.1893
   23MOL    O64 5388   3.279   2.751   2.590 -0.6295  0.0385  0.1617
   23MOL    C65 5389   3.406   2.791   2.564  0.3015 -0.1190  0.1471
   23MOL    C66 5390   3.468   2.901   2.666 -0.3856 -0.1286 -0.8455
   23MOL    O67 5391   3.473   2.754   2.470 -0.2716 -0.4518 -0.0030
   23MOL    H68 5392   3.004   2.668   2.568 -1.2483 -0.0821 -0.1443
   23MOL    H69 5393   3.024   2.644   2.403  2.2616 -1.3355 -0.1784
   23MOL    H70 5394   3.258   2.713   2.394  2.0988  2.4394  1.2943
   23MOL    H71 5395   3.392   2.951   2.727  1.1433  2.1135 -0.7464
   23MOL    H72 5396   3.519   2.980   2.612  0.3889 -0.7548 -1.0408
   23MOL    H73 5397   3.540   2.858   2.736 -0.4593  0.0373 -0.6660
   23MOL    C74 5398   3.236   2.527   2.507 -0.5603 -0.0009 -0.5612
   23MOL    C75 5399   3.209   2.443   2.377  0.7912 -0.2123  0.0468
   23MOL    O76 5400   3.302   2.469   2.273 -0.1692 -0.0054 -0.5095
   23MOL    C77 5401   3.274   2.448   2.145 -0.2450 -0.0695 -0.6298
   23MOL    C78 5402   3.381   2.502   2.047 -0.0465  0.6066  0.0621
   23MOL    O79 5403   3.186   2.379   2.097 -0.6010  0.2944  0.4708
   23MOL    H80 5404   3.341   2.513   2.530 -0.8934 -1.7230  0.0302
   23MOL    H81 5405   3.179   2.492   2.593  0.8633 -1.4508 -0.1862
   23MOL    H82 5406   3.102   2.452   2.358  0.9115  0.0877 -0.4916
   23MOL    H83 5407   3.394   2.455   1.950 -0.1126  0.9593 -0.1181
   23MOL    H84 5408   3.478   2.500   2.097 -1.3147 -0.6314  2.5825
   23MOL    H85 5409   3.352   2.603   2.018  1.5729  1.6908  2.1070
   23MOL    C86 5410   3.210   2.295   2.408 -0.4315  0.2080  0.0783
   23MOL    C87 5411   3.079   2.243   2.467 -0.0193 -0.0472  0.1331
   23MOL    O88 5412   3.033   2.138   2.385  0.0502  0.0564 -0.6463
   23MOL    C89 5413   2.947   2.159   2.291 -0.1767 -0.4627 -0.4318
   23MOL    C90 5414   2.892   2.032   2.238  0.3631 -0.1826  0.1706
   23MOL    O91 5415   2.901   2.266   2.257 -0.0236 -0.0684  0.2108
   23MOL    H92 5416   3.242   2.241   2.319  1.4287  0.8524  0.3223
   23MOL    H93 5417   3.289   2.276   2.481 -1.7298 -3.5146  0.5645
   23MOL    H94 5418   3.015   2.328   2.491  2.6589  1.5644  1.9372
   23MOL    H95 5419   2.975   1.962   2.224  0.5910 -0.3246  2.0633
   23MOL    H96 5420   2.836   2.068   2.152 -0.1598 -0.8955  0.2055
   23MOL    H97 5421   2.834   1.996   2.323  0.9382  0.5796  0.8957
   23MOL    C98 5422   3.100   2.184   2.610 -1.6366 -0.1687  0.1206
   23MOL    C99 5423   2.961   2.164   2.683 -0.2821  0.6682  0.4276
   23MOL   O100 5424   2.930   2.027   2.652  0.2923  0.1774 -0.1512
   23MOL   C101 5425   2.801   1.993   2.632 -0.2150 -0.4691 -0.0862
   23MOL   C102 5426   2.780   1.854   2.574 -0.3877 -0.4661  0.1547
   23MOL   O103 5427   2.698   2.059   2.663 -0.1678  0.6390 -0.7369
   23MOL   H104 5428   3.148   2.086   2.614 -1.7309 -0.2275 -0.1727
   23MOL   H105 5429   3.168   2.246   2.668 -2.7496  0.7028  0.5081
   23MOL   H106 5430   2.884   2.226   2.638 -2.0604 -1.0924  1.0241
   23MOL   H107 5431   2.695   1.805   2.619 -0.2986  1.5023  2.5859
   23MOL   H108 5432   2.865   1.795   2.610 -0.5940 -1.7758 -1.4482
   23MOL   H109 5433   2.781   1.851   2.465  0.9063 -1.9245  0.1942
   23MOL   C110 5434   2.975   2.187   2.836 -0.2427 -0.0906  0.3167
   23MOL   C111 5435   2.944   2.333   2.876  0.0672 -0.5122 -0.2326
   23MOL   O112 5436   2.804   2.362   2.844 -0.1548  0.4335 -0.2358
   23MOL   C113 5437   2.767   2.476   2.793  0.4050 -0.7332 -0.5626
   23MOL   C114 5438   2.619   2.486   2.775 -0.3479 -0.2713 -0.7243
   23MOL   O115 5439   2.835   2.579   2.781 -0.2431 -0.5041  0.5207
   23MOL   H116 5440   2.901   2.135   2.897  1.7429  1.7172  4.4593
   23MOL   H117 5441   3.066   2.147   2.880 -0.5198  1.9457  2.8866
   23MOL   H118 5442   3.015   2.394   2.821  0.7829 -2.2295 -1.2503
   23MOL   H119 5443   2.571   2.535   2.859  1.3948 -1.0843  0.7827
   23MOL   H120 5444   2.586   2.382   2.773 -1.1652 -0.0588  1.1605
   23MOL   H121 5445   2.584   2.530   2.681 -1.3155 -2.8815 -1.6444
   23MOL   C122 5446   2.970   2.354   3.029 -0.1116  0.0514 -0.8776
   23MOL   C123 5447   3.111   2.418   3.061  0.6813 -0.0419 -0.1037
   23MOL   O124 5448   3.095   2.559   3.035 -0.3372 -0.1696 -0.3637
   23MOL   C125 5449   3.162   2.615   2.938 -0.1721 -0.0656  0.7893
   23MOL   C126 5450   3.130   2.760   2.927  0.5288 -0.9193  0.2580
   23MOL   O127 5451   3.246   2.556   2.872 -0.2279  0.0449 -1.3966
   23MOL   H128 5452   2.891   2.411   3.078 -0.5974 -1.8260  0.5575
   23MOL   H129 5453   2.972   2.257   3.077  2.0464  0.6120  0.2530
   23MOL   H130 5454   3.195   2.376   3.006  0.9124 -0.1170  0.3037
   23MOL   H131 5455   3.210   2.801   2.988 -0.5964  3.7275 -1.1956
   23MOL   H132 5456   3.034   2.790   2.969 -0.0472 -1.4800 -0.6336
   23MOL   H133 5457   3.128   2.802   2.827 -0.4796 -0.2613  0.5463
   23MOL   C134 5458   3.153   2.396   3.205  0.8726 -0.6819 -0.9459
   23MOL   C135 5459   3.285   2.462   3.249  0.2484 -0.1619  0.0680
   23MOL   O136 5460   3.281   2.452   3.394 -0.4462  0.0084  0.6056
   23MOL   C137 5461   3.288   2.556   3.474 -0.7286 -0.1125  0.2151
   23MOL   C138 5462   3.244   2.530   3.615 -0.1020  0.0482  0.3863
   23MOL   O139 5463   3.323   2.670   3.445  0.4766 -0.0666 -0.1437
   23MOL   H140 5464   3.079   2.439   3.272 -0.8539 -2.9263 -1.3814
   23MOL   H141 5465   3.159   2.290   3.231  0.0652 -0.3033  0.8496
   23MOL   H142 5466   3.288   2.567   3.221 -0.9833  0.3157  1.6600
   23MOL   H143 5467   3.157   2.591   3.639 -0.4014  1.1760 -3.2383
   23MOL   H144 5468   3.337   2.537   3.670  0.2068  2.5814 -0.3537
   23MOL   H145 5469   3.204   2.429   3.621 -2.2769  0.6447 -2.8009
   23MOL   C146 5470   3.406   2.398   3.189  0.2584  0.3998 -0.3556
   23MOL   C147 5471   3.528   2.471   3.219 -0.8265  0.4649  0.4719
   23MOL   O148 5472   3.630   2.393   3.152  0.1685  0.0978  0.1994
   23MOL   C149 5473   3.721   2.311   3.212 -0.3937 -0.2466  0.6671
   23MOL   C150 5474   3.831   2.264   3.119  0.0539 -0.6409  0.0873
   23MOL   O151 5475   3.724   2.286   3.333  0.3487 -0.1472 -0.5803
   23MOL   H152 5476   3.418   2.291   3.201 -1.7415  0.3800  1.8884
   23MOL   H153 5477   3.392   2.401   3.081 -0.3692 -1.0056 -0.3181
   23MOL   H154 5478   3.551   2.454   3.324 -0.3875 -0.7723  0.1858
   23MOL   H155 5479   3.800   2.172   3.070 -0.3124  0.5684 -2.0023
   23MOL   H156 5480   3.912   2.244   3.189  0.5076 -0.8247 -0.4823
   23MOL   H157 5481   3.851   2.348   3.053 -0.1789  1.4115  2.5649
   23MOL   C158 5482   3.530   2.620   3.175 -0.4391 -0.0373  0.1169
   23MOL   C159 5483   3.590   2.722   3.287  0.1232 -0.1805 -0.2721
   23MOL   O160 5484   3.731   2.698   3.314 -0.2815  0.2549  0.3366
   23MOL   C161 5485   3.781   2.646   3.428 -0.9679 -0.2292  0.4076
   23MOL   C162 5486   3.934   2.639   3.432 -0.1209  0.4815 -0.9759
   23MOL   O163 5487   3.712   2.611   3.527  0.2210 -0.2998  0.1416
   23MOL   H164 5488   3.596   2.625   3.088 -0.6181  3.1583  0.0726
   23MOL   H165 5489   3.432   2.651   3.138 -0.9819 -1.1825  0.5786
   23MOL   H166 5490   3.536   2.701   3.380  0.7674 -1.1635 -0.1012
   23MOL   H167 5491   3.982   2.662   3.336  1.9793  0.7024  0.0828
   23MOL   H168 5492   3.965   2.539   3.463 -2.5887 -0.5074 -1.5808
   23MOL   H169 5493   3.978   2.701   3.511  1.6625 -2.4158  0.3903
   23MOL   C170 5494   3.572   2.871   3.256 -0.5935 -0.3953 -0.2102
   23MOL   C171 5495   3.536   2.954   3.381 -0.6198  0.7531 -0.9100
   23MOL   O172 5496   3.638   2.960   3.471  0.0054  0.4525 -0.0550
   23MOL   C173 5497   3.769   2.987   3.449  0.3850 -0.6707 -0.2923
   23MOL   C174 5498   3.859   2.990   3.572 -0.2620  0.1188 -0.0546
   23MOL   O175 5499   3.825   3.006   3.340 -0.0198 -0.5036  0.3296
   23MOL   H176 5500   3.650   2.908   3.190 -0.8407 -1.3828 -1.0713
   23MOL   H177 5501   3.478   2.869   3.200 -0.0193 -1.5206 -1.1570
   23MOL   H178 5502   3.454   2.901   3.431  2.9156 -2.7098  1.4680
   23MOL   H179 5503   3.844   2.912   3.647  0.4646  2.2819  2.4173
   23MOL   H180 5504   3.832   3.072   3.640 -1.7591  1.5625 -2.3137
   23MOL   H181 5505   3.966   2.993   3.553 -0.2267  2.5198  0.2833
   23MOL   C182 5506   3.484   3.093   3.349  0.1094  0.4264 -0.6318
   23MOL   C183 5507   3.473   3.198   3.466  0.2157 -0.5921 -0.4171
   23MOL   O184 5508   3.413   3.311   3.403  0.4958  0.9133 -0.2904
   23MOL   C185 5509   3.480   3.427   3.407  0.1122  0.1792 -0.2178
   23MOL   C186 5510   3.447   3.521   3.295 -0.2779  0.0023  0.5748
   23MOL   O187 5511   3.562   3.453   3.494 -0.3310  0.3255  0.8736
   23MOL   H188 5512   3.556   3.135   3.279  0.1937  2.8104  0.8124
   23MOL   H189 5513   3.393   3.086   3.290 -1.0153  2.2427  0.7985
   23MOL   H190 5514   3.579   3.204   3.490 -0.0672  1.5405  0.4234
   23MOL   H191 5515   3.526   3.518   3.219 -0.3777  1.0248  0.4250
   23MOL   H192 5516   3.446   3.622   3.336  1.2366  1.6772 -3.2062
   23MOL   H193 5517   3.350   3.515   3.247  0.1321  3.8461 -0.9155
   23MOL   C194 5518   3.390   3.160   3.590 -0.3666  0.0635  0.2170
   23MOL   C195 5519   3.416   3.247   3.714  0.4569  0.0502  0.0535
   23MOL   O196 5520   3.320   3.234   3.813  0.1358  0.7988 -0.4402
   23MOL   C197 5521   3.288   3.341   3.894 -0.6954 -0.3377  0.0313
   23MOL   C198 5522   3.206   3.296   4.013 -0.2234 -0.3242 -0.7057
   23MOL   O199 5523   3.324   3.455   3.883  0.0064 -0.0098 -0.2588
   23MOL   H200 5524   3.282   3.167   3.577  0.0254  2.3339 -2.3444
   23MOL   H201 5525   3.420   3.059   3.615 -0.5715  0.0114  0.2503
   23MOL   H202 5526   3.410   3.345   3.666 -0.5736 -0.6340 -1.2390
   23MOL   H203 5527   3.262   3.302   4.106  2.7731  0.9374 -2.5088
   23MOL   H204 5528   3.172   3.194   3.996  2.4530 -1.2086 -1.1111
   23MOL   H205 5529   3.114   3.354   4.018 -0.2784 -0.4219 -0.5853
   23MOL   C206 5530   3.555   3.218   3.780 -0.1190 -0.2314  0.0189
   23MOL   C207 5531   3.569   3.094   3.875 -0.3819  0.1610 -0.1292
   23MOL   O208 5532   3.545   2.972   3.809 -0.4330  0.1918 -0.2162
   23MOL   C209 5533   3.474   2.866   3.867  0.2635 -0.4022  0.6082
   23MOL   C210 5534   3.476   2.731   3.790  0.6580 -0.9071 -0.0102
   23MOL   O211 5535   3.411   2.868   3.973  0.2250  0.1605  0.0315
   23MOL   H212 5536   3.620   3.201   3.693  0.2826  1.1309  0.0378
   23MOL   H213 5537   3.581   3.316   3.820  2.6114 -1.1901  0.7334
   23MOL   H214 5538   3.490   3.097   3.949 -0.8009  0.9710 -0.6003
   23MOL   H215 5539   3.571   2.680   3.806  1.8447  1.0997 -0.3915
   23MOL   H216 5540   3.466   2.747   3.682  1.6431 -0.6307 -0.0694
   23MOL   H217 5541   3.389   2.671   3.817 -0.1859  0.2774 -0.0490
   23MOL   C218 5542   3.704   3.083   3.948 -0.4359  0.3261 -0.0592
   23MOL   C219 5543   3.716   3.186   4.062 -0.1838  0.1063  0.4937
   23MOL   O220 5544   3.650   3.130   4.175  0.8115  0.9189 -0.1304
   23MOL   C221 5545   3.548   3.185   4.223  0.0588 -0.4096 -0.1400
   23MOL   C222 5546   3.480   3.101   4.329  0.0120 -0.2888  0.5634
   23MOL   O223 5547   3.504   3.298   4.194 -0.1358  0.3504  0.0107
   23MOL   H224 5548   3.733   2.988   3.991  1.7713  1.5694  1.2451
   23MOL   H225 5549   3.781   3.085   3.871  0.6164 -0.7745  0.9509
   23MOL   H226 5550   3.686   3.285   4.029  3.9313  1.9529  1.9294
   23MOL   H227 5551   3.372   3.102   4.313 -0.0434 -2.0862  0.6849
   23MOL   H228 5552   3.514   3.121   4.431  2.9026 -0.6553 -0.2836
   23MOL   H229 5553   3.501   2.996   4.307 -0.3024 -0.3527  0.5707
   23MOL   C230 5554   3.861   3.200   4.110 -0.1984 -0.0199 -0.3087
   23MOL   C231 5555   3.865   3.299   4.224  0.7693  0.0584 -0.1334
   23MOL   O232 5556   3.999   3.312   4.279  0.7302 -0.3226  0.0819
   23MOL   C233 5557   4.013   3.307   4.415 -0.3420  0.0393  0.7270
   23MOL   C234 5558   4.155   3.305   4.453 -0.0478 -0.4156  0.6194
   23MOL   O235 5559   3.924   3.308   4.499 -0.2812  0.0855  0.3510
   23MOL   H236 5560   3.906   3.105   4.137 -1.0901  0.0180  1.4075
   23MOL   H237 5561   3.924   3.231   4.027  1.1519 -1.4898  0.1435
   23MOL   H238 5562   3.807   3.263   4.308  3.2385 -2.2766  0.6468
   23MOL   H239 5563   4.220   3.371   4.396  1.1030 -0.7164  1.5752
   23MOL   H240 5564   4.187   3.202   4.440  0.8416 -0.3658  2.3531
   23MOL   H241 5565   4.175   3.313   4.559  0.5637  2.6948  0.3322
   23MOL   H242 5566   3.843   3.404   4.202 -2.6585 -0.3837  0.9353
   24MOL     C1 5567   4.281   5.905   7.995  0.0404  0.9281 -0.2101
   24MOL     C2 5568   4.253   5.954   0.116 -0.7080 -0.3757 -0.5983
   24MOL     O3 5569   4.145   6.038   0.119  0.2192  0.1025  0.1846
   24MOL     C4 5570   4.135   6.146   0.199 -0.1275  0.0024  0.5579
   24MOL     C5 5571   4.012   6.225   0.182 -0.0851 -0.1313 -0.0762
   24MOL     O6 5572   4.201   6.172   0.301  0.3960  0.5146  0.1244
   24MOL     H7 5573   4.346   5.817   8.001 -1.0950  0.1746  1.9111
   24MOL     H8 5574   4.324   5.985   7.936 -1.0678  1.1887 -0.6796
   24MOL     H9 5575   4.345   6.012   0.127 -0.4033 -0.9154 -0.2637
   24MOL    H10 5576   4.008   6.323   0.229  0.8931  0.4820 -1.2602
   24MOL    H11 5577   3.941   6.167   0.241  1.1152  0.0491  1.5564
   24MOL    H12 5578   3.970   6.233   0.082 -1.5722 -1.4630  0.4143
   24MOL    H13 5579   4.181   5.884   7.956  1.6066 -5.3061 -1.3756
   24MOL    C14 5580   4.244   5.842   0.224  1.1426  0.7507 -0.0766
   24MOL    C15 5581   4.380   5.793   0.274  0.6921 -0.1182 -0.5178
   24MOL    O16 5582   4.419   5.894   0.367  0.1209 -0.1450 -0.2866
   24MOL    C17 5583   4.528   5.974   0.354  0.0287  0.1298  0.1297
   24MOL    C18 5584   4.542   6.068   0.468 -0.9715  0.6740 -0.6149
   24MOL    O19 5585   4.611   5.974   0.266  0.0158  0.2654  0.0127
   24MOL    H20 5586   4.176   5.873   0.303 -1.3513 -2.2540 -0.9482
   24MOL    H21 5587   4.195   5.762   0.169 -0.0703  0.1163  1.8856
   24MOL    H22 5588   4.447   5.788   0.188 -1.6618  1.9825 -2.5277
   24MOL    H23 5589   4.648   6.089   0.483 -0.7362 -0.3955 -0.7156
   24MOL    H24 5590   4.492   6.024   0.554 -0.9071  1.5614 -0.1186
   24MOL    H25 5591   4.493   6.163   0.445 -1.7494  0.9715  2.0903
   24MOL    C26 5592   4.373   5.650   0.337  0.1225  0.0402  0.8162
   24MOL    C27 5593   4.419   5.538   0.241 -0.3148  0.6740  0.3281
   24MOL    O28 5594   4.366   5.562   0.111 -0.5032  0.6937 -1.0419
   24MOL    C29 5595   4.251   5.509   0.080 -0.4205 -0.8366 -0.2464
   24MOL    C30 5596   4.209   5.540   7.962  0.3810  0.0166 -0.2218
   24MOL    O31 5597   4.170   5.451   0.154 -0.6269 -0.0943  0.4711
   24MOL    H32 5598   4.431   5.644   0.430  0.6238  0.5695  0.5434
   24MOL    H33 5599   4.269   5.637   0.366 -0.3378 -2.2432 -1.6668
   24MOL    H34 5600   4.385   5.442   0.279  1.3464 -0.0874 -0.0706
   24MOL    H35 5601   4.206   5.450   7.901  0.3111  1.0980 -1.8220
   24MOL    H36 5602   4.274   5.615   7.918 -1.0897  1.7227  0.4307
   24MOL    H37 5603   4.105   5.571   7.971  1.0413  1.7227  2.0127
   24MOL    C38 5604   4.574   5.528   0.235 -0.6592 -0.7484  0.1261
   24MOL    C39 5605   4.620   5.389   0.193 -0.4290  0.1640  0.2788
   24MOL    O40 5606   4.541   5.342   0.084  0.0374  0.0222 -0.6286
   24MOL    C41 5607   4.480   5.221   0.084  0.9356  0.0669  0.5103
   24MOL    C42 5608   4.426   5.182   7.964 -0.2821  0.1163 -0.0868
   24MOL    O43 5609   4.482   5.132   0.174 -0.4909  0.2492  0.0935
   24MOL    H44 5610   4.612   5.615   0.182 -1.5494 -0.0702  0.5920
   24MOL    H45 5611   4.608   5.537   0.338 -2.6289  1.5535  0.6158
   24MOL    H46 5612   4.606   5.320   0.277 -2.6549  2.8576  2.2231
   24MOL    H47 5613   4.374   5.086   7.973  0.6946 -0.3452  0.8324
   24MOL    H48 5614   4.510   5.176   7.895 -1.0666  1.0190 -1.1189
   24MOL    H49 5615   4.355   5.260   7.937 -1.4635 -0.7117  0.5428
   24MOL    C50 5616   4.772   5.391   0.153 -0.6735 -0.2406  1.0412
   24MOL    C51 5617   4.839   5.245   0.156  0.1359 -0.7758  0.0568
   24MOL    O52 5618   4.777   5.164   0.064  0.2254  0.4905 -0.5203
   24MOL    C53 5619   4.798   5.037   0.052 -0.6195  0.0442  0.3981
   24MOL    C54 5620   4.690   4.967   8.003 -0.4958 -0.1587 -0.0351
   24MOL    O55 5621   4.885   4.969   0.118  0.0806 -0.1609  0.0872
   24MOL    H56 5622   4.786   5.447   0.060 -0.5025 -2.0115 -0.0338
   24MOL    H57 5623   4.827   5.459   0.218  0.9762  0.3390 -0.9023
   24MOL    H58 5624   4.836   5.208   0.258 -1.3819  1.2268  0.7723
   24MOL    H59 5625   4.724   4.881   7.945  0.8319  0.2932  0.0624
   24MOL    H60 5626   4.650   5.029   7.923 -1.3473 -1.9730 -1.0551
   24MOL    H61 5627   4.620   4.927   0.055  0.9146  1.5384  2.2769
   24MOL    C62 5628   4.991   5.263   0.109  0.5319  0.0783 -0.8496
   24MOL    C63 5629   5.102   5.340   0.193 -0.1502  0.3895  0.2004
   24MOL    O64 5630   5.087   5.291   0.327  0.0707  0.1732 -0.4885
   24MOL    C65 5631   5.091   5.362   0.441  0.0382  0.2976  0.8149
   24MOL    C66 5632   5.104   5.282   0.565  0.0585 -0.1347  0.3541
   24MOL    O67 5633   5.102   5.486   0.446  0.6977 -0.4962  0.6484
   24MOL    H68 5634   5.040   5.169   0.081  0.5794  0.1371 -0.9625
   24MOL    H69 5635   4.987   5.323   0.018  2.2788  1.9960  0.2977
   24MOL    H70 5636   5.077   5.444   0.175 -1.5386  0.5664  3.0008
   24MOL    H71 5637   5.196   5.296   0.621  0.7954 -2.7042 -0.1528
   24MOL    H72 5638   5.104   5.179   0.529  2.3838  0.7774 -2.4582
   24MOL    H73 5639   5.007   5.292   0.614  0.2707 -2.1654  1.2556
   24MOL    C74 5640   5.247   5.311   0.133  1.4855  0.0112 -0.4255
   24MOL    C75 5641   5.360   5.382   0.198 -0.2963 -0.0327 -0.1579
   24MOL    O76 5642   5.472   5.298   0.147 -0.1023 -0.1316  0.1706
   24MOL    C77 5643   5.589   5.291   0.212  0.1328  0.2251 -0.3195
   24MOL    C78 5644   5.677   5.173   0.172 -0.3801 -0.2727  0.5364
   24MOL    O79 5645   5.615   5.371   0.306  0.2118 -0.0500  0.4486
   24MOL    H80 5646   5.256   5.204   0.149 -0.2411  0.0961  1.2224
   24MOL    H81 5647   5.249   5.322   0.024 -0.4999 -1.3689 -0.6244
   24MOL    H82 5648   5.357   5.366   0.305  1.7166 -1.4525 -0.2781
   24MOL    H83 5649   5.644   5.137   0.074  0.6082  1.2063 -0.3725
   24MOL    H84 5650   5.684   5.101   0.253 -0.5034 -0.8375  0.0531
   24MOL    H85 5651   5.777   5.216   0.160  0.1867 -1.8267 -0.4866
   24MOL    C86 5652   5.359   5.534   0.182 -0.1003 -0.0774  0.0289
   24MOL    C87 5653   5.360   5.579   0.037  0.1265  0.2041  0.7370
   24MOL    O88 5654   5.222   5.587   0.007  0.1416  0.0338 -0.2350
   24MOL    C89 5655   5.187   5.590   7.900 -0.3123  0.6917 -0.0523
   24MOL    C90 5656   5.038   5.595   7.880 -0.6916 -0.4582  0.4665
   24MOL    O91 5657   5.266   5.596   7.809 -0.4901  0.1293  0.2779
   24MOL    H92 5658   5.273   5.568   0.240  1.3347  3.3414  0.2578
   24MOL    H93 5659   5.449   5.575   0.227 -0.7626  1.8155 -0.3311
   24MOL    H94 5660   5.419   5.513   7.996  0.0996 -1.6113  2.5737
   24MOL    H95 5661   5.016   5.518   7.806  1.4011  2.0677 -2.9441
   24MOL    H96 5662   5.001   5.694   7.850 -2.0765 -0.6323  1.5670
   24MOL    H97 5663   4.995   5.567   7.976 -3.1200 -1.3321 -0.8228
   24MOL    C98 5664   5.425   5.727   0.033  0.9077  0.2210  0.5202
   24MOL    C99 5665   5.342   5.838   0.088 -1.0673 -0.3933  0.6316
   24MOL   O100 5666   5.325   5.840   0.228  0.3294  0.0236 -0.9022
   24MOL   C101 5667   5.201   5.814   0.286 -0.6256  0.7418  0.1751
   24MOL   C102 5668   5.207   5.811   0.434  0.4105 -0.3375  0.6612
   24MOL   O103 5669   5.098   5.811   0.216 -0.0456  0.8101 -0.5902
   24MOL   H104 5670   5.516   5.729   0.094  0.5815 -1.9305  1.1548
   24MOL   H105 5671   5.446   5.737   7.948 -0.0301  1.6023  0.4629
   24MOL   H106 5672   5.246   5.839   0.037 -0.7724  2.0395  0.0482
   24MOL   H107 5673   5.209   5.914   0.469  1.0465 -0.7158  1.7723
   24MOL   H108 5674   5.293   5.761   0.480 -0.5257  0.2771  3.1594
   24MOL   H109 5675   5.111   5.781   0.475 -0.9195  4.4655  1.3028
   24MOL   C110 5676   5.411   5.980   0.065 -0.1581 -0.1372  0.0563
   24MOL   C111 5677   5.448   6.012   7.940 -0.3846 -0.1360  0.4603
   24MOL   O112 5678   5.321   6.027   7.869  0.7736  0.2285 -0.0032
   24MOL   C113 5679   5.292   5.959   7.759  0.1382  0.4236 -0.4815
   24MOL   C114 5680   5.142   5.973   7.727 -0.1149 -0.4119 -0.1795
   24MOL   O115 5681   5.372   5.898   7.693  0.2959 -0.1884  0.3474
   24MOL   H116 5682   5.348   6.063   0.095  3.0645  1.9294  1.2984
   24MOL   H117 5683   5.492   5.993   0.137 -0.7635  2.7017  0.2562
   24MOL   H118 5684   5.515   5.938   7.897 -0.0559  0.8388 -0.7366
   24MOL   H119 5685   5.109   5.881   7.678  0.4209 -0.4946 -0.3926
   24MOL   H120 5686   5.128   6.051   7.653 -0.8675 -1.8568 -1.5994
   24MOL   H121 5687   5.082   5.974   7.819  2.7264  2.8976  1.7654
   24MOL   C122 5688   5.528   6.146   7.940 -0.1431 -0.2657  0.1627
   24MOL   C123 5689   5.670   6.137   8.007  1.0451 -0.3195 -0.2424
   24MOL   O124 5690   5.750   6.043   7.938  0.0924 -0.1630  0.0629
   24MOL   C125 5691   5.783   5.918   7.980 -0.0151  0.1901  0.2393
   24MOL   C126 5692   5.898   5.864   7.904  0.6615  0.1838 -0.0411
   24MOL   O127 5693   5.740   5.859   0.061 -0.2315 -0.0427 -0.2927
   24MOL   H128 5694   5.536   6.196   7.844 -0.4624 -2.0153 -0.7964
   24MOL   H129 5695   5.473   6.212   8.007  0.9911 -0.0379  0.8844
   24MOL   H130 5696   5.680   6.112   0.092 -1.8895 -0.5640  0.0205
   24MOL   H131 5697   5.985   5.916   7.943 -0.1310  0.9614  0.7358
   24MOL   H132 5698   5.893   5.885   7.797  4.7224 -1.7857 -0.6861
   24MOL   H133 5699   5.903   5.756   7.914 -0.1866 -0.0555 -1.9598
   24MOL   C134 5700   5.743   6.276   7.987  0.8339 -0.6741 -0.5441
   24MOL   C135 5701   5.853   6.320   0.069  0.6557 -0.6904 -0.2551
   24MOL   O136 5702   5.951   6.222   0.063 -0.1727  0.5288 -0.1502
   24MOL   C137 5703   6.026   6.186   0.169 -0.5829 -0.1198 -0.0526
   24MOL   C138 5704   6.142   6.087   0.128 -0.3588  0.0569 -0.6049
   24MOL   O139 5705   6.008   6.226   0.284  0.5518 -0.6594  0.1776
   24MOL   H140 5706   5.777   6.288   7.885  1.1134  0.2230 -0.3526
   24MOL   H141 5707   5.668   6.356   7.986  2.6281  1.0206 -1.3396
   24MOL   H142 5708   5.813   6.321   0.171  0.9938 -0.7129 -0.1210
   24MOL   H143 5709   6.169   6.032   0.219  2.9975  2.0576 -0.2995
   24MOL   H144 5710   6.236   6.124   0.087  0.0948  0.2442  0.5603
   24MOL   H145 5711   6.104   6.006   0.066  0.4584 -0.4722 -0.4326
   24MOL   C146 5712   5.912   6.468   0.026  0.0858  0.5800  0.2191
   24MOL   C147 5713   5.809   6.582   0.035 -0.3423  0.1868  0.2499
   24MOL   O148 5714   5.775   6.617   0.171 -0.2369 -0.2689  0.5127
   24MOL   C149 5715   5.656   6.586   0.217  0.8949 -0.4956  0.2807
   24MOL   C150 5716   5.629   6.622   0.365 -0.1563 -0.9221  0.3765
   24MOL   O151 5717   5.570   6.530   0.151 -0.0416 -0.1042 -0.5858
   24MOL   H152 5718   5.994   6.479   0.097 -1.0140 -1.2826  1.8174
   24MOL   H153 5719   5.963   6.457   7.952 -0.8342 -2.2411  0.0069
   24MOL   H154 5720   5.723   6.551   7.996 -1.2989 -1.0563  2.1775
   24MOL   H155 5721   5.708   6.665   0.426 -0.5546  0.3125  0.0348
   24MOL   H156 5722   5.585   6.531   0.406  0.1659 -1.2237  0.0568
   24MOL   H157 5723   5.558   6.703   0.348  1.6406  1.0185  1.7457
   24MOL   C158 5724   5.861   6.710   8.000 -0.2081 -0.0346  0.2057
   24MOL   C159 5725   5.768   6.813   7.948 -0.1545 -0.4706  0.5179
   24MOL   O160 5726   5.751   6.913   0.030 -0.1473  0.2124  0.0677
   24MOL   C161 5727   5.623   6.926   0.070 -0.1422  0.2092 -0.0452
   24MOL   C162 5728   5.606   7.043   0.167 -0.4664 -1.0728 -0.3204
   24MOL   O163 5729   5.528   6.859   0.031 -0.1559  0.2404  0.5421
   24MOL   H164 5730   5.941   6.746   0.043 -1.9067  0.6511  1.9642
   24MOL   H165 5731   5.929   6.681   7.919  2.5458  0.0711  2.3929
   24MOL   H166 5732   5.678   6.761   7.917 -0.5444 -0.4621  1.6481
   24MOL   H167 5733   5.630   7.132   0.109 -0.1071 -0.2478  1.0782
   24MOL   H168 5734   5.678   7.041   0.249 -0.5796  1.0509 -0.1314
   24MOL   H169 5735   5.504   7.054   0.202 -1.4086 -1.2134 -2.8691
   24MOL   C170 5736   5.826   6.876   7.820  1.1105 -0.0747 -0.2898
   24MOL   C171 5737   5.796   6.785   7.691 -0.1419  0.6839  0.6160
   24MOL   O172 5738   5.654   6.772   7.683  0.1694 -0.4956 -0.3849
   24MOL   C173 5739   5.600   6.656   7.690 -0.5243 -0.2338  0.4904
   24MOL   C174 5740   5.455   6.664   7.727  1.2084 -0.2864 -0.1170
   24MOL   O175 5741   5.657   6.547   7.685 -0.6233  0.0873 -0.6130
   24MOL   H176 5742   5.784   6.975   7.804  2.2000  0.2078 -1.4970
   24MOL   H177 5743   5.932   6.901   7.830  0.8954  1.6887 -2.0936
   24MOL   H178 5744   5.841   6.687   7.711  1.3382  1.1824 -0.1623
   24MOL   H179 5745   5.429   6.730   7.810 -0.1713 -2.2464  1.0647
   24MOL   H180 5746   5.414   6.567   7.757  0.3950  0.4138  1.1186
   24MOL   H181 5747   5.402   6.708   7.642  1.3025 -0.1519 -0.1059
   24MOL   C182 5748   5.857   6.858   7.573 -0.1300  0.3880 -0.1078
   24MOL   C183 5749   6.013   6.850   7.568 -0.1270  0.5660 -0.2968
   24MOL   O184 5750   6.051   6.710   7.564  0.0066 -0.2837 -0.0851
   24MOL   C185 5751   6.123   6.666   7.674 -0.0347  0.4570  0.0413
   24MOL   C186 5752   6.217   6.555   7.637 -0.3319 -0.2375 -0.0514
   24MOL   O187 5753   6.120   6.710   7.782  0.0739  0.7801 -0.3665
   24MOL   H188 5754   5.809   6.817   7.485  0.6736 -0.2427 -0.2613
   24MOL   H189 5755   5.831   6.964   7.573 -1.9649 -0.0497  0.8945
   24MOL   H190 5756   6.054   6.893   7.660  2.1232  0.1110 -1.0339
   24MOL   H191 5757   6.230   6.494   7.727 -1.9081 -2.7517 -1.4667
   24MOL   H192 5758   6.305   6.592   7.585 -1.0907 -0.2397 -1.3494
   24MOL   H193 5759   6.159   6.492   7.569  2.2124 -0.3912 -2.1803
   24MOL   C194 5760   6.081   6.909   7.444 -0.0557  0.1148  0.2655
   24MOL   C195 5761   6.041   7.061   7.419 -0.3358  0.7720 -0.4748
   24MOL   O196 5762   6.088   7.133   7.530 -0.6807  0.1714 -0.3548
   24MOL   C197 5763   6.002   7.215   7.600 -0.5469  0.9961 -0.1372
   24MOL   C198 5764   6.078   7.306   7.700 -0.2465  0.0017 -0.3140
   24MOL   O199 5765   5.882   7.224   7.579 -0.1297  0.1958  0.2816
   24MOL   H200 5766   6.190   6.910   7.450 -0.1570  1.1884  2.4528
   24MOL   H201 5767   6.043   6.851   7.361  2.2834 -0.1284 -0.6869
   24MOL   H202 5768   5.932   7.063   7.418 -0.3360  0.7464 -0.4681
   24MOL   H203 5769   6.066   7.267   7.801 -2.0959  1.5374  0.0983
   24MOL   H204 5770   6.038   7.408   7.700 -1.0659 -0.3118 -0.6495
   24MOL   H205 5771   6.183   7.299   7.672 -0.5709  0.7050 -1.7313
   24MOL   C206 5772   6.111   7.109   7.297 -0.0930 -0.1575 -0.2287
   24MOL   C207 5773   6.099   7.262   7.256 -0.3082 -0.2178  0.3710
   24MOL   O208 5774   6.193   7.283   7.152 -0.1397 -0.7662  0.3500
   24MOL   C209 5775   6.245   7.399   7.134 -0.3610 -0.0003  0.7144
   24MOL   C210 5776   6.350   7.402   7.031  0.0172  0.3381  0.0822
   24MOL   O211 5777   6.199   7.502   7.185  0.1469 -0.1359  0.4283
   24MOL   H212 5778   6.215   7.085   7.314 -0.1365  0.3278  0.7768
   24MOL   H213 5779   6.079   7.042   7.218 -1.0946  1.6189 -1.3780
   24MOL   H214 5780   6.151   7.305   7.341  0.2851  2.5497 -1.3266
   24MOL   H215 5781   6.434   7.465   7.058  1.1693 -0.8656 -0.6407
   24MOL   H216 5782   6.312   7.432   6.933 -0.8408 -2.1337 -0.3897
   24MOL   H217 5783   6.392   7.308   6.995 -2.0377 -1.6738  2.6854
   24MOL   C218 5784   5.961   7.307   7.220  0.1013 -1.0654  0.7275
   24MOL   C219 5785   5.890   7.226   7.105 -0.1430 -0.4491 -0.1339
   24MOL   O220 5786   5.750   7.220   7.136 -0.1906  0.5898 -0.3528
   24MOL   C221 5787   5.709   7.107   7.195  0.2145  0.5796 -0.1315
   24MOL   C222 5788   5.563   7.115   7.245  0.7929 -0.1167  0.7070
   24MOL   O223 5789   5.779   7.010   7.212  0.0319 -0.1820  0.2039
   24MOL   H224 5790   5.900   7.287   7.307  1.3418 -2.7524  1.2234
   24MOL   H225 5791   5.962   7.414   7.197 -1.3192 -1.1167  0.3785
   24MOL   H226 5792   5.933   7.127   7.100 -1.2000 -0.7960 -3.1156
   24MOL   H227 5793   5.512   7.201   7.201 -0.4219  0.3826  3.0453
   24MOL   H228 5794   5.570   7.124   7.353 -0.4884 -1.8107  0.9412
   24MOL   H229 5795   5.509   7.025   7.216 -0.9226  0.6254  1.5485
   24MOL   C230 5796   5.921   7.295   6.965 -0.2315  0.7096  0.0491
   24MOL   C231 5797   5.845   7.226   6.846  0.1534  0.1669 -0.4172
   24MOL   O232 5798   5.900   7.274   6.726  0.0478  0.2353 -0.0968
   24MOL   C233 5799   5.827   7.274   6.619  1.0832 -0.5556  0.0462
   24MOL   C234 5800   5.886   7.361   6.510  0.3362 -0.1602 -0.3419
   24MOL   O235 5801   5.721   7.219   6.597 -0.2751 -0.2076 -0.1154
   24MOL   H236 5802   5.887   7.399   6.958  0.1642  0.9569  1.6366
   24MOL   H237 5803   6.029   7.299   6.949 -0.5327  0.0170 -2.3097
   24MOL   H238 5804   5.737   7.241   6.849  0.0456 -0.6392 -0.0368
   24MOL   H239 5805   5.995   7.363   6.509  0.3196  0.3774 -1.3823
   24MOL   H240 5806   5.867   7.468   6.520 -0.7138 -0.5457  2.1592
   24MOL   H241 5807   5.848   7.331   6.413 -0.0420  2.0143 -0.9108
   24MOL   H242 5808   5.865   7.119   6.854 -1.8482 -0.3501 -1.6699
   25MOL     C1 5809   0.376   3.905   3.327 -0.5388  0.7089  0.3839
   25MOL     C2 5810   0.478   3.998   3.399  0.1189  0.6000  0.1097
   25MOL     O3 5811   0.604   3.914   3.411  0.3367 -0.1680  0.3321
   25MOL     C4 5812   0.658   3.896   3.528  0.1159 -0.0227 -0.7622
   25MOL     C5 5813   0.787   3.809   3.517  0.0765  0.2307  0.4560
   25MOL     O6 5814   0.613   3.925   3.641  0.4529 -0.2340 -0.3489
   25MOL     H7 5815   0.395   3.805   3.366 -0.2155  0.1092 -1.2578
   25MOL     H8 5816   0.403   3.893   3.222  0.7045  2.0339  0.5325
   25MOL     H9 5817   0.447   4.021   3.501  2.0847 -1.2840  1.2011
   25MOL    H10 5818   0.773   3.727   3.447 -0.5202 -1.8808  3.0014
   25MOL    H11 5819   0.806   3.771   3.617 -3.1793 -3.4350 -0.1852
   25MOL    H12 5820   0.874   3.867   3.489  0.6289 -1.1092 -0.6452
   25MOL    H13 5821   0.271   3.932   3.334 -0.6847  0.4782 -0.7983
   25MOL    C14 5822   0.516   4.129   3.327  0.1007  0.1586  0.1915
   25MOL    C15 5823   0.404   4.230   3.298  0.1014 -0.1135  0.1089
   25MOL    O16 5824   0.353   4.274   3.423 -0.1588  0.3548  0.3266
   25MOL    C17 5825   0.221   4.307   3.426 -1.1761  0.1344 -0.0414
   25MOL    C18 5826   0.171   4.337   3.567 -0.5781 -0.1731 -0.4275
   25MOL    O19 5827   0.146   4.303   3.331 -0.1050 -0.0664 -0.3242
   25MOL    H20 5828   0.598   4.186   3.370  0.3837 -0.2714  0.2170
   25MOL    H21 5829   0.555   4.091   3.233 -0.0421 -0.1001  0.2360
   25MOL    H22 5830   0.325   4.179   3.242  1.0892  0.7067 -2.0876
   25MOL    H23 5831   0.246   4.405   3.608 -1.5396  0.3645  0.4323
   25MOL    H24 5832   0.177   4.245   3.624 -2.4647 -1.7604 -2.6839
   25MOL    H25 5833   0.074   4.383   3.552 -0.1503  0.6204 -0.7726
   25MOL    C26 5834   0.456   4.361   3.228 -0.1311 -0.3484 -0.3252
   25MOL    C27 5835   0.459   4.338   3.081 -0.1971  0.0166 -0.6005
   25MOL    O28 5836   0.317   4.334   3.036  0.5033 -0.3932 -0.2658
   25MOL    C29 5837   0.272   4.216   2.992 -0.3679 -0.0044 -0.7583
   25MOL    C30 5838   0.128   4.216   2.942 -0.6541 -0.4804  0.3058
   25MOL    O31 5839   0.339   4.114   2.986 -0.0442  0.5118  0.2637
   25MOL    H32 5840   0.388   4.445   3.243 -0.5244 -0.6295 -0.5368
   25MOL    H33 5841   0.556   4.390   3.261  0.7129 -2.8843 -0.6090
   25MOL    H34 5842   0.512   4.244   3.061 -1.2429 -0.7033 -0.0610
   25MOL    H35 5843   0.127   4.153   2.854 -0.2685  0.8966 -0.7141
   25MOL    H36 5844   0.120   4.321   2.912 -2.2659 -0.5386  0.5099
   25MOL    H37 5845   0.052   4.197   3.018 -0.4850 -2.4083  0.0124
   25MOL    C38 5846   0.539   4.454   3.006 -0.1198 -0.2180 -0.4840
   25MOL    C39 5847   0.555   4.441   2.857  0.2293 -0.5395 -0.5029
   25MOL    O40 5848   0.601   4.309   2.821 -0.1197  0.4887 -0.4463
   25MOL    C41 5849   0.737   4.290   2.798  0.5092  0.9197  0.0066
   25MOL    C42 5850   0.765   4.160   2.730 -0.2873 -0.4910  0.0255
   25MOL    O43 5851   0.823   4.365   2.839 -0.4424  0.0872 -0.4978
   25MOL    H44 5852   0.510   4.553   3.039  0.9885 -0.8697  2.6096
   25MOL    H45 5853   0.641   4.447   3.042 -0.3430  2.6480  0.8389
   25MOL    H46 5854   0.624   4.519   2.823  0.9908 -0.9418  0.1049
   25MOL    H47 5855   0.789   4.080   2.799  0.1797 -0.6448 -0.3140
   25MOL    H48 5856   0.848   4.183   2.662  0.0626  3.0508  1.5356
   25MOL    H49 5857   0.681   4.135   2.665 -1.8654 -0.4186  2.0218
   25MOL    C50 5858   0.425   4.471   2.779  0.3672 -0.0540 -0.5584
   25MOL    C51 5859   0.437   4.528   2.634  0.4945  0.1898  0.4584
   25MOL    O52 5860   0.491   4.656   2.633 -0.1083  0.1350  0.8430
   25MOL    C53 5861   0.416   4.759   2.675  0.0320 -0.3421 -0.4604
   25MOL    C54 5862   0.491   4.892   2.663  0.3477 -0.4370 -0.3866
   25MOL    O55 5863   0.310   4.750   2.734  0.3289 -0.5684  0.1783
   25MOL    H56 5864   0.372   4.376   2.769  0.2577 -0.0615  0.1071
   25MOL    H57 5865   0.350   4.522   2.839  1.4346 -1.1277  1.7770
   25MOL    H58 5866   0.338   4.530   2.589  1.1190  0.4118 -0.9317
   25MOL    H59 5867   0.461   4.944   2.572  1.5534  2.3740  0.7415
   25MOL    H60 5868   0.597   4.870   2.646  0.0218 -1.3981 -1.2058
   25MOL    H61 5869   0.492   4.960   2.748 -2.3588 -0.9157  0.0446
   25MOL    C62 5870   0.515   4.431   2.539 -0.1323 -0.6732  0.3327
   25MOL    C63 5871   0.490   4.447   2.389  0.6321 -0.4787  0.3233
   25MOL    O64 5872   0.576   4.560   2.349 -0.1243 -0.3028  0.7173
   25MOL    C65 5873   0.525   4.674   2.308  0.2054 -0.9744 -0.1923
   25MOL    C66 5874   0.623   4.788   2.304 -0.2340  1.1137  0.2358
   25MOL    O67 5875   0.408   4.686   2.263  0.2606  0.0106  0.0390
   25MOL    H68 5876   0.623   4.431   2.552 -0.1154  0.5622  0.2504
   25MOL    H69 5877   0.486   4.329   2.564 -1.3958 -0.2934  0.4661
   25MOL    H70 5878   0.385   4.475   2.377  0.5001 -0.8065  0.7251
   25MOL    H71 5879   0.565   4.880   2.313 -2.4721 -0.4013  1.9646
   25MOL    H72 5880   0.695   4.790   2.223 -0.5835 -0.0729 -0.1186
   25MOL    H73 5881   0.673   4.773   2.400  2.6920  4.1269 -0.7212
   25MOL    C74 5882   0.521   4.317   2.304  0.4366 -0.1768 -0.0305
   25MOL    C75 5883   0.416   4.207   2.285 -0.7704  0.2286 -0.6613
   25MOL    O76 5884   0.357   4.176   2.413 -0.4711 -0.6178  0.2397
   25MOL    C77 5885   0.325   4.045   2.446  0.1857 -0.5380  0.1111
   25MOL    C78 5886   0.245   4.032   2.579 -1.0365 -0.1239 -0.6083
   25MOL    O79 5887   0.366   3.949   2.384 -0.1981 -0.0814 -0.1438
   25MOL    H80 5888   0.556   4.348   2.206 -0.0975 -1.2176 -0.5478
   25MOL    H81 5889   0.603   4.263   2.352 -1.8884 -2.4462  1.4961
   25MOL    H82 5890   0.470   4.123   2.242 -1.1756 -0.0435 -0.6471
   25MOL    H83 5891   0.242   3.928   2.612 -2.1131  0.4659  1.2419
   25MOL    H84 5892   0.142   4.065   2.570 -1.5242 -1.2982  0.4960
   25MOL    H85 5893   0.306   4.099   2.640 -1.4327  0.0239 -0.3706
   25MOL    C86 5894   0.311   4.260   2.190 -0.7578 -0.3758  0.2537
   25MOL    C87 5895   0.182   4.171   2.172  0.0512 -0.0515  0.2478
   25MOL    O88 5896   0.082   4.259   2.122  0.0876 -0.4429  0.0828
   25MOL    C89 5897   0.007   4.330   2.208  0.1118  0.1103 -0.6534
   25MOL    C90 5898   7.921   4.408   2.143  0.4923 -0.4957 -0.3272
   25MOL    O91 5899   0.022   4.327   2.329 -0.3564 -0.3677 -0.5316
   25MOL    H92 5900   0.275   4.353   2.235 -1.2138 -1.0948  1.3780
   25MOL    H93 5901   0.349   4.285   2.090 -0.6706 -2.2682 -0.1949
   25MOL    H94 5902   0.144   4.143   2.271  1.3425  0.8183  1.0010
   25MOL    H95 5903   7.970   4.453   2.056 -1.8161 -0.3200 -1.5655
   25MOL    H96 5904   7.885   4.488   2.208 -1.0307 -2.5208  1.3770
   25MOL    H97 5905   7.842   4.348   2.099 -0.3375 -1.6675  2.7039
   25MOL    C98 5906   0.205   4.047   2.084 -0.7376 -0.8182  0.2652
   25MOL    C99 5907   0.106   3.934   2.121 -0.2007  0.3266  0.5700
   25MOL   O100 5908   7.996   3.989   2.124  0.2406 -0.0354 -0.0224
   25MOL   C101 5909   7.915   3.984   2.233 -0.2415  0.0204  0.4716
   25MOL   C102 5910   7.787   4.062   2.199 -0.6435 -0.5041  0.4192
   25MOL   O103 5911   7.932   3.937   2.343  0.2291 -0.4529  0.4847
   25MOL   H104 5912   0.180   4.068   1.980  1.1772 -0.6922 -0.1955
   25MOL   H105 5913   0.313   4.031   2.084 -0.6113 -0.2426 -2.5537
   25MOL   H106 5914   0.137   3.900   2.220  0.0602  0.7452  0.6298
   25MOL   H107 5915   7.804   4.111   2.104 -1.2203 -0.0627  0.5446
   25MOL   H108 5916   7.768   4.143   2.269  0.4674  1.6044 -1.6683
   25MOL   H109 5917   7.709   3.986   2.190 -0.6853 -0.4789  0.5696
   25MOL   C110 5918   0.104   3.809   2.038 -0.4090 -0.2097 -0.4346
   25MOL   C111 5919   0.232   3.719   2.046  0.4412  0.0759 -0.0840
   25MOL   O112 5920   0.222   3.637   2.165  0.0123  0.5030  0.2550
   25MOL   C113 5921   0.334   3.606   2.238 -0.2831 -0.8421 -0.1690
   25MOL   C114 5922   0.296   3.514   2.350 -0.0328 -0.3602 -0.1180
   25MOL   O115 5923   0.451   3.633   2.209 -0.7408  0.0348  0.5273
   25MOL   H116 5924   0.022   3.745   2.071 -0.2917  0.9171  2.2457
   25MOL   H117 5925   0.091   3.828   1.932 -1.1606  0.7093 -0.1815
   25MOL   H118 5926   0.310   3.794   2.035 -2.4814  3.0269 -1.6387
   25MOL   H119 5927   0.188   3.496   2.356  0.2317 -1.6749  0.8149
   25MOL   H120 5928   0.334   3.563   2.439 -0.1756  2.2961 -1.4788
   25MOL   H121 5929   0.354   3.424   2.333  0.6823 -0.6418  3.3248
   25MOL   C122 5930   0.241   3.626   1.927  0.3505  0.0471 -0.7407
   25MOL   C123 5931   0.354   3.526   1.906 -0.7224 -0.2244  0.0200
   25MOL   O124 5932   0.337   3.457   1.782  0.4176  0.3242 -0.0147
   25MOL   C125 5933   0.239   3.356   1.774  0.3786 -0.5975  0.1556
   25MOL   C126 5934   0.228   3.297   1.635 -0.4494  0.2196  0.0271
   25MOL   O127 5935   0.180   3.305   1.862  0.2737 -0.5537 -0.1766
   25MOL   H128 5936   0.146   3.573   1.917 -0.1781  1.2743 -2.4054
   25MOL   H129 5937   0.245   3.688   1.837  3.2181  0.3934 -0.4143
   25MOL   H130 5938   0.362   3.456   1.989 -0.5347  0.1693  0.3344
   25MOL   H131 5939   0.324   3.263   1.594 -1.1639 -0.2497 -1.3082
   25MOL   H132 5940   0.192   3.376   1.570  1.4060  0.9477 -0.1656
   25MOL   H133 5941   0.167   3.207   1.628  0.3053 -0.2413 -0.8545
   25MOL   C134 5942   0.488   3.601   1.894  0.1384  0.1643 -0.0110
   25MOL   C135 5943   0.616   3.523   1.877 -0.8933 -1.4918  0.2427
   25MOL   O136 5944   0.726   3.610   1.898 -0.7499  0.2568  0.3798
   25MOL   C137 5945   0.807   3.649   1.798 -0.8998  0.5796 -0.3415
   25MOL   C138 5946   0.910   3.744   1.847  0.1462  0.5343  0.1397
   25MOL   O139 5947   0.793   3.621   1.679 -0.2323  0.0823  0.8294
   25MOL   H140 5948   0.480   3.668   1.808 -1.5111  2.0666  1.5599
   25MOL   H141 5949   0.502   3.666   1.980 -1.0765 -0.7120  0.8697
   25MOL   H142 5950   0.628   3.475   1.780  2.5243  2.7763 -1.6431
   25MOL   H143 5951   1.005   3.712   1.806  0.0307  0.0595  0.2361
   25MOL   H144 5952   0.917   3.757   1.955  0.7334 -0.2408  0.1970
   25MOL   H145 5953   0.876   3.835   1.797 -0.3157 -0.4328 -1.3212
   25MOL   C146 5954   0.628   3.421   1.994  0.1102  0.0698 -0.1412
   25MOL   C147 5955   0.600   3.273   1.944  0.9769  0.2698 -0.3440
   25MOL   O148 5956   0.708   3.218   1.881  0.3391 -0.0770  0.1790
   25MOL   C149 5957   0.715   3.213   1.748 -0.3200  0.4825 -0.3560
   25MOL   C150 5958   0.856   3.166   1.701  0.4906  0.5171  0.4260
   25MOL   O151 5959   0.622   3.227   1.669  0.0153  0.2627  0.2280
   25MOL   H152 5960   0.712   3.435   2.063 -0.7607 -1.2651  1.2214
   25MOL   H153 5961   0.555   3.446   2.071 -2.0809 -0.7227 -1.9274
   25MOL   H154 5962   0.518   3.275   1.872  1.2469 -0.1583 -0.6631
   25MOL   H155 5963   0.868   3.063   1.667  2.7504  1.4064 -1.6072
   25MOL   H156 5964   0.928   3.184   1.780  1.3460 -0.7690 -0.0375
   25MOL   H157 5965   0.888   3.233   1.622 -1.6807  0.2089 -0.7631
   25MOL   C158 5966   0.573   3.179   2.064  0.0052  0.5804  0.1107
   25MOL   C159 5967   0.514   3.042   2.023 -0.5323 -0.4323  0.2412
   25MOL   O160 5968   0.503   2.961   2.142  0.5639  0.0881  0.1484
   25MOL   C161 5969   0.524   2.828   2.132  0.0168 -0.1706 -0.4782
   25MOL   C162 5970   0.482   2.757   2.261  0.5245 -0.6986 -0.1934
   25MOL   O163 5971   0.552   2.762   2.032 -0.5452 -0.6117  0.1836
   25MOL   H164 5972   0.664   3.166   2.123 -0.5587 -1.9769  0.4836
   25MOL   H165 5973   0.495   3.219   2.129  0.4156  0.1887  0.8516
   25MOL   H166 5974   0.582   2.995   1.952 -1.1205 -0.5115 -0.2799
   25MOL   H167 5975   0.386   2.798   2.292  1.7753  2.1448  0.1249
   25MOL   H168 5976   0.558   2.776   2.336 -0.1011  0.9161  0.0571
   25MOL   H169 5977   0.483   2.649   2.249 -1.3178 -0.8155  0.4592
   25MOL   C170 5978   0.371   3.062   1.958  0.1906 -0.1990  0.0580
   25MOL   C171 5979   0.335   2.947   1.866  0.1936 -0.8687 -0.4935
   25MOL   O172 5980   0.195   2.961   1.841  0.2836 -0.2204 -0.3520
   25MOL   C173 5981   0.110   2.867   1.881 -0.8843  0.3661  0.1342
   25MOL   C174 5982   7.988   2.902   1.844 -0.4328  0.6041 -0.4331
   25MOL   O175 5983   0.133   2.761   1.943 -0.2703  0.1821  0.2332
   25MOL   H176 5984   0.292   3.068   2.032 -0.1954 -2.2635 -0.1722
   25MOL   H177 5985   0.370   3.156   1.901  3.6817 -0.7832 -1.1423
   25MOL   H178 5986   0.368   2.850   1.903  0.9353  0.2262  1.8283
   25MOL   H179 5987   7.959   2.997   1.890  1.5200  1.3217 -0.6021
   25MOL   H180 5988   7.915   2.824   1.864  1.8019 -0.8228  2.6990
   25MOL   H181 5989   7.990   2.909   1.735 -0.0474 -0.6477 -0.5117
   25MOL   C182 5990   0.408   2.961   1.730 -0.0579  0.5478  0.4206
   25MOL   C183 5991   0.375   2.844   1.639 -0.3508 -0.2659 -0.2340
   25MOL   O184 5992   0.430   2.876   1.508  0.1772 -0.1571  0.6575
   25MOL   C185 5993   0.365   2.958   1.430  0.1211  0.0075 -0.6676
   25MOL   C186 5994   0.438   3.001   1.305 -0.2989 -0.2939 -0.5451
   25MOL   O187 5995   0.251   3.008   1.445 -0.1762 -0.4498  0.0709
   25MOL   H188 5996   0.381   3.054   1.681 -0.9040  0.2700  0.3464
   25MOL   H189 5997   0.517   2.954   1.725 -0.0819  0.6133 -0.3371
   25MOL   H190 5998   0.267   2.848   1.631 -0.3935 -0.4286  0.2483
   25MOL   H191 5999   0.415   2.916   1.241 -0.8419  0.0296 -0.7831
   25MOL   H192 6000   0.543   3.020   1.325 -0.0391 -0.5867 -1.5958
   25MOL   H193 6001   0.395   3.093   1.266 -0.5311 -0.0508  0.2705
   25MOL   C194 6002   0.425   2.701   1.683  0.1235  0.0305  0.1078
   25MOL   C195 6003   0.366   2.590   1.598  0.5066 -0.5090  0.2441
   25MOL   O196 6004   0.461   2.510   1.529  0.0349 -0.7536 -0.0674
   25MOL   C197 6005   0.504   2.537   1.411 -0.0691  0.0028 -0.1230
   25MOL   C198 6006   0.607   2.432   1.368 -0.6385 -0.5257 -0.3695
   25MOL   O199 6007   0.462   2.623   1.332  1.1750  0.0769  0.5698
   25MOL   H200 6008   0.534   2.699   1.688  0.0515 -0.1902  1.7343
   25MOL   H201 6009   0.386   2.680   1.782  2.2007 -2.2398  0.4989
   25MOL   H202 6010   0.315   2.647   1.521  0.1439 -1.6243 -0.3475
   25MOL   H203 6011   0.555   2.354   1.312  1.0444 -1.3299 -0.8303
   25MOL   H204 6012   0.667   2.381   1.443 -1.6935  0.4209  1.1657
   25MOL   H205 6013   0.667   2.478   1.290 -0.9896  0.1068 -0.2721
   25MOL   C206 6014   0.268   2.501   1.680  0.4722 -0.1816 -0.2412
   25MOL   C207 6015   0.217   2.376   1.614  0.2661 -0.1108  0.0309
   25MOL   O208 6016   0.111   2.334   1.700  0.7593  0.1135  0.3313
   25MOL   C209 6017   0.091   2.204   1.734  0.4619  0.6968  0.3241
   25MOL   C210 6018   7.995   2.187   1.830  0.8653  0.3293 -1.3004
   25MOL   O211 6019   0.149   2.112   1.672 -0.0987 -0.2299 -0.2815
   25MOL   H212 6020   0.309   2.473   1.778  2.3206 -1.2320 -1.2867
   25MOL   H213 6021   0.180   2.559   1.707  1.8349  0.0027  4.2628
   25MOL   H214 6022   0.292   2.298   1.612 -0.0946 -0.4782  0.7324
   25MOL   H215 6023   7.926   2.267   1.803  0.8523  1.0319  0.7389
   25MOL   H216 6024   0.006   2.202   1.933  1.6765  0.3603 -1.5599
   25MOL   H217 6025   7.942   2.092   1.819 -2.1029  1.8989 -1.0948
   25MOL   C218 6026   0.170   2.395   1.467  0.2332  0.0977  0.2519
   25MOL   C219 6027   0.132   2.270   1.390 -0.0525  0.2194 -0.4001
   25MOL   O220 6028   0.087   2.319   1.272 -0.1285  0.0317  0.5588
   25MOL   C221 6029   7.983   2.325   1.242  0.4240 -0.1831 -0.5597
   25MOL   C222 6030   7.950   2.406   1.120  0.3040 -0.2226  0.0836
   25MOL   O223 6031   7.891   2.272   1.305 -0.1952  0.0531  0.5799
   25MOL   H224 6032   0.080   2.456   1.479 -0.0598 -0.5610  1.6089
   25MOL   H225 6033   0.242   2.460   1.418  0.7288 -0.8072 -0.2189
   25MOL   H226 6034   0.064   2.205   1.446  0.9087 -0.2496  0.2276
   25MOL   H227 6035   7.847   2.443   1.119  0.1277 -0.6958  0.4154
   25MOL   H228 6036   7.950   2.347   1.028 -1.9956  0.9216 -0.6768
   25MOL   H229 6037   8.020   2.489   1.112  1.4606 -1.2357 -0.4864
   25MOL   C230 6038   0.262   2.179   1.364 -0.5812 -0.5662 -0.8860
   25MOL   C231 6039   0.240   2.065   1.274  0.4431  0.4710 -0.2234
   25MOL   O232 6040   0.355   2.006   1.222 -0.2837  0.2500  0.5162
   25MOL   C233 6041   0.423   1.918   1.294 -0.0330  0.5541 -0.2778
   25MOL   C234 6042   0.567   1.897   1.256  0.5547 -0.1589  0.2045
   25MOL   O235 6043   0.371   1.858   1.388 -0.0636  0.3795 -0.3129
   25MOL   H236 6044   0.349   2.231   1.325 -0.8741  0.3058 -0.3909
   25MOL   H237 6045   0.302   2.136   1.457 -1.7444 -0.5480 -0.3639
   25MOL   H238 6046   0.188   2.109   1.188 -2.1059 -0.4546  0.8005
   25MOL   H239 6047   0.577   1.804   1.201  0.1562  1.0561 -1.9927
   25MOL   H240 6048   0.625   1.876   1.346 -0.7117  0.7123  1.2393
   25MOL   H241 6049   0.608   1.984   1.205  0.5770 -0.0729  0.3665
   25MOL   H242 6050   0.164   1.996   1.311 -0.1838  1.2734  0.0042
   26MOL     C1 6051   4.610   5.161   1.563  0.1642  0.0778 -0.5177
   26MOL     C2 6052   4.648   5.261   1.674  0.1260  0.3160  0.0303
   26MOL     O3 6053   4.671   5.392   1.619 -0.1051 -0.1015  0.0019
   26MOL     C4 6054   4.787   5.452   1.635 -0.6105 -0.0100 -0.6603
   26MOL     C5 6055   4.780   5.601   1.586 -0.0741  0.4478  0.2875
   26MOL     O6 6056   4.890   5.413   1.680 -0.9390 -0.0708 -0.1950
   26MOL     H7 6057   4.692   5.153   1.491  2.3642 -1.5806  2.1068
   26MOL     H8 6058   4.513   5.189   1.522 -0.3590 -2.0318 -0.7756
   26MOL     H9 6059   4.735   5.228   1.732 -0.9738  1.3013  2.3129
   26MOL    H10 6060   4.818   5.662   1.668  1.6813  0.3262 -0.3935
   26MOL    H11 6061   4.683   5.639   1.556  0.3606 -0.3427 -2.1901
   26MOL    H12 6062   4.844   5.619   1.499  1.4114  0.6950  1.4071
   26MOL    H13 6063   4.589   5.065   1.608 -1.5203 -0.4718 -2.3964
   26MOL    C14 6064   4.530   5.266   1.773 -0.2955  0.0732  0.0754
   26MOL    C15 6065   4.495   5.138   1.855 -0.2465 -0.1828  0.0714
   26MOL    O16 6066   4.616   5.112   1.926 -0.4317  0.1211 -0.3511
   26MOL    C17 6067   4.648   4.980   1.954 -0.1496 -0.5513  0.4276
   26MOL    C18 6068   4.790   4.966   2.012  0.3927 -0.7730  0.2374
   26MOL    O19 6069   4.571   4.888   1.945 -0.3396 -0.3555  0.9618
   26MOL    H20 6070   4.542   5.353   1.838 -0.3555 -0.5335  0.9085
   26MOL    H21 6071   4.450   5.298   1.706  0.0502  3.8354  1.3009
   26MOL    H22 6072   4.466   5.055   1.790  1.6248 -1.6412  1.0410
   26MOL    H23 6073   4.804   5.025   2.102  0.4108  0.0357 -0.2937
   26MOL    H24 6074   4.864   5.002   1.941  1.2581  0.8582  1.9347
   26MOL    H25 6075   4.810   4.870   2.059  0.8212 -0.3205  0.9864
   26MOL    C26 6076   4.394   5.182   1.961  0.0540  0.6996  0.0580
   26MOL    C27 6077   4.254   5.201   1.911  0.3160  0.2363  1.0625
   26MOL    O28 6078   4.204   5.083   1.863  0.2592  1.1741  0.2335
   26MOL    C29 6079   4.209   5.050   1.730  0.0629  0.2903  0.1676
   26MOL    C30 6080   4.162   4.907   1.701 -0.2379 -0.1594 -0.3681
   26MOL    O31 6081   4.257   5.120   1.643  0.2664  0.0236 -0.1124
   26MOL    H32 6082   4.389   5.112   2.044  1.0581  3.5789  2.6699
   26MOL    H33 6083   4.426   5.273   2.012 -0.3640  1.1807 -0.5155
   26MOL    H34 6084   4.248   5.277   1.833  1.9919  0.3833  1.0565
   26MOL    H35 6085   4.233   4.833   1.738 -0.9007 -1.1275 -1.0073
   26MOL    H36 6086   4.133   4.878   1.600  0.4088 -1.5202 -0.1745
   26MOL    H37 6087   4.072   4.886   1.759 -1.6221  0.7398 -2.1271
   26MOL    C38 6088   4.162   5.250   2.018  0.1720 -0.2166 -0.3074
   26MOL    C39 6089   4.017   5.280   1.974 -0.1695  0.2018  0.2133
   26MOL    O40 6090   3.933   5.260   2.088 -0.0816  0.6679 -0.2283
   26MOL    C41 6091   3.849   5.149   2.091  1.0213 -0.2106  0.3441
   26MOL    C42 6092   3.777   5.132   2.226 -0.1861 -0.1458  1.0856
   26MOL    O43 6093   3.835   5.072   1.999  0.3043  0.4783  0.0299
   26MOL    H44 6094   4.153   5.175   2.096  0.6665  0.0062 -0.0328
   26MOL    H45 6095   4.208   5.335   2.068 -0.2801  0.6300 -1.3299
   26MOL    H46 6096   3.990   5.211   1.894  1.2298 -0.3340  0.1866
   26MOL    H47 6097   3.719   5.220   2.254 -0.7445  0.5028 -1.8575
   26MOL    H48 6098   3.853   5.121   2.302  0.5552  1.3793  0.5902
   26MOL    H49 6099   3.704   5.051   2.218  2.4307 -2.3914 -1.2326
   26MOL    C50 6100   3.987   5.430   1.922  0.4895 -0.6456  0.2112
   26MOL    C51 6101   4.011   5.546   2.027  0.7660  0.1209 -0.3260
   26MOL    O52 6102   4.145   5.578   2.008 -0.0042 -0.5528  0.2071
   26MOL    C53 6103   4.222   5.609   2.114  0.3623 -0.5043 -0.3278
   26MOL    C54 6104   4.362   5.638   2.077 -0.3068  0.0625 -1.1307
   26MOL    O55 6105   4.176   5.606   2.230 -0.3787 -0.2791  0.0753
   26MOL    H56 6106   4.038   5.442   1.827  0.5121  0.1830  0.3219
   26MOL    H57 6107   3.881   5.422   1.900  0.6662 -0.1381 -0.8262
   26MOL    H58 6108   3.998   5.507   2.128  1.3354 -1.4554 -0.8537
   26MOL    H59 6109   4.374   5.692   1.983  1.0438  2.4809  0.3728
   26MOL    H60 6110   4.415   5.543   2.069  1.5778  0.7740  2.0144
   26MOL    H61 6111   4.403   5.689   2.165  0.6849  0.1480 -1.6335
   26MOL    C62 6112   3.933   5.678   1.993  0.3310 -0.9403  0.2450
   26MOL    C63 6113   3.776   5.678   2.003 -0.5585  0.1362 -0.8995
   26MOL    O64 6114   3.747   5.625   2.123 -0.6317  0.0618  0.6000
   26MOL    C65 6115   3.669   5.512   2.138  0.1975  0.3030 -0.2754
   26MOL    C66 6116   3.620   5.487   2.274 -0.6597 -0.3034  1.1044
   26MOL    O67 6117   3.636   5.432   2.048 -0.0266  0.2441  0.2614
   26MOL    H68 6118   3.971   5.755   2.060 -1.4326 -0.7174  0.9987
   26MOL    H69 6119   3.947   5.701   1.887 -2.3821  0.1977  0.0873
   26MOL    H70 6120   3.739   5.624   1.916 -3.0191 -1.8168  1.2758
   26MOL    H71 6121   3.512   5.484   2.281 -0.7364  0.1833  0.2422
   26MOL    H72 6122   3.660   5.570   2.332 -1.1979  0.8100 -0.0810
   26MOL    H73 6123   3.641   5.385   2.303  3.8432  0.2882  0.3097
   26MOL    C74 6124   3.720   5.821   2.001  0.5484 -0.0462 -0.1449
   26MOL    C75 6125   3.568   5.828   1.979 -1.3869  0.2786  0.4362
   26MOL    O76 6126   3.494   5.927   2.058  0.7951  0.3299  0.3779
   26MOL    C77 6127   3.447   5.906   2.184  0.3710  0.2869  0.3597
   26MOL    C78 6128   3.376   6.030   2.235 -0.1554  0.5047  0.2620
   26MOL    O79 6129   3.456   5.802   2.249 -0.6593 -0.2415  0.2751
   26MOL    H80 6130   3.738   5.874   2.094 -0.6636 -0.5038  0.3646
   26MOL    H81 6131   3.766   5.883   1.925 -1.5310  4.2414  1.9209
   26MOL    H82 6132   3.528   5.727   1.989  0.1113 -0.3196  0.4749
   26MOL    H83 6133   3.395   6.023   2.342  1.0681 -0.7484 -0.0329
   26MOL    H84 6134   3.268   6.025   2.219  0.1666 -0.5540 -1.8000
   26MOL    H85 6135   3.426   6.123   2.208  0.7656  0.3017  1.2527
   26MOL    C86 6136   3.544   5.862   1.824 -0.9355  0.3490 -0.1539
   26MOL    C87 6137   3.400   5.837   1.774 -0.0616  0.4623  0.3417
   26MOL    O88 6138   3.316   5.942   1.812 -0.0082  0.0748  0.1637
   26MOL    C89 6139   3.196   5.918   1.851  0.7976 -0.9489 -0.1142
   26MOL    C90 6140   3.118   6.050   1.852 -0.2431  0.7066 -0.8352
   26MOL    O91 6141   3.149   5.806   1.867 -0.1952  0.6341 -0.2577
   26MOL    H92 6142   3.585   5.960   1.802 -1.2121 -0.0728 -2.7387
   26MOL    H93 6143   3.599   5.793   1.760 -1.1312 -1.2874  1.4214
   26MOL    H94 6144   3.360   5.743   1.810 -0.6016  0.2331 -0.8334
   26MOL    H95 6145   3.081   6.073   1.952  0.1736 -1.6876 -0.0887
   26MOL    H96 6146   3.039   6.066   1.779 -3.3445  0.2447  2.3032
   26MOL    H97 6147   3.191   6.129   1.834  3.5435 -2.1248  1.2665
   26MOL    C98 6148   3.392   5.824   1.620  0.0089 -0.8784  0.0988
   26MOL    C99 6149   3.430   5.690   1.570 -0.2426 -0.9936  1.4072
   26MOL   O100 6150   3.309   5.617   1.562 -0.2851  0.1389 -0.4059
   26MOL   C101 6151   3.290   5.519   1.653  0.4955 -0.2035  0.5862
   26MOL   C102 6152   3.142   5.493   1.693 -0.2506 -0.5003 -0.3723
   26MOL   O103 6153   3.374   5.444   1.694 -0.0272 -0.4535  0.0596
   26MOL   H104 6154   3.293   5.850   1.584  0.1049 -0.3731  0.1971
   26MOL   H105 6155   3.458   5.899   1.577  0.4617 -1.6259 -0.5370
   26MOL   H106 6156   3.502   5.644   1.638 -2.1528 -1.8191  2.9111
   26MOL   H107 6157   3.122   5.398   1.744 -2.6295  0.8290  1.2311
   26MOL   H108 6158   3.082   5.504   1.603 -0.7623 -1.9539 -0.2322
   26MOL   H109 6159   3.098   5.555   1.770 -1.4452 -0.0937 -1.3679
   26MOL   C110 6160   3.496   5.686   1.430 -0.1904  0.2116  0.2931
   26MOL   C111 6161   3.516   5.545   1.367 -0.3626  0.5911  0.6067
   26MOL   O112 6162   3.397   5.500   1.295 -0.4874 -0.6389 -0.3911
   26MOL   C113 6163   3.365   5.369   1.288 -0.4630  0.5526  0.2103
   26MOL   C114 6164   3.225   5.348   1.236  0.6388  0.0069 -0.7539
   26MOL   O115 6165   3.443   5.275   1.309  0.2109  0.0546  0.4777
   26MOL   H116 6166   3.426   5.744   1.369 -0.1275  1.3378  1.2836
   26MOL   H117 6167   3.593   5.734   1.432 -0.3554  0.5030  1.6545
   26MOL   H118 6168   3.546   5.469   1.439 -0.6844 -0.2427 -0.1218
   26MOL   H119 6169   3.224   5.302   1.137 -1.1457  0.9801 -1.2105
   26MOL   H120 6170   3.168   5.441   1.234  0.9957  0.2448  0.1657
   26MOL   H121 6171   3.180   5.283   1.312 -0.2384  0.0190 -1.2541
   26MOL   C122 6172   3.632   5.554   1.268 -0.3109  0.2997 -0.5368
   26MOL   C123 6173   3.773   5.569   1.342 -0.2116 -0.1229 -0.0725
   26MOL   O124 6174   3.797   5.451   1.419 -0.2449  0.3099  0.1108
   26MOL   C125 6175   3.781   5.452   1.555 -0.0413 -0.0654  0.2684
   26MOL   C126 6176   3.792   5.317   1.619  0.0898  0.2488  0.7988
   26MOL   O127 6177   3.753   5.549   1.625 -0.1054 -0.7018 -0.0513
   26MOL   H128 6178   3.635   5.451   1.232 -0.1218  0.1178 -0.0026
   26MOL   H129 6179   3.622   5.632   1.192  0.8462  0.2670 -0.7375
   26MOL   H130 6180   3.777   5.651   1.414  0.3699  0.2355 -0.5067
   26MOL   H131 6181   3.730   5.236   1.580  0.8957  0.2868 -0.5915
   26MOL   H132 6182   3.764   5.324   1.725  0.7677  0.4202  0.9656
   26MOL   H133 6183   3.894   5.278   1.621 -0.0260 -0.1534 -0.6121
   26MOL   C134 6184   3.881   5.585   1.246 -0.7902  0.2560  0.6294
   26MOL   C135 6185   4.022   5.616   1.307  0.7618 -0.4746 -0.4649
   26MOL   O136 6186   4.093   5.500   1.355 -0.1101 -0.2485  0.0307
   26MOL   C137 6187   4.127   5.505   1.480 -0.3151 -0.0384  0.1027
   26MOL   C138 6188   4.195   5.375   1.512  0.2786 -0.0456  1.0232
   26MOL   O139 6189   4.111   5.597   1.562 -0.4880 -0.4253  0.2474
   26MOL   H140 6190   3.885   5.494   1.185 -1.0428  0.7188 -0.0916
   26MOL   H141 6191   3.854   5.671   1.184 -0.9704  1.3467  2.1879
   26MOL   H142 6192   4.003   5.689   1.386  0.9161 -1.3980  0.4545
   26MOL   H143 6193   4.123   5.294   1.528 -1.2330  0.9471 -0.5248
   26MOL   H144 6194   4.252   5.392   1.603 -0.3678  1.5991  1.1334
   26MOL   H145 6195   4.273   5.352   1.439 -1.8303 -0.6075 -1.1383
   26MOL   C146 6196   4.101   5.679   1.189 -0.3083  0.4138 -0.3162
   26MOL   C147 6197   4.249   5.735   1.212 -0.2029 -0.8225  0.0379
   26MOL   O148 6198   4.301   5.782   1.088 -0.2664 -0.0917  0.1829
   26MOL   C149 6199   4.372   5.707   1.001 -0.9112 -0.6965 -0.3661
   26MOL   C150 6200   4.420   5.784   0.879  0.3194  0.5100 -0.2937
   26MOL   O151 6201   4.388   5.587   1.019  0.2143  0.4851  0.3851
   26MOL   H152 6202   4.107   5.604   1.111  0.6566 -1.0507  1.1218
   26MOL   H153 6203   4.051   5.758   1.133 -2.4461 -0.7197 -0.0797
   26MOL   H154 6204   4.309   5.651   1.246  0.5706 -1.3517 -2.5184
   26MOL   H155 6205   4.423   5.724   0.789 -1.4564  1.4695 -1.0181
   26MOL   H156 6206   4.522   5.820   0.893 -0.3560  3.0299 -1.4128
   26MOL   H157 6207   4.345   5.860   0.855 -1.6447 -0.5426  2.2478
   26MOL   C158 6208   4.249   5.866   1.296  0.5389  0.0029 -0.5920
   26MOL   C159 6209   4.374   5.869   1.394 -0.0371 -0.6264 -0.3562
   26MOL   O160 6210   4.375   5.761   1.483  0.1695  0.1633  0.2282
   26MOL   C161 6211   4.425   5.777   1.604 -0.1945  0.0985  0.0620
   26MOL   C162 6212   4.421   5.657   1.687 -0.0268  0.0589  0.1802
   26MOL   O163 6213   4.452   5.881   1.659 -0.0757 -0.0980 -1.3692
   26MOL   H164 6214   4.249   5.962   1.244 -0.6228  0.0300 -0.5366
   26MOL   H165 6215   4.156   5.867   1.352  1.6716  2.2147  1.3564
   26MOL   H166 6216   4.367   5.966   1.444 -0.6297 -1.1475  0.5858
   26MOL   H167 6217   4.316   5.628   1.689  0.4632 -1.7982 -0.3385
   26MOL   H168 6218   4.457   5.676   1.788 -3.4676  2.7141  1.0194
   26MOL   H169 6219   4.480   5.579   1.640  1.3386 -0.4094  2.5811
   26MOL   C170 6220   4.508   5.881   1.322  0.0793  0.0926 -0.2266
   26MOL   C171 6221   4.525   6.011   1.234 -0.6598 -0.3516 -1.0974
   26MOL   O172 6222   4.557   6.121   1.318  0.1157 -0.2391 -0.1439
   26MOL   C173 6223   4.460   6.202   1.360 -0.0091 -0.3538 -1.0061
   26MOL   C174 6224   4.523   6.321   1.432 -0.3327 -0.5832 -0.3874
   26MOL   O175 6225   4.338   6.197   1.343  0.4126 -0.1542  0.1584
   26MOL   H176 6226   4.603   5.868   1.375  0.0544 -0.0823 -0.2232
   26MOL   H177 6227   4.519   5.787   1.268 -0.5805  0.7527 -1.5142
   26MOL   H178 6228   4.436   6.043   1.179 -1.2422 -1.7145 -0.9677
   26MOL   H179 6229   4.462   6.355   1.516  0.7915  0.1281  0.1392
   26MOL   H180 6230   4.543   6.396   1.356  0.3174 -1.4233 -1.0561
   26MOL   H181 6231   4.622   6.297   1.470 -0.5776  1.0471  1.3373
   26MOL   C182 6232   4.641   5.993   1.130 -1.0010 -0.0326 -0.3768
   26MOL   C183 6233   4.682   6.123   1.043  0.5843 -0.3519 -0.5209
   26MOL   O184 6234   4.755   6.212   1.131  0.0799 -0.1087 -0.0248
   26MOL   C185 6235   4.739   6.345   1.134  0.3841  0.3005 -0.1980
   26MOL   C186 6236   4.819   6.424   1.237 -0.4851  0.3707  0.1600
   26MOL   O187 6237   4.666   6.399   1.052  0.1305  0.4550  0.5165
   26MOL   H188 6238   4.733   5.962   1.180 -0.7060  0.5827 -0.5281
   26MOL   H189 6239   4.622   5.914   1.057  2.6709 -0.6852 -0.7154
   26MOL   H190 6240   4.592   6.177   1.016 -0.4263 -1.4123  0.6684
   26MOL   H191 6241   4.846   6.514   1.181  1.8997 -1.2503 -1.3941
   26MOL   H192 6242   4.903   6.364   1.270  0.5215  1.5783 -0.1492
   26MOL   H193 6243   4.759   6.446   1.325  0.9548  2.8049  0.5957
   26MOL   C194 6244   4.774   6.086   0.926  0.3197  0.0368  0.2429
   26MOL   C195 6245   4.816   6.201   0.830  0.0030 -0.5438 -0.5362
   26MOL   O196 6246   4.904   6.140   0.731 -0.3684  0.2557 -0.0422
   26MOL   C197 6247   5.025   6.178   0.714 -0.2306 -0.7503 -0.9265
   26MOL   C198 6248   5.077   6.120   0.578  0.1835 -0.4987 -0.2422
   26MOL   O199 6249   5.086   6.249   0.792 -0.4040  0.6895  0.6804
   26MOL   H200 6250   4.871   6.047   0.956  0.1686 -0.3972  0.1690
   26MOL   H201 6251   4.725   6.007   0.869 -1.5405  0.9253  0.5595
   26MOL   H202 6252   4.867   6.268   0.899 -0.2229  0.8322 -1.6934
   26MOL   H203 6253   5.185   6.104   0.588 -0.2148 -2.4213  1.1487
   26MOL   H204 6254   5.064   6.190   0.495  1.3852 -0.5402 -0.4852
   26MOL   H205 6255   5.035   6.023   0.552  0.2615 -0.2163 -1.4541
   26MOL   C206 6256   4.709   6.268   0.751  0.1518  0.4851 -0.2081
   26MOL   C207 6257   4.759   6.395   0.680  0.1304  0.3772 -1.1264
   26MOL   O208 6258   4.662   6.425   0.580 -0.0453 -0.2229 -0.0201
   26MOL   C209 6259   4.692   6.382   0.455  0.4152  0.0589 -0.1513
   26MOL   C210 6260   4.594   6.432   0.359  0.2628  0.7642  0.1771
   26MOL   O211 6261   4.790   6.312   0.429  0.2874  0.6115  0.6912
   26MOL   H212 6262   4.680   6.202   0.670  0.1328  0.7090 -0.3863
   26MOL   H213 6263   4.616   6.274   0.807  1.5946 -1.8160  2.5498
   26MOL   H214 6264   4.859   6.374   0.642  1.0127 -0.5753  1.6261
   26MOL   H215 6265   4.493   6.433   0.399 -0.9476  0.3344 -2.7097
   26MOL   H216 6266   4.585   6.373   0.267  2.3494  1.7719 -0.7204
   26MOL   H217 6267   4.629   6.526   0.315 -0.5072  0.4728 -1.0861
   26MOL   C218 6268   4.759   6.519   0.773  0.8156 -0.2957  0.5814
   26MOL   C219 6269   4.806   6.646   0.696  0.3700  0.5794  0.0734
   26MOL   O220 6270   4.801   6.749   0.786  0.8573 -0.4792 -0.1512
   26MOL   C221 6271   4.750   6.875   0.772 -0.2631  0.2324  0.4358
   26MOL   C222 6272   4.781   6.949   0.895  0.0860 -0.1005 -0.3504
   26MOL   O223 6273   4.684   6.916   0.678 -0.7868 -0.1746 -0.5770
   26MOL   H224 6274   4.660   6.533   0.816  0.3200  0.5953 -0.7938
   26MOL   H225 6275   4.817   6.513   0.865  0.2563 -2.2763  0.8166
   26MOL   H226 6276   4.751   6.682   0.608  1.5793  1.8298 -0.1947
   26MOL   H227 6277   4.869   7.008   0.868  0.3904 -0.0828  0.6604
   26MOL   H228 6278   4.798   6.880   0.977 -0.2385 -0.6061 -0.7092
   26MOL   H229 6279   4.707   7.017   0.937  0.1600 -0.5539  0.5257
   26MOL   C230 6280   4.963   6.628   0.657 -0.2520  0.6586  0.2256
   26MOL   C231 6281   5.003   6.725   0.548 -0.1054 -0.5732  0.2312
   26MOL   O232 6282   5.128   6.698   0.491  0.2068  0.2958  0.2439
   26MOL   C233 6283   5.177   6.799   0.419  0.4915  0.2372  0.0323
   26MOL   C234 6284   5.327   6.779   0.402  0.1048 -0.1566 -0.0302
   26MOL   O235 6285   5.125   6.906   0.385  0.7482 -0.4047 -0.0987
   26MOL   H236 6286   5.029   6.633   0.743  0.0982  0.0512 -0.0099
   26MOL   H237 6287   4.977   6.527   0.619 -2.5834  0.8908 -1.3797
   26MOL   H238 6288   5.006   6.826   0.590  0.8418  0.1694 -1.5500
   26MOL   H239 6289   5.368   6.878   0.380  1.0366 -0.5206  0.0646
   26MOL   H240 6290   5.356   6.716   0.318  1.9906  0.5330  0.0785
   26MOL   H241 6291   5.367   6.738   0.494 -2.5003  0.4063  1.4102
   26MOL   H242 6292   4.924   6.727   0.472  1.4636  0.5992 -1.4308
   27MOL     C1 6293   3.191   4.866   3.817 -0.1846 -0.3669 -0.1624
   27MOL     C2 6294   3.150   4.995   3.894  0.4995  0.4488  0.5002
   27MOL     O3 6295   3.080   5.077   3.798  0.5496 -0.1435 -0.0077
   27MOL     C4 6296   3.083   5.210   3.813 -0.0888 -0.5037  0.2359
   27MOL     C5 6297   2.998   5.266   3.705  0.6936  0.5961 -0.5410
   27MOL     O6 6298   3.154   5.274   3.888  0.3637 -0.4412 -0.1017
   27MOL     H7 6299   3.257   4.887   3.733  2.7352 -3.5179  1.2158
   27MOL     H8 6300   3.109   4.813   3.770 -0.7754  1.5065 -1.3220
   27MOL     H9 6301   3.243   5.046   3.917  1.0847 -0.0946 -0.6103
   27MOL    H10 6302   2.974   5.369   3.732  2.4988  0.8781  0.0931
   27MOL    H11 6303   2.904   5.211   3.710  0.6880  0.5824 -0.7677
   27MOL    H12 6304   3.035   5.245   3.605  0.9297 -0.4009 -0.2490
   27MOL    H13 6305   3.251   4.800   3.880 -0.2118 -1.9373 -1.7446
   27MOL    C14 6306   3.067   4.963   4.022 -0.7139  0.3219 -0.1290
   27MOL    C15 6307   3.160   4.913   4.136  0.1221  0.4553  0.0569
   27MOL    O16 6308   3.252   5.012   4.185 -0.2068 -0.7234  0.1444
   27MOL    C17 6309   3.376   5.004   4.156  0.2543 -0.1036  0.1461
   27MOL    C18 6310   3.451   5.121   4.218 -0.0920  0.2713 -0.4136
   27MOL    O19 6311   3.428   4.936   4.068 -0.1974  0.3896  0.4959
   27MOL    H20 6312   3.022   5.058   4.049  0.0830  0.6111  0.1960
   27MOL    H21 6313   2.984   4.894   4.003 -0.5910  0.1530 -0.0492
   27MOL    H22 6314   3.213   4.824   4.103 -0.3351  0.2576 -0.1461
   27MOL    H23 6315   3.559   5.110   4.211 -0.1012 -0.3413  0.3596
   27MOL    H24 6316   3.436   5.109   4.325  2.0262 -0.2362 -0.1492
   27MOL    H25 6317   3.426   5.217   4.174 -0.2552  0.1034 -0.6910
   27MOL    C26 6318   3.080   4.872   4.262  0.1008  0.1638 -1.4066
   27MOL    C27 6319   3.166   4.827   4.382  0.7138 -0.8831 -0.0524
   27MOL    O28 6320   3.064   4.792   4.476 -0.1810  0.2337 -0.3485
   27MOL    C29 6321   3.049   4.857   4.593 -1.3524 -0.5240 -0.4889
   27MOL    C30 6322   2.946   4.789   4.674  0.0095  0.2474  0.4508
   27MOL    O31 6323   3.097   4.969   4.630  0.6384 -0.6004 -0.1721
   27MOL    H32 6324   3.032   4.968   4.279  0.9052  0.5598 -1.3106
   27MOL    H33 6325   3.001   4.801   4.239 -0.5431  0.8466 -1.3131
   27MOL    H34 6326   3.215   4.915   4.424  1.3527 -0.1592 -2.2265
   27MOL    H35 6327   3.004   4.734   4.748 -1.0263 -0.7790  0.5077
   27MOL    H36 6328   2.889   4.721   4.611  0.0422 -0.2120  0.9145
   27MOL    H37 6329   2.875   4.858   4.718  0.2393  0.1121  1.0317
   27MOL    C38 6330   3.257   4.704   4.361 -0.8463  0.1645  0.5602
   27MOL    C39 6331   3.356   4.665   4.471  0.4156  0.6166 -0.4389
   27MOL    O40 6332   3.289   4.608   4.576 -0.0499  0.6036  0.0184
   27MOL    C41 6333   3.321   4.637   4.708  0.4770  0.4396  0.6946
   27MOL    C42 6334   3.237   4.556   4.811 -1.1521 -0.1100  0.0264
   27MOL    O43 6335   3.410   4.712   4.744 -0.4373 -0.2083  0.2970
   27MOL    H44 6336   3.193   4.619   4.339  0.3083 -0.1023 -1.9076
   27MOL    H45 6337   3.307   4.709   4.264 -1.7877 -1.5169 -0.0266
   27MOL    H46 6338   3.407   4.757   4.499  1.3125  0.0726 -0.2301
   27MOL    H47 6339   3.143   4.513   4.776 -1.4851  0.0858  0.6675
   27MOL    H48 6340   3.228   4.599   4.911  0.4266 -0.4937  0.3407
   27MOL    H49 6341   3.301   4.470   4.829 -2.2180 -0.8789  0.2274
   27MOL    C50 6342   3.464   4.558   4.420  0.0111 -0.6878  0.1542
   27MOL    C51 6343   3.589   4.621   4.349 -0.6183  0.4837 -0.3225
   27MOL    O52 6344   3.677   4.700   4.436 -0.4126  0.0126 -0.5260
   27MOL    C53 6345   3.674   4.829   4.438  0.2537 -0.0557 -0.5349
   27MOL    C54 6346   3.768   4.892   4.544  0.2626  0.5869  0.5159
   27MOL    O55 6347   3.605   4.909   4.370  0.8103  0.0560 -0.1116
   27MOL    H56 6348   3.498   4.493   4.500 -1.0782 -1.7332 -0.2008
   27MOL    H57 6349   3.416   4.481   4.360  0.1451  0.6976 -1.7903
   27MOL    H58 6350   3.573   4.678   4.258 -0.2837 -0.6435 -1.0956
   27MOL    H59 6351   3.836   4.817   4.582  0.3341 -0.1062 -0.9481
   27MOL    H60 6352   3.709   4.926   4.630 -0.2295  3.4968 -0.8930
   27MOL    H61 6353   3.822   4.981   4.513 -2.6774  1.8214 -1.2818
   27MOL    C62 6354   3.678   4.513   4.287 -0.2832  1.1057  0.3096
   27MOL    C63 6355   3.625   4.449   4.150  0.0065 -0.2083 -0.1211
   27MOL    O64 6356   3.635   4.537   4.032 -0.6540  0.2419 -0.3310
   27MOL    C65 6357   3.533   4.613   3.998  0.3469 -0.0752 -0.8688
   27MOL    C66 6358   3.559   4.701   3.879  0.3305  0.6495  0.4024
   27MOL    O67 6359   3.422   4.606   4.052  0.1669 -0.0081  0.1945
   27MOL    H68 6360   3.780   4.548   4.267  0.0475  0.3161  0.6194
   27MOL    H69 6361   3.684   4.427   4.353  0.4160  0.8899 -0.0274
   27MOL    H70 6362   3.523   4.415   4.167 -0.0345 -0.6058 -1.1301
   27MOL    H71 6363   3.633   4.775   3.907 -0.9655  2.0860  0.0670
   27MOL    H72 6364   3.469   4.753   3.847 -0.3134 -0.3619  0.5323
   27MOL    H73 6365   3.596   4.650   3.790  2.1777  3.0379 -0.2514
   27MOL    C74 6366   3.714   4.324   4.129 -0.2298  0.2677 -0.3851
   27MOL    C75 6367   3.692   4.243   4.001  0.5097 -0.1701 -0.4498
   27MOL    O76 6368   3.787   4.302   3.907 -0.0965  0.5527 -0.2441
   27MOL    C77 6369   3.747   4.354   3.791  0.0857 -0.6735 -0.6858
   27MOL    C78 6370   3.843   4.352   3.682 -0.2994  0.7147 -0.2947
   27MOL    O79 6371   3.633   4.384   3.770  0.2364  0.2485  0.1865
   27MOL    H80 6372   3.820   4.347   4.131 -0.0542 -0.3680  4.1124
   27MOL    H81 6373   3.700   4.259   4.216  0.5873 -0.3040 -0.6843
   27MOL    H82 6374   3.588   4.264   3.974  0.3127 -0.3071  0.1801
   27MOL    H83 6375   3.907   4.439   3.673  0.2369  0.4602  0.9503
   27MOL    H84 6376   3.778   4.345   3.595  0.0870  2.4019 -0.7260
   27MOL    H85 6377   3.896   4.256   3.677 -1.4308  0.1436 -1.7713
   27MOL    C86 6378   3.721   4.090   4.009 -0.3238  0.6349 -0.0622
   27MOL    C87 6379   3.649   4.018   3.896  0.3245  0.5203  0.2091
   27MOL    O88 6380   3.759   3.968   3.814 -0.3506  0.2726  0.6438
   27MOL    C89 6381   3.754   3.980   3.687 -0.3087  0.1813  0.2612
   27MOL    C90 6382   3.880   3.916   3.626  0.1642 -0.5197  0.2130
   27MOL    O91 6383   3.668   4.031   3.618 -0.0919 -0.0669  0.2694
   27MOL    H92 6384   3.828   4.069   4.009 -0.5677 -0.6723  0.6152
   27MOL    H93 6385   3.681   4.052   4.103 -1.7554  0.8019 -0.5891
   27MOL    H94 6386   3.585   4.086   3.840 -0.1808  1.3330  1.7543
   27MOL    H95 6387   3.945   4.003   3.617 -0.1661 -0.3788 -0.8276
   27MOL    H96 6388   3.853   3.873   3.530 -1.1667  0.6790  0.0348
   27MOL    H97 6389   3.936   3.836   3.674  0.1538 -0.7801 -0.2038
   27MOL    C98 6390   3.572   3.889   3.925 -0.4144 -0.5604 -0.9840
   27MOL    C99 6391   3.444   3.904   4.015  0.5625  0.4688 -0.4353
   27MOL   O100 6392   3.364   3.998   3.950  0.6740  0.6372  1.1127
   27MOL   C101 6393   3.329   4.117   4.007 -0.7244  0.2125  0.6096
   27MOL   C102 6394   3.232   4.194   3.924 -0.3380  0.1938  0.1420
   27MOL   O103 6395   3.382   4.167   4.109  0.2912 -0.3112 -0.0687
   27MOL   H104 6396   3.536   3.835   3.837  0.8946  0.3099 -2.0591
   27MOL   H105 6397   3.633   3.821   3.985 -1.8244  0.2808  1.4689
   27MOL   H106 6398   3.471   3.951   4.109 -0.7600  0.5080 -0.0581
   27MOL   H107 6399   3.185   4.139   3.843  1.6500 -0.3191 -0.7002
   27MOL   H108 6400   3.287   4.261   3.859 -1.3463  1.5647  0.6787
   27MOL   H109 6401   3.150   4.240   3.979 -1.1804 -0.6385 -0.4013
   27MOL   C110 6402   3.370   3.771   4.041 -0.7620 -0.6899 -0.4569
   27MOL   C111 6403   3.256   3.793   4.142  0.1790  0.2542 -0.4756
   27MOL   O112 6404   3.161   3.701   4.089 -0.0077  0.1780 -0.3560
   27MOL   C113 6405   3.045   3.745   4.033  0.2700  0.2866  0.3005
   27MOL   C114 6406   2.966   3.621   3.986  0.0866 -0.0606 -0.6205
   27MOL   O115 6407   3.003   3.858   4.026  0.2503 -0.0835  0.6524
   27MOL   H116 6408   3.323   3.757   3.944 -2.7236  1.2695  0.1640
   27MOL   H117 6409   3.420   3.675   4.052 -1.4805 -0.8105  2.0356
   27MOL   H118 6410   3.223   3.896   4.140  0.6793  0.4183 -0.4321
   27MOL   H119 6411   3.012   3.550   3.917  1.1998  2.0169 -2.0594
   27MOL   H120 6412   2.873   3.664   3.947 -0.3540  0.3751  0.8895
   27MOL   H121 6413   2.929   3.568   4.074  1.2412  1.8027  1.0105
   27MOL   C122 6414   3.281   3.754   4.289 -0.3636 -0.4716 -0.4844
   27MOL   C123 6415   3.410   3.820   4.354 -0.3126 -0.1916  0.6449
   27MOL   O124 6416   3.367   3.946   4.405  0.0326  0.1215  0.1644
   27MOL   C125 6417   3.444   4.046   4.396  0.1897  0.2506 -0.2095
   27MOL   C126 6418   3.355   4.170   4.410 -0.5634 -0.3764 -0.0502
   27MOL   O127 6419   3.565   4.047   4.371  0.4602 -0.7120  0.0797
   27MOL   H128 6420   3.191   3.772   4.346  1.9701  0.2741  3.1152
   27MOL   H129 6421   3.288   3.646   4.304 -0.0354 -0.6405 -1.7827
   27MOL   H130 6422   3.484   3.848   4.278 -0.6963  0.1736  0.4034
   27MOL   H131 6423   3.280   4.174   4.331 -1.9796  0.3738  1.2946
   27MOL   H132 6424   3.402   4.268   4.402  1.7782 -1.4385  0.3276
   27MOL   H133 6425   3.298   4.163   4.503 -0.2557 -0.5673  0.1247
   27MOL   C134 6426   3.486   3.737   4.453  0.1809  0.0720 -0.4938
   27MOL   C135 6427   3.580   3.628   4.402 -0.2577 -0.4200  0.5835
   27MOL   O136 6428   3.706   3.690   4.377  0.2181 -0.2779  0.4342
   27MOL   C137 6429   3.743   3.709   4.248  0.1688  0.4671  0.4240
   27MOL   C138 6430   3.873   3.789   4.226  0.0393  0.0617 -0.1526
   27MOL   O139 6431   3.691   3.660   4.155 -0.0600 -0.3903  0.0963
   27MOL   H140 6432   3.540   3.803   4.521 -1.5382  1.4481 -0.4367
   27MOL   H141 6433   3.413   3.689   4.518  0.3163 -0.7710 -0.9536
   27MOL   H142 6434   3.525   3.588   4.316 -0.2496 -0.9954  0.8439
   27MOL   H143 6435   3.888   3.869   4.299 -0.7976  0.4771 -0.4295
   27MOL   H144 6436   3.868   3.836   4.128  0.0481  1.2489  0.4072
   27MOL   H145 6437   3.965   3.733   4.208 -0.0088  0.2756 -1.1014
   27MOL   C146 6438   3.630   3.527   4.510  0.1933  0.3598  0.3316
   27MOL   C147 6439   3.517   3.457   4.598 -0.2626  0.5684 -0.1983
   27MOL   O148 6440   3.422   3.396   4.509 -0.2535 -0.2858  0.4612
   27MOL   C149 6441   3.291   3.420   4.518 -0.2864 -1.2686  0.2662
   27MOL   C150 6442   3.216   3.346   4.416 -0.5496  0.1520  0.1083
   27MOL   O151 6443   3.240   3.500   4.594 -0.3398  0.6903 -0.2190
   27MOL   H152 6444   3.679   3.448   4.454 -0.6138 -1.8610  2.6699
   27MOL   H153 6445   3.709   3.573   4.570  0.5911 -0.8238  0.7145
   27MOL   H154 6446   3.476   3.536   4.662 -1.0217  1.0794 -1.3016
   27MOL   H155 6447   3.251   3.358   4.314 -0.8501 -0.0508 -0.0167
   27MOL   H156 6448   3.112   3.380   4.414  1.2029  6.2215  1.1942
   27MOL   H157 6449   3.213   3.241   4.443  1.7531  0.0156 -0.0600
   27MOL   C158 6450   3.576   3.354   4.693  0.9306 -0.3727 -0.0560
   27MOL   C159 6451   3.657   3.404   4.801 -0.2176  0.4183  0.1522
   27MOL   O160 6452   3.590   3.504   4.882  0.2993 -0.1320  0.3352
   27MOL   C161 6453   3.620   3.640   4.877  0.1560  0.1437  0.5015
   27MOL   C162 6454   3.519   3.717   4.952  0.4294 -0.6184 -0.2899
   27MOL   O163 6455   3.714   3.694   4.814  0.0461 -0.0693 -0.4056
   27MOL   H164 6456   3.485   3.308   4.732  0.5950  1.8070  1.8927
   27MOL   H165 6457   3.625   3.280   4.630  0.2960 -0.5886 -0.3044
   27MOL   H166 6458   3.739   3.448   4.745 -0.2819  1.6129  0.9683
   27MOL   H167 6459   3.544   3.822   4.964 -1.3392 -0.4944  2.8733
   27MOL   H168 6460   3.502   3.678   5.053 -1.3397 -1.2700 -0.8163
   27MOL   H169 6461   3.419   3.721   4.910  0.4146  0.6044 -0.1462
   27MOL   C170 6462   3.717   3.298   4.905  0.1953 -0.7937  0.2508
   27MOL   C171 6463   3.791   3.177   4.838 -1.2425 -0.1626  0.6087
   27MOL   O172 6464   3.887   3.132   4.926  0.0674 -0.0745  0.4284
   27MOL   C173 6465   4.019   3.110   4.898 -0.1328  0.5862 -0.0524
   27MOL   C174 6466   4.099   3.066   5.021 -0.7510  0.2887 -0.1893
   27MOL   O175 6467   4.067   3.099   4.790  0.3401 -0.6330 -0.1187
   27MOL   H176 6468   3.792   3.355   4.960 -1.2162  0.8872  0.5091
   27MOL   H177 6469   3.645   3.274   4.983  1.4541  0.2382  1.7560
   27MOL   H178 6470   3.848   3.202   4.748 -2.6256  0.2582 -0.1616
   27MOL   H179 6471   4.117   3.152   5.085 -0.7262 -0.4012  0.7302
   27MOL   H180 6472   4.196   3.023   4.998 -0.3425  0.6262  0.8927
   27MOL   H181 6473   4.032   3.001   5.078  1.5755 -0.4553  1.7549
   27MOL   C182 6474   3.695   3.058   4.810 -0.0963 -0.2648 -0.2151
   27MOL   C183 6475   3.744   2.934   4.728  0.0503  0.7817 -0.1621
   27MOL   O184 6476   3.646   2.830   4.727 -0.7793  0.2787  0.5720
   27MOL   C185 6477   3.686   2.704   4.728 -1.0260 -0.4450  0.3512
   27MOL   C186 6478   3.574   2.601   4.726 -0.2568 -0.1557 -0.2017
   27MOL   O187 6479   3.802   2.663   4.732  0.3085  0.1585 -0.1079
   27MOL   H188 6480   3.671   3.024   4.911  1.7291 -1.3327 -0.1167
   27MOL   H189 6481   3.601   3.099   4.774 -0.0988  1.0316  1.1803
   27MOL   H190 6482   3.834   2.897   4.778 -0.2758  1.9726  1.3461
   27MOL   H191 6483   3.589   2.529   4.645 -0.3776  0.5341 -0.8404
   27MOL   H192 6484   3.485   2.655   4.694 -0.3655 -0.2697 -0.0930
   27MOL   H193 6485   3.557   2.552   4.822  1.0135 -0.3115 -0.0363
   27MOL   C194 6486   3.774   2.973   4.575  0.3611  0.4473 -0.2371
   27MOL   C195 6487   3.860   2.870   4.491  0.2486  0.2990 -0.4450
   27MOL   O196 6488   3.815   2.870   4.352 -0.2863 -0.2439 -1.2505
   27MOL   C197 6489   3.706   2.799   4.320  0.7534 -0.8324  0.3185
   27MOL   C198 6490   3.698   2.791   4.162 -0.2517 -0.4785 -0.6029
   27MOL   O199 6491   3.613   2.758   4.392  0.0123 -0.2050  0.2056
   27MOL   H200 6492   3.677   2.977   4.525 -0.1538  1.4371  0.8086
   27MOL   H201 6493   3.823   3.070   4.574  0.2164  0.5532  1.4855
   27MOL   H202 6494   3.842   2.773   4.537 -0.5797  0.2102 -0.9573
   27MOL   H203 6495   3.794   2.818   4.118  0.4527  1.1463  1.7746
   27MOL   H204 6496   3.618   2.858   4.132 -0.2682  0.3804  1.2813
   27MOL   H205 6497   3.675   2.687   4.140 -3.2650  0.4112 -1.8588
   27MOL   C206 6498   4.011   2.903   4.495  0.4402 -0.2108 -0.0355
   27MOL   C207 6499   4.092   2.789   4.421  0.0925 -0.1585  0.2753
   27MOL   O208 6500   4.231   2.836   4.405  0.1873  0.8802 -0.0955
   27MOL   C209 6501   4.284   2.861   4.287  0.9636  0.3305 -0.4416
   27MOL   C210 6502   4.419   2.936   4.290 -0.4262 -0.1142 -0.4945
   27MOL   O211 6503   4.241   2.815   4.180 -0.3071  0.7465 -0.1069
   27MOL   H212 6504   4.024   3.001   4.450  1.1396 -0.6675 -0.8466
   27MOL   H213 6505   4.036   2.898   4.601 -0.2972 -0.8712  0.1151
   27MOL   H214 6506   4.052   2.774   4.321  1.5306  3.2258 -0.8826
   27MOL   H215 6507   4.408   3.043   4.311 -0.2950 -0.5834  2.1311
   27MOL   H216 6508   4.470   2.919   4.195  0.0506 -1.5025  0.0071
   27MOL   H217 6509   4.475   2.879   4.363 -0.9463 -0.7808 -0.6095
   27MOL   C218 6510   4.117   2.655   4.495 -0.0804 -0.4077  0.2410
   27MOL   C219 6511   4.019   2.549   4.444 -1.1249 -0.2577  0.3844
   27MOL   O220 6512   4.088   2.508   4.320  0.2450 -0.1370  0.0242
   27MOL   C221 6513   4.024   2.523   4.200  0.2991 -0.1933 -0.4107
   27MOL   C222 6514   4.098   2.451   4.093  0.3009  0.1734  0.1683
   27MOL   O223 6515   3.913   2.575   4.177 -0.1991 -0.1419  0.8573
   27MOL   H224 6516   4.219   2.618   4.491  0.4290  0.7748  1.8321
   27MOL   H225 6517   4.113   2.679   4.601  2.6871  1.6856 -0.0808
   27MOL   H226 6518   3.926   2.606   4.435 -1.2090 -0.1800  1.6325
   27MOL   H227 6519   4.153   2.513   4.021  0.4632  0.3784  0.4681
   27MOL   H228 6520   4.032   2.401   4.022  0.1289  0.9711 -0.2492
   27MOL   H229 6521   4.164   2.372   4.129  1.0986  1.5371  1.7534
   27MOL   C230 6522   4.003   2.433   4.544  0.2516 -0.4403 -0.2628
   27MOL   C231 6523   3.888   2.341   4.506 -1.0345 -0.4174  0.5654
   27MOL   O232 6524   3.902   2.228   4.581  0.8218 -0.0927  0.2780
   27MOL   C233 6525   3.830   2.124   4.559  0.0608  0.1073  0.1083
   27MOL   C234 6526   3.875   2.009   4.661 -0.5500 -0.3651 -0.0590
   27MOL   O235 6527   3.743   2.109   4.472  0.0543 -0.3227  0.1206
   27MOL   H236 6528   4.095   2.374   4.554  0.1792 -0.1847  2.1383
   27MOL   H237 6529   4.002   2.475   4.644 -0.6454 -1.0268 -0.0203
   27MOL   H238 6530   3.895   2.306   4.403  0.7186 -1.0010  0.8717
   27MOL   H239 6531   3.984   2.001   4.660 -0.5818 -0.8445  0.1275
   27MOL   H240 6532   3.840   1.908   4.640 -1.8041 -0.0794  0.6454
   27MOL   H241 6533   3.839   2.031   4.761 -2.6747 -1.5581 -0.5204
   27MOL   H242 6534   3.791   2.391   4.510 -0.5246  0.7530 -1.0927
   28MOL     C1 6535   7.980   5.625   7.458  0.0410 -0.9188  0.6436
   28MOL     C2 6536   7.939   5.630   7.600 -0.6837  0.1667  0.2252
   28MOL     O3 6537   8.005   5.508   7.652  0.2056 -0.4662 -0.3996
   28MOL     C4 6538   7.977   5.469   7.776 -0.1700 -0.6737 -0.3567
   28MOL     C5 6539   0.044   5.351   7.819  0.1596  0.5832  0.1752
   28MOL     O6 6540   7.884   5.503   7.853  0.0434 -0.4952  0.2446
   28MOL     H7 6541   0.064   5.643   7.435  0.3207 -1.8366  1.2050
   28MOL     H8 6542   7.917   5.696   7.404 -0.3805 -0.6399  1.4918
   28MOL     H9 6543   7.833   5.610   7.612 -0.4524 -0.1599  1.9312
   28MOL    H10 6544   0.072   5.280   7.741 -2.3034 -2.5022  1.9956
   28MOL    H11 6545   0.014   5.291   7.904  1.3204 -0.1448  0.0767
   28MOL    H12 6546   0.135   5.392   7.863 -0.8437  2.5244  0.4974
   28MOL    H13 6547   7.961   5.529   7.411 -0.7052  0.8428 -2.8096
   28MOL    C14 6548   7.977   5.756   7.665 -0.7345  0.2649 -0.3555
   28MOL    C15 6549   7.903   5.885   7.620 -0.3765  0.1482 -0.5583
   28MOL    O16 6550   7.775   5.864   7.682 -0.5519 -0.4466  0.1536
   28MOL    C17 6551   7.661   5.831   7.604 -0.4039  0.2191 -0.1126
   28MOL    C18 6552   7.546   5.797   7.703 -0.0854 -0.4351  0.4199
   28MOL    O19 6553   7.647   5.819   7.480  0.4892 -0.5209  0.1817
   28MOL    H20 6554   7.962   5.759   7.773 -0.6742  0.2975 -0.3477
   28MOL    H21 6555   0.063   5.774   7.654 -0.9803  1.7022 -0.5354
   28MOL    H22 6556   7.904   5.900   7.512  0.0766 -2.9124 -1.0284
   28MOL    H23 6557   7.444   5.827   7.676 -0.6791 -1.1388  1.8213
   28MOL    H24 6558   7.565   5.846   7.799 -2.1200  1.3416 -0.0212
   28MOL    H25 6559   7.546   5.689   7.718 -1.6531 -0.8410 -2.2135
   28MOL    C26 6560   7.953   6.012   7.683  0.1499 -0.3119 -0.0815
   28MOL    C27 6561   7.903   6.132   7.615  0.9407 -0.1722 -0.2146
   28MOL    O28 6562   7.922   6.239   7.706 -0.3152 -0.2175  0.1092
   28MOL    C29 6563   7.822   6.274   7.792 -0.4614 -0.3798 -0.1753
   28MOL    C30 6564   7.877   6.377   7.894  0.0674 -0.1671 -0.1613
   28MOL    O31 6565   7.704   6.232   7.794  0.0308  0.3177 -0.3127
   28MOL    H32 6566   7.941   6.008   7.791  1.4406 -1.8376  0.0409
   28MOL    H33 6567   0.040   6.016   7.675  0.4917 -2.8632  2.5655
   28MOL    H34 6568   7.796   6.127   7.595  0.1917  1.8918  2.9391
   28MOL    H35 6569   7.845   6.352   7.995 -2.0743  2.5321 -0.1139
   28MOL    H36 6570   7.835   6.475   7.870  2.0033  0.4230 -1.2679
   28MOL    H37 6571   7.984   6.391   7.882 -0.1485  0.3682 -1.5661
   28MOL    C38 6572   7.976   6.164   7.478 -0.3338  0.1582  0.3831
   28MOL    C39 6573   7.955   6.302   7.419 -0.6058 -0.5279  0.9203
   28MOL    O40 6574   8.008   6.299   7.285 -0.4368  0.1500  0.1196
   28MOL    C41 6575   0.122   6.309   7.264 -0.8002 -0.5252  0.2415
   28MOL    C42 6576   0.168   6.272   7.125  0.0382 -0.8926 -0.4595
   28MOL    O43 6577   0.208   6.331   7.352 -0.1797 -0.0510  0.4450
   28MOL    H44 6578   0.059   6.132   7.484 -0.6496 -0.8786  0.4754
   28MOL    H45 6579   7.951   6.094   7.398  0.6990  3.6105 -3.1337
   28MOL    H46 6580   8.021   6.373   7.471  0.8312  1.2691 -3.1734
   28MOL    H47 6581   0.251   6.201   7.126  1.5134  0.8129 -0.1165
   28MOL    H48 6582   0.209   6.360   7.076  2.7249 -0.8550  1.8022
   28MOL    H49 6583   0.077   6.236   7.076  0.2337  1.5324 -2.7086
   28MOL    C50 6584   7.807   6.347   7.402  0.2337 -0.0166  0.2583
   28MOL    C51 6585   7.787   6.484   7.314 -0.3051  0.0277 -0.0188
   28MOL    O52 6586   7.652   6.519   7.312  0.1987 -0.2760  0.2011
   28MOL    C53 6587   7.596   6.584   7.206 -0.4235 -0.4073  0.1766
   28MOL    C54 6588   7.452   6.623   7.234  0.2031 -0.8192  0.3040
   28MOL    O55 6589   7.652   6.604   7.099 -0.3161  0.1196  0.5890
   28MOL    H56 6590   7.741   6.277   7.351 -0.0305  0.7468 -0.4559
   28MOL    H57 6591   7.761   6.376   7.496  0.2001  1.6276 -0.2527
   28MOL    H58 6592   7.825   6.467   7.214 -2.7416  0.7207 -1.0973
   28MOL    H59 6593   7.413   6.543   7.297  0.1113 -1.7651 -0.9238
   28MOL    H60 6594   7.395   6.630   7.142  1.6160 -0.5890 -0.5771
   28MOL    H61 6595   7.452   6.721   7.282  1.2963  0.3232 -1.9115
   28MOL    C62 6596   7.866   6.605   7.376  0.5058 -0.1431  0.0079
   28MOL    C63 6597   7.901   6.713   7.272  0.0448  0.2427 -0.3443
   28MOL    O64 6598   7.948   6.829   7.344 -0.4041 -0.1991  0.7441
   28MOL    C65 6599   7.899   6.946   7.327  0.2173 -0.3082 -0.2336
   28MOL    C66 6600   7.988   7.044   7.393  0.3705  0.1414  0.1881
   28MOL    O67 6601   7.800   6.977   7.271  0.5038 -0.0018 -0.0762
   28MOL    H68 6602   7.808   6.653   7.455 -0.0938  0.0003 -0.5131
   28MOL    H69 6603   7.958   6.575   7.428  0.1707 -0.9012  0.1728
   28MOL    H70 6604   7.819   6.738   7.205  0.1134 -1.0909 -0.9328
   28MOL    H71 6605   8.002   7.024   7.499 -0.2960  0.6701  0.3796
   28MOL    H72 6606   7.962   7.148   7.373  2.8075  0.2429 -2.8702
   28MOL    H73 6607   0.068   7.031   7.355  0.3190 -0.4641  0.2570
   28MOL    C74 6608   8.016   6.652   7.188  0.4842  0.0204  0.1694
   28MOL    C75 6609   0.070   6.747   7.096 -0.2111  0.5013 -0.0389
   28MOL    O76 6610   0.196   6.690   7.060 -0.0778  0.7108 -0.3652
   28MOL    C77 6611   0.306   6.710   7.130 -0.2068  0.1235  0.0218
   28MOL    C78 6612   0.426   6.654   7.044  1.2708  0.0986 -1.3666
   28MOL    O79 6613   0.318   6.771   7.236 -0.0845  0.3921 -0.4480
   28MOL    H80 6614   0.064   6.611   7.263 -3.2754 -0.4574  3.5673
   28MOL    H81 6615   7.974   6.570   7.130  1.3361  1.0982 -2.0038
   28MOL    H82 6616   0.092   6.835   7.157  2.8230 -0.2634  0.0725
   28MOL    H83 6617   0.507   6.723   7.022  1.4304 -0.1947 -1.6877
   28MOL    H84 6618   0.394   6.594   6.959 -0.3477  0.1216 -0.7961
   28MOL    H85 6619   0.458   6.587   7.124 -1.6529 -0.5048 -0.6285
   28MOL    C86 6620   8.019   6.785   6.964 -0.6194  0.1054  0.1707
   28MOL    C87 6621   0.052   6.918   6.891  0.9585  0.7476 -0.8758
   28MOL    O88 6622   0.179   6.885   6.843  0.1942 -0.4638 -0.2202
   28MOL    C89 6623   0.269   6.982   6.828 -0.1637  0.6134 -0.5602
   28MOL    C90 6624   0.402   6.918   6.805 -0.4663  0.3827  0.0903
   28MOL    O91 6625   0.254   7.106   6.826 -0.3682 -0.0234 -0.8103
   28MOL    H92 6626   0.011   6.709   6.888 -1.5437  1.9301 -1.8723
   28MOL    H93 6627   7.914   6.789   6.992 -0.3173  0.4070  1.2979
   28MOL    H94 6628   0.057   6.998   6.965 -1.2162 -0.0797  0.2192
   28MOL    H95 6629   0.402   6.810   6.793 -1.6037  0.1841  1.6893
   28MOL    H96 6630   0.459   6.946   6.894  1.0284 -1.8165 -0.1442
   28MOL    H97 6631   0.435   6.964   6.712 -1.7874 -0.4549 -0.8142
   28MOL    C98 6632   7.978   6.957   6.782  0.4861 -0.2587 -0.0177
   28MOL    C99 6633   7.860   7.051   6.829  0.0615 -0.2872 -0.1841
   28MOL   O100 6634   7.813   7.101   6.700 -0.6888  0.0582 -0.2011
   28MOL   C101 6635   7.805   7.222   6.675 -0.0572 -0.3641 -0.3088
   28MOL   C102 6636   7.708   7.254   6.566  0.8230  0.0934  0.4883
   28MOL   O103 6637   7.833   7.311   6.758 -0.0900  0.8170  0.0165
   28MOL   H104 6638   0.012   7.023   6.715  1.5649 -1.3435 -0.2145
   28MOL   H105 6639   7.957   6.870   6.720  2.3660 -1.1374  0.5320
   28MOL   H106 6640   7.906   7.129   6.890 -1.1273  0.6239 -0.4483
   28MOL   H107 6641   7.674   7.357   6.574 -1.3670 -0.4278 -1.2796
   28MOL   H108 6642   7.625   7.184   6.559 -0.9348  1.9714  1.9745
   28MOL   H109 6643   7.765   7.255   6.473  2.7765  1.7003  1.6599
   28MOL   C110 6644   7.738   6.976   6.890  0.1506  0.6876  0.0038
   28MOL   C111 6645   7.616   7.068   6.905 -0.0572  0.6346 -0.3683
   28MOL   O112 6646   7.512   6.983   6.948 -0.0008  0.5151  0.1509
   28MOL   C113 6647   7.442   6.915   6.859  0.7558 -0.1117 -0.6761
   28MOL   C114 6648   7.335   6.836   6.933  0.6811  0.5299  0.2293
   28MOL   O115 6649   7.460   6.915   6.740 -0.3762  1.1772 -0.5940
   28MOL   H116 6650   7.718   6.889   6.827 -0.4097 -0.5072  1.7971
   28MOL   H117 6651   7.770   6.943   6.989 -0.0070  0.6751  0.0520
   28MOL   H118 6652   7.599   7.115   6.808 -1.8084  2.5336  0.8075
   28MOL   H119 6653   7.303   6.901   7.014 -0.7712 -0.3590  0.3936
   28MOL   H120 6654   7.381   6.753   6.986  2.5018  0.4641 -1.3903
   28MOL   H121 6655   7.255   6.813   6.863 -1.0372  1.1933  1.9373
   28MOL   C122 6656   7.635   7.178   7.011 -0.1483  0.1322 -0.1574
   28MOL   C123 6657   7.530   7.296   7.017  0.5563 -0.2559  0.0138
   28MOL   O124 6658   7.417   7.257   7.096  0.4586 -0.1776 -0.3189
   28MOL   C125 6659   7.293   7.230   7.028 -0.3705  0.4215  0.1642
   28MOL   C126 6660   7.177   7.194   7.117  0.5153 -0.7509 -0.2744
   28MOL   O127 6661   7.283   7.226   6.901 -0.1925  0.0758 -0.4314
   28MOL   H128 6662   7.649   7.123   7.104 -1.8118 -0.1639 -0.0681
   28MOL   H129 6663   7.729   7.227   6.987  0.6163 -0.5559  1.3476
   28MOL   H130 6664   7.488   7.314   6.918  0.4678 -0.2032  0.0608
   28MOL   H131 6665   7.203   7.198   7.222  1.6050 -0.9264 -0.5273
   28MOL   H132 6666   7.133   7.095   7.101 -0.5513 -0.2365 -0.5314
   28MOL   H133 6667   7.090   7.258   7.102  0.7488 -0.4685 -0.4323
   28MOL   C134 6668   7.581   7.419   7.087  0.3531 -0.2364  0.1994
   28MOL   C135 6669   7.480   7.533   7.064 -0.2486  0.5237  0.4145
   28MOL   O136 6670   7.488   7.603   7.187  0.0814 -0.6946  0.0679
   28MOL   C137 6671   7.392   7.586   7.282  0.0922  0.1996  0.5397
   28MOL   C138 6672   7.396   7.685   7.391  0.0687  0.5085  0.1202
   28MOL   O139 6673   7.305   7.495   7.282  0.3361 -0.4919 -0.0919
   28MOL   H140 6674   7.600   7.394   7.191  1.3402 -1.5330 -0.2713
   28MOL   H141 6675   7.676   7.450   7.042  0.7006  1.2287  1.9100
   28MOL   H142 6676   7.384   7.488   7.039 -0.0133 -0.7702  1.7833
   28MOL   H143 6677   7.314   7.667   7.461 -0.4465 -3.6171 -1.3482
   28MOL   H144 6678   7.385   7.782   7.342  0.0233 -0.1325 -1.1635
   28MOL   H145 6679   7.491   7.682   7.443  1.0243  0.6780 -1.5697
   28MOL   C146 6680   7.516   7.632   6.951 -0.3001 -0.7088 -1.2954
   28MOL   C147 6681   7.492   7.603   6.803 -0.1564  0.7861  0.1438
   28MOL   O148 6682   7.366   7.550   6.784 -0.5519 -0.3184 -0.0289
   28MOL   C149 6683   7.340   7.467   6.677  0.5601  0.6945 -0.4653
   28MOL   C150 6684   7.195   7.430   6.664  0.7799 -0.1342 -0.7008
   28MOL   O151 6685   7.430   7.427   6.599  0.1642 -0.7545 -0.3052
   28MOL   H152 6686   7.466   7.727   6.970 -1.6975 -1.7311  0.3281
   28MOL   H153 6687   7.622   7.650   6.971 -0.4651 -1.6870  0.5701
   28MOL   H154 6688   7.568   7.530   6.777 -0.4729  0.4235  0.2445
   28MOL   H155 6689   7.184   7.322   6.650 -3.3464  0.0616  0.4874
   28MOL   H156 6690   7.145   7.493   6.591 -0.3032 -1.0859 -0.7856
   28MOL   H157 6691   7.152   7.442   6.764  2.8565  0.2603  0.1891
   28MOL   C158 6692   7.505   7.728   6.709  0.1766 -0.0644 -0.0858
   28MOL   C159 6693   7.657   7.782   6.678 -0.1073 -0.1366 -0.7895
   28MOL   O160 6694   7.737   7.692   6.596 -0.1270  0.7613 -0.5498
   28MOL   C161 6695   7.873   7.713   6.595  0.3840  0.5350  0.3569
   28MOL   C162 6696   7.952   7.614   6.505  0.1302 -0.6406 -0.1125
   28MOL   O163 6697   7.940   7.795   6.659  0.1135  0.0219 -0.3485
   28MOL   H164 6698   7.452   7.713   6.615  0.8831 -2.6825 -0.1082
   28MOL   H165 6699   7.449   7.808   6.756 -0.4800 -0.4083 -0.2857
   28MOL   H166 6700   7.706   7.792   6.775  1.3888 -1.8700 -1.3243
   28MOL   H167 6701   8.005   7.539   6.563  1.3755 -1.1384 -1.8506
   28MOL   H168 6702   0.008   7.676   6.461 -1.0151  0.5330 -0.5134
   28MOL   H169 6703   7.880   7.563   6.441 -2.0421  1.9969  0.1326
   28MOL   C170 6704   7.649   7.915   6.599 -1.3015  1.3301 -0.2538
   28MOL   C171 6705   7.585   0.006   6.680 -0.5264  0.5101  0.0698
   28MOL   O172 6706   7.682   0.065   6.757 -0.7277  0.3567 -0.4037
   28MOL   C173 6707   7.703   0.041   6.888  0.1382  0.0059  0.6504
   28MOL   C174 6708   7.791   0.147   6.943 -0.1460 -0.3360  0.2454
   28MOL   O175 6709   7.659   7.969   6.952  0.0617 -0.3241 -0.1025
   28MOL   H176 6710   7.746   7.949   6.563  0.6153 -0.1587  3.3057
   28MOL   H177 6711   7.587   7.899   6.511 -0.0910 -1.0383 -0.7107
   28MOL   H178 6712   7.493   8.001   6.732 -0.6820 -0.9482 -0.9440
   28MOL   H179 6713   7.757   0.177   7.042  3.1806  1.1745  1.0201
   28MOL   H180 6714   7.776   0.234   6.880  0.9469  0.7410  1.4342
   28MOL   H181 6715   7.896   0.118   6.942 -0.3130 -1.0059  1.1503
   28MOL   C182 6716   7.538   0.126   6.587  0.0318 -0.1869  0.0902
   28MOL   C183 6717   7.453   0.230   6.660  0.2996 -0.3104 -0.3450
   28MOL   O184 6718   7.484   0.361   6.612 -0.3928  0.4994  0.0020
   28MOL   C185 6719   7.537   0.458   6.694 -0.3439 -0.2984 -0.3077
   28MOL   C186 6720   7.549   0.595   6.625  0.4484  0.0670 -0.1667
   28MOL   O187 6721   7.578   0.438   6.806  0.1545 -0.5145 -0.8425
   28MOL   H188 6722   7.633   0.165   6.551 -0.0708  0.3926  0.4412
   28MOL   H189 6723   7.486   0.079   6.504  1.5968  0.0375 -1.0494
   28MOL   H190 6724   7.488   0.230   6.763  1.6557  0.2657 -0.7942
   28MOL   H191 6725   7.619   0.594   6.542  0.9120  1.0202  0.2041
   28MOL   H192 6726   7.578   0.673   6.695  2.5207 -2.3781  1.7993
   28MOL   H193 6727   7.450   0.619   6.588  0.3453 -0.5876 -0.3299
   28MOL   C194 6728   7.295   0.209   6.660 -0.4227  0.2918  0.2256
   28MOL   C195 6729   7.207   0.307   6.728 -0.6006 -0.4084 -0.2670
   28MOL   O196 6730   7.066   0.279   6.699 -0.2738 -0.4341  0.2100
   28MOL   C197 6731   7.010   0.332   6.588 -0.2497  0.4250  0.4136
   28MOL   C198 6732   6.882   0.254   6.560 -0.2383  0.0492  0.2882
   28MOL   O199 6733   7.051   0.426   6.522 -0.0327  0.2325  0.8055
   28MOL   H200 6734   7.268   0.193   6.555 -0.3885  0.8018  0.1373
   28MOL   H201 6735   7.283   0.112   6.709  0.7670  0.0808  0.1225
   28MOL   H202 6736   7.246   0.400   6.686  0.6433 -1.6070 -1.8404
   28MOL   H203 6737   6.897   0.203   6.465  1.1492  0.8490  0.0640
   28MOL   H204 6738   6.792   0.314   6.547 -0.8683 -0.9840 -0.2119
   28MOL   H205 6739   6.862   0.180   6.638 -3.5327  1.3810  0.7860
   28MOL   C206 6740   7.216   0.305   6.885  0.0645  0.3286  0.3574
   28MOL   C207 6741   7.212   0.443   6.945  0.0502 -0.5115 -0.5372
   28MOL   O208 6742   7.087   0.504   6.915 -0.1300 -0.4408 -0.2850
   28MOL   C209 6743   7.088   0.621   6.842 -0.8650 -0.5682 -0.6830
   28MOL   C210 6744   6.946   0.676   6.812 -0.3358  0.0789  0.1220
   28MOL   O211 6745   7.190   0.677   6.803  0.1409 -0.1580 -0.1662
   28MOL   H212 6746   7.144   0.234   6.926  1.2380 -0.1613  1.6229
   28MOL   H213 6747   7.304   0.257   6.927  0.8067  1.6303  0.3159
   28MOL   H214 6748   7.301   0.495   6.910  0.0825 -0.6131 -0.6055
   28MOL   H215 6749   6.940   0.686   6.704 -0.8476 -1.9402 -0.0471
   28MOL   H216 6750   6.924   0.773   6.857 -2.4350  0.0008 -0.6834
   28MOL   H217 6751   6.867   0.605   6.837 -1.6851  1.7164  0.5971
   28MOL   C218 6752   7.232   0.437   7.098 -0.2180 -0.0797  0.1576
   28MOL   C219 6753   7.260   0.569   7.160 -0.0252 -0.3074  0.4545
   28MOL   O220 6754   7.303   0.541   7.296 -0.2239 -0.0945 -0.4226
   28MOL   C221 6755   7.234   0.596   7.396 -0.5094 -0.6151  0.2143
   28MOL   C222 6756   7.285   0.556   7.533 -0.1850  0.0483 -0.4178
   28MOL   O223 6757   7.141   0.678   7.387 -0.1474 -0.7634  0.8679
   28MOL   H224 6758   7.143   0.401   7.150 -1.5170 -0.6889 -2.4481
   28MOL   H225 6759   7.312   0.371   7.130  1.3521  0.7151 -2.0398
   28MOL   H226 6760   7.165   0.623   7.150  0.0033 -0.3625 -0.1798
   28MOL   H227 6761   7.233   0.469   7.572 -2.2392  0.0901 -2.9350
   28MOL   H228 6762   7.272   0.644   7.595 -0.3168  0.6020 -1.2211
   28MOL   H229 6763   7.393   0.539   7.524 -0.3177  0.2909 -2.9748
   28MOL   C230 6764   7.382   0.652   7.109  0.0690  0.4653 -0.5651
   28MOL   C231 6765   7.376   0.792   7.167 -0.0274  0.3732  0.2430
   28MOL   O232 6766   7.260   0.863   7.119 -0.3714 -0.2299 -0.0965
   28MOL   C233 6767   7.276   0.922   7.003 -0.0877 -0.1183 -0.0942
   28MOL   C234 6768   7.140   0.988   6.961  0.5373  0.4823 -0.0962
   28MOL   O235 6769   7.381   0.927   6.934  0.1485  0.0945 -0.1316
   28MOL   H236 6770   7.482   0.618   7.136  0.1078  0.5159 -0.6407
   28MOL   H237 6771   7.386   0.651   7.000  0.4204  0.2497 -0.5482
   28MOL   H238 6772   7.470   0.829   7.127  0.2592 -1.7556 -1.1654
   28MOL   H239 6773   7.085   1.025   7.047  1.6823 -0.7495  1.1992
   28MOL   H240 6774   7.077   0.909   6.921  1.1052  0.4136 -0.8655
   28MOL   H241 6775   7.150   1.058   6.879  0.0606 -0.3942 -0.9126
   28MOL   H242 6776   7.376   0.787   7.276 -2.8037 -1.1157  0.2291
   29MOL     C1 6777   6.104   6.333   1.846  0.1288  0.0879  0.2656
   29MOL     C2 6778   6.172   6.451   1.772  0.3335  0.1747  0.0158
   29MOL     O3 6779   6.118   6.441   1.640  0.4035  0.1845 -0.0449
   29MOL     C4 6780   6.199   6.431   1.536  0.4305 -0.3345 -0.3353
   29MOL     C5 6781   6.134   6.412   1.402  0.0310 -0.6162 -0.2381
   29MOL     O6 6782   6.323   6.434   1.550  0.1703  0.2916 -0.1597
   29MOL     H7 6783   6.136   6.330   1.950  0.2496 -0.8494  0.2095
   29MOL     H8 6784   6.121   6.230   1.814  0.2142 -0.4590  2.0154
   29MOL     H9 6785   6.281   6.447   1.779  0.2650  0.9200  1.6119
   29MOL    H10 6786   6.205   6.367   1.332  0.7231 -0.1539  0.1637
   29MOL    H11 6787   6.106   6.511   1.366  0.4868 -0.6876 -0.7982
   29MOL    H12 6788   6.041   6.357   1.414 -0.4346  0.2457  0.1751
   29MOL    H13 6789   5.997   6.349   1.855  0.2325 -0.0727  1.9893
   29MOL    C14 6790   6.129   6.587   1.832  0.8284 -0.2381 -0.5979
   29MOL    C15 6791   6.166   6.716   1.758 -0.1511 -0.3244  0.2646
   29MOL    O16 6792   6.074   6.816   1.800  0.7620  0.2302 -0.2378
   29MOL    C17 6793   5.981   6.867   1.709  0.1615 -0.0746  0.1346
   29MOL    C18 6794   5.888   6.973   1.746  1.6825  0.5035  1.2569
   29MOL    O19 6795   5.978   6.836   1.590  0.3920 -0.3706  0.0629
   29MOL    H20 6796   6.020   6.581   1.834  0.5268  3.7359 -0.8321
   29MOL    H21 6797   6.162   6.590   1.935 -3.2211 -3.5959  0.9704
   29MOL    H22 6798   6.152   6.691   1.653 -0.5003 -1.9821  0.6933
   29MOL    H23 6799   5.940   7.059   1.786  2.1097  1.1841 -0.7388
   29MOL    H24 6800   5.808   6.938   1.812  0.4822 -0.7056 -0.7617
   29MOL    H25 6801   5.829   6.993   1.656  2.3958 -0.2080  0.6195
   29MOL    C26 6802   6.312   6.750   1.794 -0.4393 -0.3319  0.6479
   29MOL    C27 6803   6.382   6.838   1.686 -0.5843 -0.4714  0.2846
   29MOL    O28 6804   6.347   6.977   1.687 -0.4992 -0.9069  0.2084
   29MOL    C29 6805   6.365   7.055   1.582 -0.2245 -0.3428  0.2184
   29MOL    C30 6806   6.316   7.202   1.611 -0.8596  0.2700 -0.2446
   29MOL    O31 6807   6.408   7.006   1.477  0.0248  0.2970  0.3749
   29MOL    H32 6808   6.327   6.773   1.900 -0.8954 -1.4996  0.9746
   29MOL    H33 6809   6.363   6.654   1.785  1.4711  0.6928  0.2289
   29MOL    H34 6810   6.355   6.802   1.587  0.1810 -0.5204  0.0868
   29MOL    H35 6811   6.399   7.272   1.606 -0.4069 -0.2023  0.5856
   29MOL    H36 6812   6.268   7.203   1.710 -1.2777 -0.6779 -0.4336
   29MOL    H37 6813   6.242   7.238   1.540  0.0362  0.2596 -1.1948
   29MOL    C38 6814   6.541   6.837   1.691 -0.2783  0.1112  0.3845
   29MOL    C39 6815   6.617   6.700   1.686 -0.6752 -0.1856 -0.3107
   29MOL    O40 6816   6.609   6.646   1.552 -0.0756 -0.3979 -0.4689
   29MOL    C41 6817   6.634   6.515   1.520 -0.2065 -0.5176 -0.3820
   29MOL    C42 6818   6.625   6.492   1.369  0.3245  0.0335 -0.2468
   29MOL    O43 6819   6.640   6.427   1.603 -0.2018  0.1132  0.0315
   29MOL    H44 6820   6.583   6.908   1.620  0.8841  0.1643  1.1172
   29MOL    H45 6821   6.562   6.888   1.785  1.4801  0.3071 -0.1058
   29MOL    H46 6822   6.575   6.628   1.757 -0.3284 -0.4811 -0.4097
   29MOL    H47 6823   6.656   6.575   1.305 -0.9548  0.2396 -0.6152
   29MOL    H48 6824   6.520   6.471   1.347 -0.1034  1.5123  0.3248
   29MOL    H49 6825   6.681   6.403   1.341  0.9385  1.0373 -2.3234
   29MOL    C50 6826   6.763   6.722   1.738  0.5426 -0.3822  0.1460
   29MOL    C51 6827   6.850   6.820   1.661 -0.6507 -0.0203 -0.1244
   29MOL    O52 6828   6.814   6.954   1.684  0.1675 -0.1079 -0.2261
   29MOL    C53 6829   6.822   7.039   1.579 -0.9000  0.1800  0.3262
   29MOL    C54 6830   6.749   7.170   1.602 -0.1638 -0.1329  0.6923
   29MOL    O55 6831   6.887   7.019   1.474 -1.4346 -0.1162 -0.4594
   29MOL    H56 6832   6.744   6.750   1.842 -0.6811  0.1928 -0.2235
   29MOL    H57 6833   6.813   6.625   1.728 -0.0567 -0.6542 -0.2188
   29MOL    H58 6834   6.847   6.795   1.555 -1.4951  0.2622 -0.1734
   29MOL    H59 6835   6.722   7.190   1.706  0.9355 -0.2864  1.0183
   29MOL    H60 6836   6.651   7.165   1.556  0.4343  1.3754 -0.8088
   29MOL    H61 6837   6.803   7.258   1.567  0.8671 -0.7242  0.7689
   29MOL    C62 6838   6.995   6.803   1.716 -0.5073  0.0340 -0.2654
   29MOL    C63 6839   7.089   6.698   1.658  1.0400  0.9837 -0.2420
   29MOL    O64 6840   7.049   6.566   1.683 -0.7263  0.3254 -0.1230
   29MOL    C65 6841   7.110   6.490   1.775 -0.7726  0.4843  0.7015
   29MOL    C66 6842   7.060   6.346   1.770  0.3495 -0.8992 -0.2083
   29MOL    O67 6843   7.197   6.523   1.853  0.0478  0.2359  0.4162
   29MOL    H68 6844   7.049   6.897   1.706 -0.7437  0.2004  0.0216
   29MOL    H69 6845   7.002   6.792   1.824  1.5885 -1.1460 -0.5053
   29MOL    H70 6846   7.190   6.703   1.699  0.6286 -0.0804  0.9048
   29MOL    H71 6847   7.101   6.280   1.693  4.3850  1.5736 -0.3197
   29MOL    H72 6848   6.954   6.338   1.747  0.4911 -1.6252 -0.6554
   29MOL    H73 6849   7.083   6.296   1.864  0.1274  0.0501  0.3572
   29MOL    C74 6850   7.091   6.695   1.505 -0.3511  0.4167  0.0502
   29MOL    C75 6851   7.180   6.800   1.428 -0.2816  0.0390  0.1540
   29MOL    O76 6852   7.316   6.759   1.436 -0.8229 -0.3096 -0.0166
   29MOL    C77 6853   7.389   6.800   1.547  0.0927 -0.2414 -0.1237
   29MOL    C78 6854   7.510   6.710   1.564 -0.2649 -0.4764  0.0899
   29MOL    O79 6855   7.354   6.873   1.633  0.6664 -0.3609 -0.6683
   29MOL    H80 6856   7.134   6.601   1.470  1.1757  1.5796 -1.2841
   29MOL    H81 6857   6.989   6.696   1.469 -0.4283 -1.1500  0.1682
   29MOL    H82 6858   7.157   6.898   1.470  1.9107  0.5874  0.1330
   29MOL    H83 6859   7.596   6.767   1.601  1.9575 -4.8175  1.9715
   29MOL    H84 6860   7.558   6.667   1.476  3.2375 -0.7382  2.0171
   29MOL    H85 6861   7.488   6.639   1.643  0.7501  1.0112  1.7360
   29MOL    C86 6862   7.143   6.812   1.284 -0.6239  0.6726  0.0616
   29MOL    C87 6863   7.185   6.941   1.206  0.8002  0.2000  0.0773
   29MOL    O88 6864   7.090   7.050   1.219 -0.2455 -0.2616  0.3749
   29MOL    C89 6865   6.984   7.064   1.146 -0.4214 -0.0021  0.1130
   29MOL    C90 6866   6.890   7.166   1.201 -0.1625  0.7287  0.2021
   29MOL    O91 6867   6.956   6.993   1.049 -0.0473  0.1053  0.6071
   29MOL    H92 6868   7.190   6.726   1.237 -2.6267  0.3251 -1.3751
   29MOL    H93 6869   7.035   6.804   1.269 -0.5254 -1.1836  0.2382
   29MOL    H94 6870   7.185   6.927   1.098  0.4645 -1.3584  0.2675
   29MOL    H95 6871   6.874   7.250   1.133  1.5853 -0.6313 -1.9437
   29MOL    H96 6872   6.925   7.201   1.298 -2.4955  2.2377  0.5612
   29MOL    H97 6873   6.801   7.105   1.215  0.1908  0.7932  3.0468
   29MOL    C98 6874   7.327   6.993   1.243  0.6789  0.0085 -0.0675
   29MOL    C99 6875   7.367   7.118   1.163 -0.0741 -0.6243 -0.4588
   29MOL   O100 6876   7.330   7.247   1.228  0.5051  0.2475  0.2107
   29MOL   C101 6877   7.240   7.329   1.173  0.4941  0.0862  0.0225
   29MOL   C102 6878   7.208   7.452   1.258  0.4360 -0.1290 -0.4758
   29MOL   O103 6879   7.193   7.319   1.061 -0.5251  0.9325  0.5873
   29MOL   H104 6880   7.323   7.020   1.349 -0.6895 -1.6229  0.3284
   29MOL   H105 6881   7.402   6.916   1.226  1.9401  0.9714  0.9945
   29MOL   H106 6882   7.305   7.096   1.076 -2.5401  2.2391  0.4704
   29MOL   H107 6883   7.100   7.469   1.258  0.1108 -2.0912 -0.3537
   29MOL   H108 6884   7.250   7.545   1.219 -0.4102  1.2182  1.7445
   29MOL   H109 6885   7.249   7.444   1.358  2.1520  2.3359 -0.9265
   29MOL   C110 6886   7.516   7.141   1.124  0.0553  0.5313  0.0493
   29MOL   C111 6887   7.595   7.031   1.055 -0.2893 -0.3661  0.0348
   29MOL   O112 6888   7.544   7.022   0.920 -0.0297  0.1289  0.5448
   29MOL   C113 6889   7.538   6.904   0.860 -0.0422  0.2246 -0.3315
   29MOL   C114 6890   7.513   6.913   0.713 -0.2558  0.3432 -0.3837
   29MOL   O115 6891   7.555   6.795   0.913 -0.1023  0.1635 -0.8214
   29MOL   H116 6892   7.520   7.235   1.070  2.4977 -0.4018 -1.5052
   29MOL   H117 6893   7.571   7.165   1.215  1.4057 -0.9146 -0.3511
   29MOL   H118 6894   7.575   6.937   1.107 -0.9429  0.4604  1.3253
   29MOL   H119 6895   7.585   6.981   0.667  0.1046 -0.6268 -1.2690
   29MOL   H120 6896   7.411   6.947   0.696  0.1975  0.7484 -2.4499
   29MOL   H121 6897   7.523   6.814   0.670  1.0066  0.6467 -0.8165
   29MOL   C122 6898   7.751   7.048   1.039  0.0339  0.4321  0.5123
   29MOL   C123 6899   7.835   6.983   1.156 -0.2599  0.4313 -0.2413
   29MOL   O124 6900   7.809   6.842   1.160 -0.1793 -0.3857 -0.4315
   29MOL   C125 6901   7.763   6.785   1.272 -0.4864  0.1946  0.0473
   29MOL   C126 6902   7.778   6.634   1.269 -0.1014 -0.1908 -0.1345
   29MOL   O127 6903   7.715   6.843   1.368 -0.6062  0.1398 -0.6519
   29MOL   H128 6904   7.785   6.996   0.950  0.1883 -0.9706  1.3628
   29MOL   H129 6905   7.770   7.154   1.023 -2.7272  0.7265 -0.9542
   29MOL   H130 6906   7.781   7.028   1.239  0.4996  1.8299 -0.4965
   29MOL   H131 6907   7.882   6.603   1.261  0.0926 -0.1312  2.0349
   29MOL   H132 6908   7.715   6.593   1.189  1.1711  0.0870 -1.2866
   29MOL   H133 6909   7.732   6.582   1.353 -0.3751 -1.1941 -0.8888
   29MOL   C134 6910   7.988   6.998   1.132  0.6040 -0.5474 -0.3154
   29MOL   C135 6911   0.012   7.144   1.137 -0.4462  0.2627  0.3471
   29MOL   O136 6912   0.009   7.195   1.266 -0.4098  0.1045 -0.2764
   29MOL   C137 6913   7.922   7.255   1.328 -0.3411 -0.5398  0.2017
   29MOL   C138 6914   7.950   7.314   1.466 -0.3706  0.3234  0.1005
   29MOL   O139 6915   7.810   7.265   1.272 -0.4878 -0.4238 -0.5207
   29MOL   H140 6916   0.025   6.950   1.210  1.1331  2.4498  1.2044
   29MOL   H141 6917   8.015   6.958   1.034 -1.6245  0.9424 -1.5966
   29MOL   H142 6918   7.978   7.206   1.067  0.8309  1.8811  0.7147
   29MOL   H143 6919   7.890   7.260   1.540  0.5164  2.4332  2.4345
   29MOL   H144 6920   7.919   7.417   1.454 -1.2417  0.3279  2.1397
   29MOL   H145 6921   0.031   7.309   1.503  0.0439 -1.1587 -1.1499
   29MOL   C146 6922   0.153   7.160   1.080 -0.0935  0.8341  0.1401
   29MOL   C147 6923   0.197   7.303   1.060  0.3421  0.1607  0.0519
   29MOL   O148 6924   0.333   7.317   1.055 -0.2884  0.6678 -0.0184
   29MOL   C149 6925   0.404   7.418   1.118 -0.1933  1.1693 -0.3494
   29MOL   C150 6926   0.550   7.418   1.079 -0.2703 -0.4946 -1.0319
   29MOL   O151 6927   0.360   7.499   1.194  0.2793  0.0553  0.3120
   29MOL   H152 6928   0.221   7.102   1.142 -1.1634  1.1513  1.6513
   29MOL   H153 6929   0.150   7.111   0.983  0.9666 -3.1388  1.9760
   29MOL   H154 6930   0.148   7.361   1.138 -2.5686 -1.0637 -0.8113
   29MOL   H155 6931   0.602   7.325   1.099 -1.5753 -0.7381  1.4104
   29MOL   H156 6932   0.596   7.489   1.148 -0.3666 -0.2200 -1.2484
   29MOL   H157 6933   0.549   7.446   0.974  0.8648 -1.0435 -1.1935
   29MOL   C158 6934   0.153   7.364   0.922 -0.8119  0.1296  0.5554
   29MOL   C159 6935   0.004   7.384   0.895  0.4892 -0.2906  0.1848
   29MOL   O160 6936   7.954   7.270   0.850  0.3105  0.4698 -0.0523
   29MOL   C161 6937   7.950   7.244   0.721  0.2496  0.5950  0.1598
   29MOL   C162 6938   7.869   7.117   0.686  0.2590  0.6913 -1.0316
   29MOL   O163 6939   7.996   7.322   0.632  0.1966  0.1528 -0.1718
   29MOL   H164 6940   0.190   7.465   0.906 -1.9830  0.2667 -1.4510
   29MOL   H165 6941   0.205   7.303   0.849  0.5596  0.2393  1.4155
   29MOL   H166 6942   8.019   7.444   0.804 -1.8493 -0.0678  0.4545
   29MOL   H167 6943   7.772   7.118   0.734  0.8754 -3.3708  0.4809
   29MOL   H168 6944   7.912   7.032   0.740 -0.8591  0.6186 -0.2412
   29MOL   H169 6945   7.859   7.096   0.579 -2.7314 -0.6828 -0.5252
   29MOL   C170 6946   7.965   7.473   1.008  0.0005 -0.6235  0.1506
   29MOL   C171 6947   7.821   7.527   0.980  0.0185  0.0690  0.4639
   29MOL   O172 6948   7.768   7.551   1.104  0.7099  0.6190  0.3494
   29MOL   C173 6949   7.637   7.519   1.134 -0.3169  0.0810  0.3555
   29MOL   C174 6950   7.612   7.533   1.280 -0.2741 -0.3221  0.1155
   29MOL   O175 6951   7.554   7.472   1.057 -0.5496 -0.0599  0.0067
   29MOL   H176 6952   7.967   7.423   1.105 -1.1594  2.7640  1.9985
   29MOL   H177 6953   0.006   7.560   1.028  0.6014 -0.5170 -2.0582
   29MOL   H178 6954   7.777   7.444   0.925  0.5305  0.5668 -0.7192
   29MOL   H179 6955   7.556   7.443   1.306  0.7983 -1.1757 -0.5098
   29MOL   H180 6956   7.556   7.626   1.294 -2.6189 -1.6860  0.0062
   29MOL   H181 6957   7.702   7.539   1.341 -0.7137 -1.1459  0.8575
   29MOL   C182 6958   7.818   7.656   0.888  0.1096  0.1316 -0.7282
   29MOL   C183 6959   7.678   7.696   0.837  0.4606  0.6530 -0.3614
   29MOL   O184 6960   7.674   7.838   0.818  0.4128 -0.1728 -0.1196
   29MOL   C185 6961   7.618   7.921   0.915 -0.2325 -0.3076 -0.1286
   29MOL   C186 6962   7.588   0.042   0.863  0.1941 -0.4060  0.2059
   29MOL   O187 6963   7.603   7.891   1.034  0.1564  0.0012 -0.4081
   29MOL   H188 6964   7.855   7.743   0.942 -1.6159  0.1574  0.4479
   29MOL   H189 6965   7.883   7.635   0.802  0.5190 -0.7932 -0.1949
   29MOL   H190 6966   7.606   7.658   0.909  0.8353  2.2145  0.8752
   29MOL   H191 6967   7.611   0.106   0.948  0.0361 -0.2044  0.0963
   29MOL   H192 6968   7.488   0.051   0.820 -0.1296 -1.4335  0.7145
   29MOL   H193 6969   7.654   0.063   0.779  0.3407 -1.7427 -0.0206
   29MOL   C194 6970   7.635   7.635   0.694 -0.4840  0.4522 -0.2213
   29MOL   C195 6971   7.482   7.628   0.687 -0.3915  0.9934  0.2088
   29MOL   O196 6972   7.438   7.649   0.553  0.0678  0.2889 -0.0312
   29MOL   C197 6973   7.358   7.744   0.523  0.5095 -0.6519  0.0397
   29MOL   C198 6974   7.306   7.727   0.381 -0.2777 -0.1100  0.5069
   29MOL   O199 6975   7.332   7.846   0.592 -0.8789 -0.0428 -0.0707
   29MOL   H200 6976   7.668   7.702   0.615 -0.6425  1.4451  0.5500
   29MOL   H201 6977   7.684   7.540   0.672  0.1232  1.1053 -1.7492
   29MOL   H202 6978   7.439   7.702   0.754  1.0400  1.7819  0.2866
   29MOL   H203 6979   7.379   7.692   0.308 -0.9619  0.1283 -0.2935
   29MOL   H204 6980   7.266   7.822   0.344 -1.4066 -0.1214  1.6762
   29MOL   H205 6981   7.211   7.672   0.382 -1.1654  1.3780 -0.2016
   29MOL   C206 6982   7.423   7.487   0.723 -0.5305 -0.1195  0.0911
   29MOL   C207 6983   7.266   7.481   0.749  0.7965 -0.0993 -0.2547
   29MOL   O208 6984   7.234   7.341   0.777 -0.0951 -0.6878 -0.1646
   29MOL   C209 6985   7.171   7.268   0.694  0.7361  0.0944  0.2522
   29MOL   C210 6986   7.125   7.133   0.743  0.0318 -0.1815 -0.0628
   29MOL   O211 6987   7.149   7.307   0.584  0.6474  0.0840  0.0396
   29MOL   H212 6988   7.442   7.418   0.641 -0.7010  0.1796 -0.1999
   29MOL   H213 6989   7.469   7.441   0.810 -0.6232 -0.8670 -0.2506
   29MOL   H214 6990   7.217   7.513   0.657  1.6973 -1.0453 -1.0778
   29MOL   H215 6991   7.074   7.080   0.663  0.2320  2.1841 -1.8035
   29MOL   H216 6992   7.058   7.145   0.829 -0.8762  0.2632 -0.8264
   29MOL   H217 6993   7.204   7.060   0.764 -1.5336 -1.4990  1.5238
   29MOL   C218 6994   7.197   7.563   0.857 -0.6009 -0.1171 -0.3647
   29MOL   C219 6995   7.062   7.617   0.806  0.7417 -0.6490 -0.5244
   29MOL   O220 6996   6.978   7.501   0.781  0.2500  0.3270  0.0630
   29MOL   C221 6997   6.877   7.514   0.695  0.5185  0.2932 -0.1662
   29MOL   C222 6998   6.791   7.385   0.690 -0.5700  0.2519  0.3278
   29MOL   O223 6999   6.841   7.616   0.636 -0.0730  0.4365  0.2860
   29MOL   H224 7000   7.193   7.520   0.957 -0.4796 -2.9689 -1.5189
   29MOL   H225 7001   7.255   7.654   0.867 -2.3651  0.9138  0.7465
   29MOL   H226 7002   7.083   7.674   0.716 -1.2212  0.9369 -0.0042
   29MOL   H227 7003   6.713   7.394   0.765  0.6639 -1.6628  1.9107
   29MOL   H228 7004   6.850   7.301   0.728 -0.9876  0.3662  1.2466
   29MOL   H229 7005   6.741   7.364   0.596 -2.0793 -1.0239  1.3751
   29MOL   C230 7006   7.004   7.710   0.922  0.5302 -0.0723  0.3188
   29MOL   C231 7007   7.080   7.828   0.960  0.0506 -0.3128 -0.0868
   29MOL   O232 7008   7.093   7.921   0.852  0.0183 -0.0591 -0.5078
   29MOL   C233 7009   7.172   0.008   0.865  0.8799 -0.2180  0.3815
   29MOL   C234 7010   7.190   0.094   0.733 -0.0036 -0.3099  0.4054
   29MOL   O235 7011   7.229   0.040   0.968  0.2085  0.3686  0.0589
   29MOL   H236 7012   6.902   7.733   0.892  0.5189 -0.3285  0.1553
   29MOL   H237 7013   6.993   7.640   1.006 -0.4631  0.6795  0.8247
   29MOL   H238 7014   7.178   7.808   1.006  0.8478 -0.1361 -1.6893
   29MOL   H239 7015   7.266   0.172   0.732 -2.0223  1.7086 -0.6252
   29MOL   H240 7016   7.100   0.151   0.713  1.9585  3.3075  1.4409
   29MOL   H241 7017   7.214   0.032   0.647 -0.9572  0.0589 -0.1361
   29MOL   H242 7018   7.033   7.891   1.036 -0.0963  0.1298 -0.5428
   30MOL     C1 7019   4.288   0.869   0.465 -0.1715  0.1967  0.6876
   30MOL     C2 7020   4.336   0.798   0.343  0.9487  0.7152  0.6174
   30MOL     O3 7021   4.321   0.657   0.362  0.3335  0.2746  0.0922
   30MOL     C4 7022   4.427   0.586   0.412 -0.2436  0.2218  0.8162
   30MOL     C5 7023   4.404   0.436   0.376 -0.2952 -0.2079  0.0347
   30MOL     O6 7024   4.519   0.625   0.490 -0.0027  0.3281 -0.1597
   30MOL     H7 7025   4.359   0.857   0.547  3.0265  0.0506 -1.9840
   30MOL     H8 7026   4.193   0.832   0.503  1.0394 -0.2286  3.4096
   30MOL     H9 7027   4.439   0.821   0.317  1.0714 -2.4499 -1.9628
   30MOL    H10 7028   4.449   0.362   0.443  0.3405  0.9871  0.9391
   30MOL    H11 7029   4.444   0.417   0.277  1.7282  1.8707  0.4313
   30MOL    H12 7030   4.297   0.418   0.392 -0.3642 -0.2498 -0.4686
   30MOL    H13 7031   4.282   0.976   0.446 -0.2585  0.1245  0.3104
   30MOL    C14 7032   4.254   0.828   0.213  0.1013 -0.4792 -0.5757
   30MOL    C15 7033   4.344   0.800   0.084  0.7433  0.0454  0.1392
   30MOL    O16 7034   4.342   0.661   0.042 -0.1978 -0.6720  0.0605
   30MOL    C17 7035   4.456   0.594   0.040  0.6313 -0.2297  0.1482
   30MOL    C18 7036   4.437   0.462   7.989  0.7636 -0.2409 -0.3903
   30MOL    O19 7037   4.560   0.618   0.101  0.2555 -0.0090 -0.6663
   30MOL    H20 7038   4.159   0.774   0.215 -0.6151  0.7741  0.9743
   30MOL    H21 7039   4.246   0.936   0.225  2.8476 -0.4657  1.7854
   30MOL    H22 7040   4.443   0.835   0.115  0.5005  0.2387  0.7014
   30MOL    H23 7041   4.447   0.384   0.043  3.8449 -0.3960 -0.8977
   30MOL    H24 7042   4.521   0.452   7.921  1.8489  0.5450  0.7919
   30MOL    H25 7043   4.344   0.463   7.933 -0.7409  0.4658  2.0050
   30MOL    C26 7044   4.301   0.884   7.985  0.1672  0.0596 -0.0924
   30MOL    C27 7045   4.323   1.032   7.998 -0.1349 -0.0865 -0.0019
   30MOL    O28 7046   4.468   1.059   8.015  0.6482  0.4022  0.7645
   30MOL    C29 7047   4.514   1.136   0.095 -0.3835 -0.2060 -0.3252
   30MOL    C30 7048   4.656   1.114   0.116  0.0388 -0.3007 -0.5196
   30MOL    O31 7049   4.449   1.205   0.177  0.1491 -0.0748 -0.3174
   30MOL    H32 7050   4.356   0.852   7.896  1.4892 -0.3716  0.8571
   30MOL    H33 7051   4.195   0.865   7.973  0.3187 -1.0571  0.3032
   30MOL    H34 7052   4.271   1.078   0.061 -1.6882 -0.0385 -0.9570
   30MOL    H35 7053   4.711   1.159   0.033  0.4927  1.3870  0.6685
   30MOL    H36 7054   4.680   1.008   0.128 -0.4826 -0.1639  2.1716
   30MOL    H37 7055   4.688   1.175   0.200  0.2740  2.0265 -2.2538
   30MOL    C38 7056   4.283   1.092   7.866 -0.0171 -0.3530  0.3348
   30MOL    C39 7057   4.263   1.249   7.862 -0.5375  0.4842 -0.5595
   30MOL    O40 7058   4.202   1.270   7.737  0.0248  0.1856  0.4671
   30MOL    C41 7059   4.232   1.368   7.651 -0.2467 -0.4091 -0.9211
   30MOL    C42 7060   4.171   1.346   7.518  0.0054  0.2433  0.0107
   30MOL    O43 7061   4.315   1.458   7.671 -0.6175 -0.0519 -0.1231
   30MOL    H44 7062   4.356   1.054   7.794 -1.2023 -2.3732  0.1653
   30MOL    H45 7063   4.193   1.038   7.838 -0.0597 -0.7929  1.2938
   30MOL    H46 7064   4.354   1.306   7.879 -1.5851  2.2585 -0.7620
   30MOL    H47 7065   4.172   1.239   7.496  1.9181  0.9411 -3.6524
   30MOL    H48 7066   4.238   1.392   7.446 -0.3274  1.5087  0.4859
   30MOL    H49 7067   4.067   1.380   7.512 -0.1990 -0.4658 -0.4764
   30MOL    C50 7068   4.172   1.310   7.970 -0.0839  0.2345  0.3569
   30MOL    C51 7069   4.148   1.460   7.965 -0.2425 -0.1661 -0.3490
   30MOL    O52 7070   4.035   1.492   0.027 -0.7295 -0.6097 -0.0097
   30MOL    C53 7071   3.936   1.551   7.996  0.3345  0.1628 -0.2070
   30MOL    C54 7072   3.822   1.562   0.073 -0.1455  0.5276 -0.4452
   30MOL    O55 7073   3.921   1.595   7.889  0.5265  0.4164 -0.4206
   30MOL    H56 7074   4.076   1.261   7.957 -0.2269  0.4073  0.7621
   30MOL    H57 7075   4.204   1.274   0.046 -1.8364  0.3318  0.9894
   30MOL    H58 7076   4.133   1.477   7.858  1.4349 -2.1144 -0.9171
   30MOL    H59 7077   3.735   1.608   0.027 -0.3677 -1.2981 -1.9004
   30MOL    H60 7078   3.842   1.623   0.161  2.0128 -0.8501  0.0456
   30MOL    H61 7079   3.799   1.462   0.110  0.8369  0.2723 -0.5072
   30MOL    C62 7080   4.266   1.538   8.014  0.4101  0.0089  0.1110
   30MOL    C63 7081   4.251   1.693   8.000  0.0435 -0.2801  0.2019
   30MOL    O64 7082   4.349   1.757   0.058  0.1618  0.1205 -0.1339
   30MOL    C65 7083   4.309   1.829   0.165 -0.0401 -0.1167  0.1301
   30MOL    C66 7084   4.426   1.890   0.233 -0.3197 -0.1576  0.6750
   30MOL    O67 7085   4.196   1.848   0.213 -0.1703  0.4199  0.4215
   30MOL    H68 7086   4.290   1.508   0.094 -0.5321 -2.4442 -0.3545
   30MOL    H69 7087   4.359   1.512   7.964  0.1784 -1.1313  0.2366
   30MOL    H70 7088   4.152   1.722   0.014 -0.0835  0.0096 -0.3817
   30MOL    H71 7089   4.400   1.956   0.316  0.1331 -0.4735  1.0705
   30MOL    H72 7090   4.487   1.946   0.163 -0.4994 -1.7910 -0.8433
   30MOL    H73 7091   4.487   1.810   0.277  0.1859  1.1616  2.4150
   30MOL    C74 7092   4.269   1.739   7.854 -0.4744 -0.3639 -0.2962
   30MOL    C75 7093   4.236   1.887   7.830 -0.2653 -0.3306  0.1744
   30MOL    O76 7094   4.331   1.973   7.906  0.4237  0.0712  0.0246
   30MOL    C77 7095   4.286   2.098   7.951 -0.2134 -0.0538 -0.0349
   30MOL    C78 7096   4.408   2.168   8.005 -0.5786 -0.3719 -0.3152
   30MOL    O79 7097   4.186   2.153   7.918 -0.2347  0.1010  0.1162
   30MOL    H80 7098   4.367   1.713   7.813 -1.2088  0.5246 -2.6912
   30MOL    H81 7099   4.202   1.688   7.786 -0.4063  0.3777 -0.9210
   30MOL    H82 7100   4.133   1.911   7.856 -0.0104  0.0177  0.8607
   30MOL    H83 7101   4.499   2.173   7.945  0.2906 -0.9434  0.9303
   30MOL    H84 7102   4.442   2.122   0.077  2.1752 -0.3614 -1.2487
   30MOL    H85 7103   4.375   2.266   0.018 -1.4594  0.0150 -2.2405
   30MOL    C86 7104   4.254   1.925   7.688  0.6249 -0.6775 -1.2936
   30MOL    C87 7105   4.125   1.893   7.610 -0.1455  0.6312  0.5886
   30MOL    O88 7106   4.033   1.991   7.635  0.0590 -0.2455  0.2147
   30MOL    C89 7107   3.919   1.982   7.708  0.9364 -0.0254  0.3544
   30MOL    C90 7108   3.833   2.106   7.694  0.3816  0.5368  0.5583
   30MOL    O91 7109   3.881   1.879   7.762  0.4213 -0.4079  0.9390
   30MOL    H92 7110   4.276   2.031   7.683  0.0988 -0.6465 -3.2268
   30MOL    H93 7111   4.339   1.886   7.632  0.8046  0.7194 -1.9975
   30MOL    H94 7112   4.080   1.802   7.647 -1.4435  1.1723  0.3731
   30MOL    H95 7113   3.770   2.111   7.605 -0.0883 -1.0061  0.7923
   30MOL    H96 7114   3.896   2.196   7.690 -1.1050  1.5620 -0.7265
   30MOL    H97 7115   3.762   2.113   7.776 -1.9304 -0.2197 -1.3052
   30MOL    C98 7116   4.136   1.892   7.459 -0.1647 -0.0335  0.5128
   30MOL    C99 7117   4.011   1.812   7.395 -0.3125  0.1039 -0.0991
   30MOL   O100 7118   4.016   1.838   7.253  0.1277 -0.1126 -0.6023
   30MOL   C101 7119   3.908   1.902   7.206  0.7806  0.4788  0.8925
   30MOL   C102 7120   3.890   1.902   7.058  0.1766  0.0063 -0.9061
   30MOL   O103 7121   3.819   1.951   7.274 -0.4470 -0.3912 -0.0311
   30MOL   H104 7122   4.135   1.988   7.407  0.9037 -0.5253 -0.4507
   30MOL   H105 7123   4.228   1.848   7.421  1.3568  4.9662 -1.9899
   30MOL   H106 7124   3.926   1.836   7.458 -0.7009  1.2581 -1.0506
   30MOL   H107 7125   3.840   1.809   7.031 -1.7684  0.9075 -0.4725
   30MOL   H108 7126   3.981   1.923   7.002  0.0515  1.6146 -0.5415
   30MOL   H109 7127   3.822   1.978   7.019 -0.5830 -0.7407 -1.0676
   30MOL   C110 7128   4.008   1.657   7.411 -0.5138 -0.3194  0.3475
   30MOL   C111 7129   3.873   1.587   7.412  0.2049  0.5648 -0.0167
   30MOL   O112 7130   3.880   1.459   7.347  0.6412  0.5010 -0.3193
   30MOL   C113 7131   3.834   1.437   7.226 -0.7045  0.1724 -0.1281
   30MOL   C114 7132   3.865   1.292   7.177 -0.1326  0.0030  0.8857
   30MOL   O115 7133   3.763   1.516   7.163  0.0044  0.2568 -0.1632
   30MOL   H116 7134   4.062   1.609   7.329 -0.4278 -0.3499  0.4220
   30MOL   H117 7135   4.070   1.630   7.497  0.8904 -2.7702 -1.3781
   30MOL   H118 7136   3.797   1.648   7.363 -1.0204 -0.6653  0.3404
   30MOL   H119 7137   3.797   1.253   7.102 -2.0371  2.3839  1.3198
   30MOL   H120 7138   3.856   1.219   7.258 -1.9706 -2.6309 -1.5733
   30MOL   H121 7139   3.965   1.280   7.134 -1.6168 -1.2042 -2.3577
   30MOL   C122 7140   3.826   1.577   7.559  0.3833  0.0470 -0.1910
   30MOL   C123 7141   3.679   1.550   7.578  0.2318 -0.0835 -0.9671
   30MOL   O124 7142   3.661   1.433   7.501  0.2586  0.0801 -0.0359
   30MOL   C125 7143   3.566   1.417   7.411 -0.0081 -0.4677 -0.2556
   30MOL   C126 7144   3.564   1.281   7.344 -0.3236  0.4412 -0.1830
   30MOL   O127 7145   3.482   1.497   7.377  0.7383 -0.4757  0.8096
   30MOL   H128 7146   3.874   1.491   7.606  0.7404 -0.7554 -1.9811
   30MOL   H129 7147   3.844   1.673   7.608 -0.2214  0.1623 -0.1952
   30MOL   H130 7148   3.622   1.630   7.530 -0.3253 -0.3271 -0.7173
   30MOL   H131 7149   3.467   1.232   7.343  0.0801 -0.3644 -0.1791
   30MOL   H132 7150   3.634   1.220   7.401  0.3730  2.2443  0.9310
   30MOL   H133 7151   3.592   1.289   7.239 -0.2288  0.5005 -0.1536
   30MOL   C134 7152   3.639   1.530   7.732  0.0679  0.5982 -0.3137
   30MOL   C135 7153   3.508   1.465   7.754  0.8575 -0.2045  0.0435
   30MOL   O136 7154   3.490   1.455   7.893 -0.4717 -0.0080  0.1477
   30MOL   C137 7155   3.514   1.336   7.957  0.4001 -0.4935 -0.5192
   30MOL   C138 7156   3.481   1.361   0.089  0.1529  0.4057 -0.7935
   30MOL   O139 7157   3.554   1.229   7.913 -0.3374  0.4831 -0.4953
   30MOL   H140 7158   3.721   1.483   7.785 -0.2557  0.0484 -0.3035
   30MOL   H141 7159   3.632   1.632   7.771  2.2396  1.2926 -1.6500
   30MOL   H142 7160   3.507   1.370   7.701 -0.6839 -0.1845  0.0260
   30MOL   H143 7161   3.396   1.428   0.103 -1.5147 -1.3882 -2.0229
   30MOL   H144 7162   3.567   1.394   0.146  0.0409  0.0335 -0.4041
   30MOL   H145 7163   3.427   1.275   0.129 -2.4849  2.6591  0.6770
   30MOL   C146 7164   3.388   1.547   7.690  0.7708 -0.2206 -0.0759
   30MOL   C147 7165   3.271   1.459   7.631  0.4090  0.6894  0.6929
   30MOL   O148 7166   3.186   1.387   7.719  0.3391  0.9389  0.3195
   30MOL   C149 7167   3.205   1.251   7.725 -0.1107 -0.1195  0.2548
   30MOL   C150 7168   3.136   1.183   7.847  0.5476  0.7785  0.4205
   30MOL   O151 7169   3.290   1.193   7.667 -0.3972  0.1494 -0.9619
   30MOL   H152 7170   3.346   1.615   7.765 -1.5511  1.8591 -3.1305
   30MOL   H153 7171   3.418   1.617   7.612  0.6800 -1.3139 -1.0942
   30MOL   H154 7172   3.319   1.390   7.562  0.4673  0.8172  0.6060
   30MOL   H155 7173   3.214   1.138   7.908  0.2753  1.8651  1.5848
   30MOL   H156 7174   3.063   1.106   7.821 -0.2674  0.7307  2.7202
   30MOL   H157 7175   3.080   1.256   7.906  2.1997  0.4539  2.4460
   30MOL   C158 7176   3.175   1.532   7.533  0.3697  0.1130 -0.5140
   30MOL   C159 7177   3.063   1.623   7.599 -0.4537 -0.6665 -0.0558
   30MOL   O160 7178   3.125   1.744   7.645 -0.6438 -0.1725 -0.1558
   30MOL   C161 7179   3.066   1.811   7.748  0.7927 -0.2430  0.4043
   30MOL   C162 7180   3.137   1.932   7.802  0.6561 -0.0961  0.3526
   30MOL   O163 7181   2.958   1.785   7.799  0.1748  0.3667 -0.0810
   30MOL   H164 7182   3.235   1.593   7.464  0.1079 -0.4253 -1.2202
   30MOL   H165 7183   3.129   1.453   7.474 -0.1163  0.1450 -0.1748
   30MOL   H166 7184   3.023   1.575   7.688  3.5266 -3.7905  0.1809
   30MOL   H167 7185   3.071   2.018   7.787 -0.0389 -0.6748  0.0610
   30MOL   H168 7186   3.228   1.958   7.747  0.3002 -1.8538 -1.0889
   30MOL   H169 7187   3.161   1.915   7.907  2.3070 -1.2184 -0.1878
   30MOL   C170 7188   2.959   1.652   7.501 -0.0546  0.1292  0.3069
   30MOL   C171 7189   2.865   1.533   7.475  0.0645 -0.0529 -0.6626
   30MOL   O172 7190   2.835   1.460   7.598  0.3069  0.2581  0.1475
   30MOL   C173 7191   2.817   1.330   7.595  0.1620 -0.0920  0.0050
   30MOL   C174 7192   2.820   1.276   7.738  0.1877  0.1549  0.6174
   30MOL   O175 7193   2.801   1.261   7.499 -0.0257 -0.3948  0.6354
   30MOL   H176 7194   2.901   1.742   7.523  0.2328  0.9128 -1.9363
   30MOL   H177 7195   3.003   1.684   7.406 -1.1992  0.1583 -0.2250
   30MOL   H178 7196   2.913   1.458   7.412  1.1968 -0.5912  0.8206
   30MOL   H179 7197   2.830   1.168   7.743  1.1609  0.3047  2.2153
   30MOL   H180 7198   2.730   1.305   7.792  0.5713  2.2276  0.2229
   30MOL   H181 7199   2.896   1.336   7.788 -0.2149  0.5818  0.7176
   30MOL   C182 7200   2.734   1.561   7.402 -0.2190  0.4026 -0.1869
   30MOL   C183 7201   2.737   1.598   7.253 -0.1918  0.0524 -0.3170
   30MOL   O184 7202   2.784   1.726   7.229 -0.0599 -0.0729  0.5716
   30MOL   C185 7203   2.698   1.822   7.182  0.6158  0.7094  0.2288
   30MOL   C186 7204   2.770   1.942   7.124 -0.4351  0.3551 -0.1339
   30MOL   O187 7205   2.575   1.819   7.181  0.2100  0.7619 -1.0251
   30MOL   H188 7206   2.671   1.473   7.413 -1.4143  1.2619 -0.0305
   30MOL   H189 7207   2.685   1.639   7.460  0.1157  1.2691 -1.0671
   30MOL   H190 7208   2.635   1.588   7.214 -1.1833  0.6338  2.0399
   30MOL   H191 7209   2.724   2.037   7.152 -0.9212  0.1474 -0.2244
   30MOL   H192 7210   2.772   1.942   7.015  2.4788 -0.8306 -0.1119
   30MOL   H193 7211   2.876   1.944   7.148 -0.4201  2.0534 -0.2612
   30MOL   C194 7212   2.814   1.510   7.161 -0.4868  0.7968  0.2993
   30MOL   C195 7213   2.782   1.356   7.160 -0.1397  0.4078  0.6225
   30MOL   O196 7214   2.637   1.342   7.160 -0.0788 -0.5025 -0.1357
   30MOL   C197 7215   2.568   1.247   7.231 -0.2590 -0.0754 -0.2597
   30MOL   C198 7216   2.426   1.279   7.259 -0.7465  0.0366 -0.0214
   30MOL   O199 7217   2.608   1.135   7.260 -0.0699  0.4746  0.6379
   30MOL   H200 7218   2.801   1.542   7.058 -0.9825  1.7102  0.6388
   30MOL   H201 7219   2.919   1.515   7.190  0.2689  0.2953 -2.2564
   30MOL   H202 7220   2.807   1.309   7.256  0.8851 -0.3387 -0.0044
   30MOL   H203 7221   2.427   1.379   7.303 -0.7352  0.5488 -1.1664
   30MOL   H204 7222   2.380   1.213   7.333 -1.5762  0.4590 -0.1453
   30MOL   H205 7223   2.378   1.282   7.161  0.6881 -2.8443 -0.8484
   30MOL   C206 7224   2.847   1.292   7.028  0.6066  0.0764  0.4060
   30MOL   C207 7225   3.003   1.285   7.023 -0.0357 -0.0699 -0.2785
   30MOL   O208 7226   3.049   1.211   7.135  0.2259  0.4528 -0.6802
   30MOL   C209 7227   3.118   1.274   7.230 -0.5341 -0.2559 -0.1539
   30MOL   C210 7228   3.146   1.187   7.346 -0.4743 -0.5925  0.2841
   30MOL   O211 7229   3.162   1.383   7.217  0.5489  0.1093 -0.5104
   30MOL   H212 7230   2.813   1.188   7.029 -0.4366  0.4065  0.6470
   30MOL   H213 7231   2.795   1.334   6.942  0.3451  1.4824  1.2289
   30MOL   H214 7232   3.041   1.387   7.018  1.5029 -0.6684 -0.9415
   30MOL   H215 7233   3.054   1.134   7.374 -0.9645  1.0418  1.9088
   30MOL   H216 7234   3.180   1.248   7.430  0.2425  1.7175 -1.6191
   30MOL   H217 7235   3.223   1.112   7.329  1.2523  1.5094 -1.5248
   30MOL   C218 7236   3.066   1.211   6.908 -0.3588 -0.4002  0.1519
   30MOL   C219 7237   3.010   1.246   6.769  0.7325 -0.0038  0.1606
   30MOL   O220 7238   2.990   1.385   6.749 -0.0149 -0.2664  0.2361
   30MOL   C221 7239   2.888   1.426   6.668 -0.0795  1.1835  0.0569
   30MOL   C222 7240   2.899   1.575   6.644 -0.2091  0.4731  0.6138
   30MOL   O223 7241   2.804   1.355   6.608 -0.2589  0.0177 -0.0866
   30MOL   H224 7242   3.174   1.228   6.910  0.0756 -2.7151 -1.2668
   30MOL   H225 7243   3.049   1.107   6.938 -1.6577 -0.6286 -1.3265
   30MOL   H226 7244   2.912   1.198   6.767 -0.5565  2.5554 -0.0007
   30MOL   H227 7245   2.924   1.608   6.543 -0.7300  0.3814  0.4543
   30MOL   H228 7246   2.970   1.624   6.712 -1.5942  1.4414  1.3996
   30MOL   H229 7247   2.803   1.622   6.667  0.7163  1.9653  1.5346
   30MOL   C230 7248   3.087   1.182   6.657 -0.1556  0.1074 -0.4328
   30MOL   C231 7249   3.228   1.229   6.628  0.0799 -0.1941 -0.1645
   30MOL   O232 7250   3.301   1.147   6.524  0.8703  0.8385 -0.5702
   30MOL   C233 7251   3.397   1.205   6.453  0.0264  0.5395  0.5071
   30MOL   C234 7252   3.457   1.110   6.358 -0.6285 -0.6867  0.3174
   30MOL   O235 7253   3.439   1.319   6.453 -0.5616 -0.0325 -0.3250
   30MOL   H236 7254   3.085   1.074   6.671 -0.9520  0.2581  0.6231
   30MOL   H237 7255   3.034   1.188   6.562 -0.6907 -0.2518 -0.1602
   30MOL   H238 7256   3.286   1.243   6.719 -2.1588 -0.7041  1.3718
   30MOL   H239 7257   3.553   1.151   6.328 -0.4928  1.7659  3.7551
   30MOL   H240 7258   3.391   1.098   6.273  2.2627 -1.2645 -1.9102
   30MOL   H241 7259   3.461   1.012   6.406 -0.3511 -1.0717 -0.4820
   30MOL   H242 7260   3.225   1.334   6.600 -2.4713 -0.2187 -0.0363
   31MOL     C1 7261   4.651   4.152   1.464 -0.2299  0.6736  0.2111
   31MOL     C2 7262   4.680   4.298   1.502  0.3810 -0.3013 -0.0714
   31MOL     O3 7263   4.821   4.321   1.512  0.1164  0.2956  0.8606
   31MOL     C4 7264   4.886   4.310   1.627 -0.3563 -0.4144  0.8055
   31MOL     C5 7265   5.032   4.319   1.613 -0.4520 -0.1776  0.4841
   31MOL     O6 7266   4.829   4.281   1.736  0.3231  0.2320 -0.3840
   31MOL     H7 7267   4.695   4.118   1.370 -0.1148  0.7620  0.2340
   31MOL     H8 7268   4.544   4.131   1.460  0.0512 -0.8423  0.2650
   31MOL     H9 7269   4.634   4.339   1.593 -0.5545  1.7130 -1.4085
   31MOL    H10 7270   5.075   4.333   1.712  1.1385 -2.7394  0.2008
   31MOL    H11 7271   5.068   4.397   1.546 -0.0769 -2.4128 -2.0308
   31MOL    H12 7272   5.059   4.224   1.567 -1.1774 -0.3936  0.5044
   31MOL    H13 7273   4.702   4.088   1.535  1.5316 -0.6699 -2.1943
   31MOL    C14 7274   4.624   4.390   1.393  0.2148  0.2772 -0.1457
   31MOL    C15 7275   4.474   4.404   1.387 -0.6765  0.4042  0.5949
   31MOL    O16 7276   4.443   4.468   1.510  0.0222 -0.3329  0.5984
   31MOL    C17 7277   4.326   4.446   1.581 -0.1860 -0.5921  0.1455
   31MOL    C18 7278   4.335   4.501   1.720 -0.1792  0.0905 -0.3873
   31MOL    O19 7279   4.231   4.396   1.525 -0.5737 -0.0722  0.2266
   31MOL    H20 7280   4.673   4.486   1.410  0.2558  0.2883 -0.3206
   31MOL    H21 7281   4.665   4.351   1.300  2.3306 -0.0105  0.8753
   31MOL    H22 7282   4.425   4.307   1.394  0.6854 -0.2269  1.5184
   31MOL    H23 7283   4.271   4.445   1.788 -0.3763 -0.1262 -0.7576
   31MOL    H24 7284   4.303   4.604   1.738  2.0563  0.8718 -0.6477
   31MOL    H25 7285   4.440   4.496   1.749 -0.2347 -0.0154 -0.2009
   31MOL    C26 7286   4.425   4.495   1.276  0.1173 -0.2179  0.0591
   31MOL    C27 7287   4.426   4.439   1.134 -0.1063  0.0309 -0.3851
   31MOL    O28 7288   4.340   4.319   1.126 -0.5109  0.1363 -0.2435
   31MOL    C29 7289   4.391   4.200   1.145 -0.0855  0.3189 -0.3578
   31MOL    C30 7290   4.289   4.083   1.155  0.2416 -0.2184  0.5694
   31MOL    O31 7291   4.512   4.174   1.163 -0.5089  0.3859 -0.8456
   31MOL    H32 7292   4.321   4.521   1.295  0.3258  0.6371  0.0535
   31MOL    H33 7293   4.473   4.593   1.286  2.1778 -1.0465 -1.2032
   31MOL    H34 7294   4.530   4.413   1.115  0.0523 -1.0869  1.9427
   31MOL    H35 7295   4.262   4.071   1.260 -0.8929 -1.2494  0.1699
   31MOL    H36 7296   4.327   3.990   1.112 -1.8468 -0.8147 -0.0516
   31MOL    H37 7297   4.199   4.107   1.099  0.6793  0.3313  0.0993
   31MOL    C38 7298   4.375   4.536   1.027  0.3420  0.4123 -0.2531
   31MOL    C39 7299   4.440   4.505   0.892 -0.2911 -0.2605 -0.2612
   31MOL    O40 7300   4.393   4.388   0.841 -0.0945  0.2495  0.2925
   31MOL    C41 7301   4.483   4.294   0.811 -0.4364  0.5160  0.1954
   31MOL    C42 7302   4.418   4.183   0.739 -0.0893  0.6522  0.4254
   31MOL    O43 7303   4.602   4.283   0.848  0.3995  0.1084 -0.4470
   31MOL    H44 7304   4.267   4.546   1.041  0.2465 -0.1707 -0.5800
   31MOL    H45 7305   4.419   4.630   1.061  2.4020 -0.4896 -0.3611
   31MOL    H46 7306   4.546   4.505   0.919  0.0706 -0.8089 -1.6624
   31MOL    H47 7307   4.476   4.151   0.652 -0.4291  1.1948 -0.0091
   31MOL    H48 7308   4.329   4.217   0.685  2.1713  2.3000 -2.4284
   31MOL    H49 7309   4.393   4.097   0.800  0.4573  1.0211  1.1733
   31MOL    C50 7310   4.406   4.609   0.783  0.1799 -0.1392  0.5053
   31MOL    C51 7311   4.476   4.590   0.650 -0.0268 -0.2760  0.1446
   31MOL    O52 7312   4.382   4.646   0.556 -0.3341  0.3703 -0.0787
   31MOL    C53 7313   4.303   4.569   0.487  0.0637 -0.4438 -0.2237
   31MOL    C54 7314   4.195   4.651   0.420  0.2685 -0.1232  0.1322
   31MOL    O55 7315   4.312   4.445   0.475 -0.3265 -0.3842 -0.7653
   31MOL    H56 7316   4.298   4.608   0.768  0.3094  0.8730 -0.5734
   31MOL    H57 7317   4.420   4.711   0.820 -2.5923 -0.1321  1.6314
   31MOL    H58 7318   4.491   4.490   0.610 -1.6325 -0.0346 -1.1551
   31MOL    H59 7319   4.227   4.755   0.405 -0.6259  0.3325  1.3129
   31MOL    H60 7320   4.099   4.643   0.470  0.0047 -0.2284 -0.3903
   31MOL    H61 7321   4.188   4.612   0.319  1.5815  0.1103 -0.0583
   31MOL    C62 7322   4.601   4.689   0.637  0.2563 -0.2723  0.7203
   31MOL    C63 7323   4.729   4.660   0.722 -0.4495 -0.1537 -0.9157
   31MOL    O64 7324   4.843   4.621   0.646 -0.2978 -0.0318 -0.0878
   31MOL    C65 7325   4.854   4.497   0.596 -1.0491 -0.4405 -0.5926
   31MOL    C66 7326   4.995   4.460   0.544 -0.2636 -0.3721  0.1503
   31MOL    O67 7327   4.759   4.418   0.581 -0.0982 -0.0204 -0.3551
   31MOL    H68 7328   4.630   4.678   0.533 -0.2108 -2.1977  0.7767
   31MOL    H69 7329   4.569   4.791   0.657  0.7107  0.2009 -0.8815
   31MOL    H70 7330   4.703   4.572   0.781  0.2278  0.1913 -0.0975
   31MOL    H71 7331   5.005   4.351   0.537 -0.1064 -0.2371 -2.0068
   31MOL    H72 7332   5.076   4.489   0.611 -0.4118  0.5236 -0.0532
   31MOL    H73 7333   5.008   4.499   0.443  1.0590 -2.8812 -0.7028
   31MOL    C74 7334   4.756   4.788   0.810  0.1051  0.2463  0.2975
   31MOL    C75 7335   4.880   4.781   0.906  0.2091 -0.8673  0.8795
   31MOL    O76 7336   4.883   4.654   0.970 -0.4083 -0.1967 -0.2080
   31MOL    C77 7337   4.900   4.637   1.108 -0.2477  0.2325  0.2540
   31MOL    C78 7338   4.900   4.498   1.152 -0.3180 -0.1466  0.5511
   31MOL    O79 7339   4.925   4.727   1.183 -0.4383 -0.0543  0.6005
   31MOL    H80 7340   4.771   4.869   0.739 -1.0699 -0.3138 -0.6153
   31MOL    H81 7341   4.661   4.806   0.860 -0.3333 -2.9779  0.6964
   31MOL    H82 7342   4.875   4.856   0.985 -1.7283 -1.6692  1.5415
   31MOL    H83 7343   4.827   4.434   1.102  1.0943 -0.7457 -0.7922
   31MOL    H84 7344   4.905   4.483   1.259 -1.3121 -0.0231  0.6224
   31MOL    H85 7345   4.990   4.445   1.121  2.4865  3.8876  1.4566
   31MOL    C86 7346   5.022   4.799   0.844 -0.4145  0.0109 -0.5664
   31MOL    C87 7347   5.059   4.953   0.822 -0.2741 -0.5483 -0.1991
   31MOL    O88 7348   5.061   5.004   0.954  0.1560 -0.4951 -0.5996
   31MOL    C89 7349   5.043   5.139   0.975  0.0154 -0.6531 -0.3893
   31MOL    C90 7350   5.074   5.185   1.120  0.1443  0.7205  0.0868
   31MOL    O91 7351   5.011   5.221   0.892 -0.4952 -0.1128 -0.4160
   31MOL    H92 7352   5.096   4.758   0.913 -0.6682  1.3011  0.5093
   31MOL    H93 7353   5.029   4.747   0.749 -1.4672  0.1136 -0.7080
   31MOL    H94 7354   4.987   5.006   0.759  1.8794  0.2665 -2.0256
   31MOL    H95 7355   4.986   5.212   1.178 -0.6842 -0.6697 -0.4990
   31MOL    H96 7356   5.135   5.275   1.117  0.1308  0.6849 -1.4123
   31MOL    H97 7357   5.122   5.109   1.182 -1.6723 -0.2048  0.3943
   31MOL    C98 7358   5.185   4.973   0.745 -0.1037 -0.4626  0.1076
   31MOL    C99 7359   5.173   4.915   0.602  0.2214  0.3400  0.5032
   31MOL   O100 7360   5.043   4.946   0.537 -0.0269  0.0319 -0.5263
   31MOL   C101 7361   4.979   4.865   0.461  0.4293 -0.0512  0.0635
   31MOL   C102 7362   4.834   4.908   0.438  0.5093 -0.4655  0.4719
   31MOL   O103 7363   5.022   4.760   0.414 -0.1523  0.4260  0.0099
   31MOL   H104 7364   5.215   5.077   0.737 -0.9188 -0.2735 -0.5357
   31MOL   H105 7365   5.271   4.932   0.799 -0.5471 -1.1523  0.2941
   31MOL   H106 7366   5.179   4.806   0.599 -2.6568  0.1557 -0.3555
   31MOL   H107 7367   4.840   4.991   0.368  1.2464 -1.0910 -0.2170
   31MOL   H108 7368   4.789   4.921   0.537 -0.8146 -0.2696 -0.1495
   31MOL   H109 7369   4.791   4.824   0.384  0.9552  1.0903 -2.3949
   31MOL   C110 7370   5.275   4.952   0.489  0.4740  0.1515 -0.1581
   31MOL   C111 7371   5.395   4.868   0.507 -0.2788 -0.3777 -0.1208
   31MOL   O112 7372   5.408   4.763   0.413  0.0671  0.2666 -0.7875
   31MOL   C113 7373   5.384   4.640   0.460 -0.6924  0.3068 -0.8966
   31MOL   C114 7374   5.363   4.539   0.350 -0.0237 -0.5086 -0.0908
   31MOL   O115 7375   5.382   4.598   0.576  0.4918  0.0712 -0.0835
   31MOL   H116 7376   5.235   4.934   0.389 -1.5944 -0.9263  0.8274
   31MOL   H117 7377   5.303   5.057   0.498  2.4263 -0.2495 -1.1987
   31MOL   H118 7378   5.386   4.823   0.606  1.1056 -2.3050 -0.8398
   31MOL   H119 7379   5.293   4.578   0.277 -1.5269  1.2424  2.2142
   31MOL   H120 7380   5.326   4.446   0.393 -2.0688  0.2968 -0.0633
   31MOL   H121 7381   5.456   4.506   0.303  1.4894  4.4157 -0.8148
   31MOL   C122 7382   5.520   4.944   0.490 -0.4949  0.2758  0.2996
   31MOL   C123 7383   5.646   4.866   0.525 -0.3796 -0.9402  0.1698
   31MOL   O124 7384   5.765   4.937   0.499  0.2056 -0.1197  0.3718
   31MOL   C125 7385   5.868   4.889   0.422  0.4514  0.5707  0.4228
   31MOL   C126 7386   5.970   4.994   0.385  0.9850  0.9283 -0.1413
   31MOL   O127 7387   5.866   4.779   0.373 -0.2465  0.5484 -0.1339
   31MOL   H128 7388   5.535   4.993   0.393 -1.0774  1.0874  0.6145
   31MOL   H129 7389   5.515   5.033   0.552 -2.0431  1.0187 -0.8575
   31MOL   H130 7390   5.650   4.784   0.453  0.8236 -0.3212 -0.4890
   31MOL   H131 7391   5.957   5.078   0.454  0.4631 -0.3138  1.3183
   31MOL   H132 7392   5.964   5.026   0.282 -0.8893 -0.8807 -0.6331
   31MOL   H133 7393   6.070   4.961   0.413  0.7052 -0.3850 -0.6518
   31MOL   C134 7394   5.660   4.810   0.668  0.1295  0.3935 -0.0398
   31MOL   C135 7395   5.777   4.719   0.695 -0.1839 -0.0249 -0.4841
   31MOL   O136 7396   5.775   4.690   0.834  0.3748 -0.5511  0.4781
   31MOL   C137 7397   5.834   4.768   0.920  0.3282 -0.4961 -0.8924
   31MOL   C138 7398   5.830   4.715   1.065  0.4901  0.4375  0.3609
   31MOL   O139 7399   5.887   4.878   0.896 -0.0498  0.4433 -0.0203
   31MOL   H140 7400   5.673   4.898   0.730  1.7245 -1.2903  2.1136
   31MOL   H141 7401   5.573   4.752   0.699  2.9749 -2.8476  2.3259
   31MOL   H142 7402   5.879   4.752   0.672 -0.2556 -1.1707 -2.5697
   31MOL   H143 7403   5.930   4.679   1.088  0.6744  1.3403  1.0546
   31MOL   H144 7404   5.752   4.639   1.071 -1.3966  2.0275 -2.5591
   31MOL   H145 7405   5.816   4.798   1.134 -1.4969 -0.2635  0.8203
   31MOL   C146 7406   5.758   4.580   0.629  0.8543 -0.3410 -0.5100
   31MOL   C147 7407   5.869   4.486   0.675 -0.3566 -0.1135 -0.8661
   31MOL   O148 7408   5.839   4.400   0.782 -0.1706 -0.2797  0.3171
   31MOL   C149 7409   5.922   4.367   0.878  0.4536  0.7221  0.1042
   31MOL   C150 7410   5.846   4.307   0.994  0.2250  0.1760 -0.3230
   31MOL   O151 7411   6.039   4.398   0.887  0.0043  0.2266 -0.2452
   31MOL   H152 7412   5.660   4.542   0.658 -0.4477  1.5940 -2.2506
   31MOL   H153 7413   5.754   4.589   0.521 -0.6064  1.4425 -0.3242
   31MOL   H154 7414   5.949   4.550   0.713 -0.9637 -0.4194  0.9662
   31MOL   H155 7415   5.838   4.370   1.083 -1.4117  0.7877 -0.8899
   31MOL   H156 7416   5.913   4.223   1.014  0.1814  0.4403  1.0038
   31MOL   H157 7417   5.744   4.288   0.963  0.4508 -0.6495 -0.5676
   31MOL   C158 7418   5.943   4.405   0.561 -0.2829  0.0591 -0.2594
   31MOL   C159 7419   6.039   4.496   0.473  0.7539  0.2923 -0.4693
   31MOL   O160 7420   6.152   4.527   0.558  0.6478 -0.2005  0.4254
   31MOL   C161 7421   6.202   4.653   0.551 -0.4705 -0.6432 -0.5145
   31MOL   C162 7422   6.285   4.690   0.672 -0.1927  0.5876 -0.1737
   31MOL   O163 7423   6.193   4.733   0.453 -0.0404  0.1006 -0.4274
   31MOL   H164 7424   6.003   4.320   0.591 -1.1415 -0.4997 -0.0956
   31MOL   H165 7425   5.865   4.369   0.493  1.1742 -0.3298 -1.7566
   31MOL   H166 7426   5.980   4.585   0.453 -1.7630 -1.0300  0.9334
   31MOL   H167 7427   6.324   4.791   0.659  1.8965  0.0537  1.6983
   31MOL   H168 7428   6.369   4.622   0.685 -0.1396  0.3459 -1.6231
   31MOL   H169 7429   6.234   4.703   0.767 -2.1300  1.9901 -1.3601
   31MOL   C170 7430   6.075   4.440   0.337 -0.3702  0.1361  0.4974
   31MOL   C171 7431   5.962   4.398   0.240  0.4097 -0.0041  0.4729
   31MOL   O172 7432   5.882   4.511   0.209  0.0640 -0.3256 -0.3599
   31MOL   C173 7433   5.746   4.499   0.198  0.2099  0.0130 -0.2472
   31MOL   C174 7434   5.674   4.619   0.146 -0.2421  0.0297 -0.0323
   31MOL   O175 7435   5.683   4.401   0.210  0.3989 -0.1953 -0.1378
   31MOL   H176 7436   6.149   4.496   0.280 -0.3150 -1.1385 -0.6996
   31MOL   H177 7437   6.138   4.351   0.343 -0.1182  0.2592 -0.3291
   31MOL   H178 7438   5.903   4.318   0.285  1.5811 -0.9262  0.3913
   31MOL   H179 7439   5.579   4.585   0.105 -1.2587  1.2880  1.2264
   31MOL   H180 7440   5.744   4.670   0.079 -0.7664  1.6444  0.6134
   31MOL   H181 7441   5.644   4.686   0.227  2.3048  0.0311  0.9541
   31MOL   C182 7442   6.025   4.346   0.105  0.1898 -0.3473  0.2933
   31MOL   C183 7443   6.108   4.223   0.110 -0.1021  0.4204  0.4184
   31MOL   O184 7444   6.031   4.104   0.138 -0.0252 -0.3072 -0.1818
   31MOL   C185 7445   6.017   4.054   0.260  0.4957 -0.8084  0.3630
   31MOL   C186 7446   5.960   3.913   0.270  0.1935  0.1453 -0.9044
   31MOL   O187 7447   6.038   4.116   0.366 -0.5968 -0.1078 -0.0208
   31MOL   H188 7448   5.951   4.327   0.027  1.1566 -1.6486 -0.3120
   31MOL   H189 7449   6.082   4.427   0.060  1.4932 -1.7581 -0.6310
   31MOL   H190 7450   6.175   4.240   0.195 -0.6829  1.7416  0.6345
   31MOL   H191 7451   6.041   3.841   0.257 -1.6254 -1.9652 -0.8809
   31MOL   H192 7452   5.877   3.894   0.202 -0.7885  2.0009 -0.2405
   31MOL   H193 7453   5.942   3.895   0.376  0.5884  1.8300 -0.5469
   31MOL   C194 7454   6.199   4.213   8.004 -0.2967 -0.7950  0.7136
   31MOL   C195 7455   6.295   4.094   8.000 -0.0578 -0.7802 -0.4251
   31MOL   O196 7456   6.355   4.097   7.870  0.0370 -0.4102  0.1052
   31MOL   C197 7457   6.302   4.028   7.770  0.8369 -0.0620 -0.3841
   31MOL   C198 7458   6.375   4.041   7.637 -0.2794 -0.5731  0.3249
   31MOL   O199 7459   6.211   3.946   7.775  0.2473 -0.4619  0.1629
   31MOL   H200 7460   6.141   4.204   7.912  1.9407  0.4591 -0.8295
   31MOL   H201 7461   6.265   4.299   7.995 -0.8243 -0.1841  2.3647
   31MOL   H202 7462   6.242   3.999   8.007 -1.1083 -0.1388  0.5055
   31MOL   H203 7463   6.299   4.047   7.559 -0.9903  1.1315  1.1140
   31MOL   H204 7464   6.436   3.951   7.627  2.6333  1.3486  0.1658
   31MOL   H205 7465   6.447   4.123   7.634 -2.1229  1.0204 -1.7089
   31MOL   C206 7466   6.399   4.090   0.090  0.8877  0.7574  0.1300
   31MOL   C207 7467   6.476   3.964   0.104 -0.1916  0.3344  0.6533
   31MOL   O208 7468   6.604   3.992   0.173  0.2147  0.5286 -0.6870
   31MOL   C209 7469   6.720   3.973   0.113 -1.4113 -0.4317  0.1998
   31MOL   C210 7470   6.842   3.984   0.203  0.4965  0.0677  0.3096
   31MOL   O211 7471   6.738   3.965   8.012 -0.2760  0.0395  0.6694
   31MOL   H212 7472   6.475   4.167   0.076  2.7607 -0.5382  2.7058
   31MOL   H213 7473   6.345   4.109   0.183  0.9225  3.7494 -0.4318
   31MOL   H214 7474   6.488   3.917   0.006  1.5909 -1.5001  1.7299
   31MOL   H215 7475   6.935   3.973   0.146 -0.9958 -0.5497 -2.0752
   31MOL   H216 7476   6.828   3.902   0.273 -2.3234 -0.7416 -1.1061
   31MOL   H217 7477   6.835   4.078   0.257  1.0222  1.1969 -1.5321
   31MOL   C218 7478   6.395   3.847   0.175  0.0493 -0.3083 -0.3851
   31MOL   C219 7479   6.457   3.708   0.178 -0.0623 -0.4451  0.2527
   31MOL   O220 7480   6.558   3.706   0.281  0.5020 -0.2799 -0.3423
   31MOL   C221 7481   6.668   3.629   0.261  0.0908  0.0871  0.2486
   31MOL   C222 7482   6.765   3.642   0.375  0.2046  0.2778  0.3893
   31MOL   O223 7483   6.692   3.562   0.161 -0.4963  0.4040 -0.2555
   31MOL   H224 7484   6.364   3.876   0.276  0.4947 -0.9120 -0.0648
   31MOL   H225 7485   6.298   3.844   0.124 -1.2651  3.7331  1.6984
   31MOL   H226 7486   6.508   3.697   0.083 -0.7534  1.1821 -0.3220
   31MOL   H227 7487   6.757   3.549   0.432  0.0495 -0.8203 -1.3680
   31MOL   H228 7488   6.715   3.710   0.444 -1.4675  0.3981 -0.9064
   31MOL   H229 7489   6.865   3.671   0.344  0.5885 -2.4158 -1.0617
   31MOL   C230 7490   6.354   3.592   0.195 -0.5472 -0.0124 -0.9964
   31MOL   C231 7491   6.312   3.508   0.070  0.2731  0.9537 -0.3698
   31MOL   O232 7492   6.178   3.515   0.056  0.7887 -0.3786  0.2982
   31MOL   C233 7493   6.120   3.605   7.998  0.1027 -0.5935  0.9312
   31MOL   C234 7494   5.968   3.587   7.993 -0.3593  0.0186  0.2608
   31MOL   O235 7495   6.177   3.676   7.917  0.6059  0.0223 -0.0456
   31MOL   H236 7496   6.395   3.522   0.268 -0.0500  1.2094 -0.0884
   31MOL   H237 7497   6.264   3.624   0.249  1.4624 -0.5360  2.8687
   31MOL   H238 7498   6.345   3.404   0.081  0.0376  0.9971  0.7679
   31MOL   H239 7499   5.937   3.509   7.924 -0.7168  0.9748 -0.6824
   31MOL   H240 7500   5.925   3.683   7.962 -0.0208  0.4158  1.0139
   31MOL   H241 7501   5.935   3.565   0.073  1.0297  0.8532  0.9143
   31MOL   H242 7502   6.355   3.551   8.000  2.5185 -0.7152 -0.1615
   32MOL     C1 7503   6.867   4.981   3.752 -0.3138  0.0179 -0.4480
   32MOL     C2 7504   6.811   4.922   3.882  0.2161 -0.4020  0.4651
   32MOL     O3 7505   6.667   4.928   3.887  0.2443 -0.5032  0.2554
   32MOL     C4 7506   6.619   5.050   3.911 -0.4641 -0.2558 -0.3850
   32MOL     C5 7507   6.466   5.065   3.928 -0.3754  0.0673 -0.2541
   32MOL     O6 7508   6.688   5.152   3.909 -0.3581  0.4604 -0.4498
   32MOL     H7 7509   6.974   4.964   3.739 -0.1395 -0.0632  1.0587
   32MOL     H8 7510   6.843   5.087   3.736 -0.8444 -0.0595 -0.1836
   32MOL     H9 7511   6.855   4.976   3.965 -0.1049  1.6428 -0.6498
   32MOL    H10 7512   6.417   5.050   3.832 -1.0005 -0.3182  0.1231
   32MOL    H11 7513   6.456   5.169   3.957 -1.4985  0.1514 -0.9170
   32MOL    H12 7514   6.421   5.001   4.004 -0.4397 -0.6728 -0.9102
   32MOL    H13 7515   6.817   4.925   3.673 -0.0344 -0.7254 -0.0981
   32MOL    C14 7516   6.861   4.769   3.889 -1.1154 -0.2966  0.5153
   32MOL    C15 7517   6.797   4.705   4.019 -0.1921  0.0818 -0.1001
   32MOL    O16 7518   6.847   4.577   4.033 -0.5582  0.7186 -0.5392
   32MOL    C17 7519   6.768   4.467   4.022 -0.3860  0.1739  0.3912
   32MOL    C18 7520   6.833   4.336   4.035  0.2771 -0.4499  0.5753
   32MOL    O19 7521   6.650   4.478   4.015  0.3481 -0.2094  0.6910
   32MOL    H20 7522   6.828   4.723   3.796 -0.5791  0.2502  0.0567
   32MOL    H21 7523   6.969   4.766   3.901 -0.9974  0.1511 -0.3868
   32MOL    H22 7524   6.689   4.693   4.007 -0.1886 -0.2986  0.2509
   32MOL    H23 7525   6.841   4.293   3.935  1.1168  0.2180  0.3467
   32MOL    H24 7526   6.762   4.279   4.094 -0.1859 -0.6769 -0.1974
   32MOL    H25 7527   6.928   4.336   4.089  1.1834  1.1619 -0.9435
   32MOL    C26 7528   6.826   4.781   4.153  0.1833  0.4154  0.3111
   32MOL    C27 7529   6.706   4.851   4.222 -0.5246 -0.6264 -0.4944
   32MOL    O28 7530   6.617   4.747   4.251 -0.0233  0.1642  0.1607
   32MOL    C29 7531   6.487   4.735   4.196 -0.0403  0.6199 -0.0804
   32MOL    C30 7532   6.392   4.628   4.257  0.3976 -0.3527 -0.4610
   32MOL    O31 7533   6.449   4.810   4.100 -0.3737 -0.0191  0.1345
   32MOL    H32 7534   6.858   4.709   4.228  1.8815  0.0788 -0.6976
   32MOL    H33 7535   6.917   4.841   4.141 -1.7977  3.1079 -2.1035
   32MOL    H34 7536   6.647   4.924   4.166  0.7726 -1.7742 -3.4692
   32MOL    H35 7537   6.391   4.656   4.363  2.0846 -1.6435 -0.0757
   32MOL    H36 7538   6.437   4.529   4.252  0.6217 -0.3620  1.3647
   32MOL    H37 7539   6.292   4.633   4.214  0.0110  1.6392  0.6186
   32MOL    C38 7540   6.752   4.912   4.358  0.2721 -0.2898  0.3155
   32MOL    C39 7541   6.834   5.041   4.339  0.1861  0.9067 -0.2148
   32MOL    O40 7542   6.747   5.131   4.280 -1.0238  0.0564 -0.0690
   32MOL    C41 7543   6.782   5.250   4.242  0.2662 -0.3368 -0.0724
   32MOL    C42 7544   6.663   5.338   4.203 -0.6315 -0.4167 -0.5103
   32MOL    O43 7545   6.896   5.296   4.241 -0.4051  0.4974  0.0479
   32MOL    H44 7546   6.660   4.921   4.416 -2.1628 -0.5246 -3.3270
   32MOL    H45 7547   6.818   4.840   4.407  0.4727 -0.4363 -0.1639
   32MOL    H46 7548   6.906   5.030   4.258  2.9205 -0.4183  2.2577
   32MOL    H47 7549   6.564   5.300   4.226 -0.1530 -0.9274  0.7384
   32MOL    H48 7550   6.671   5.360   4.096 -0.6006 -1.0639 -0.6417
   32MOL    H49 7551   6.683   5.432   4.255 -0.9347  0.5713 -2.1416
   32MOL    C50 7552   6.897   5.090   4.475 -0.3576  0.2013  0.3965
   32MOL    C51 7553   7.024   5.015   4.525 -0.5639 -0.1158  0.2564
   32MOL    O52 7554   6.999   4.883   4.552 -0.1286 -0.2379 -0.3138
   32MOL    C53 7555   6.980   4.835   4.678  0.0790  0.3664  0.5859
   32MOL    C54 7556   6.938   4.690   4.678 -0.3033 -0.3554  0.0388
   32MOL    O55 7557   7.000   4.893   4.783  0.5635  0.6852  0.0595
   32MOL    H56 7558   6.918   5.196   4.465 -4.3956  0.8371 -2.8172
   32MOL    H57 7559   6.821   5.086   4.553 -0.9887  2.8512 -0.0468
   32MOL    H58 7560   7.056   5.070   4.614 -1.4850  0.7877  0.0352
   32MOL    H59 7561   6.855   4.660   4.615  1.3837 -0.4876 -2.1874
   32MOL    H60 7562   6.913   4.664   4.781  1.2659  1.4074  0.9046
   32MOL    H61 7563   7.017   4.618   4.655 -1.4326 -1.3273 -0.7857
   32MOL    C62 7564   7.142   5.033   4.428  0.1446 -0.0337  0.6042
   32MOL    C63 7565   7.187   5.168   4.386 -0.2403 -0.2979  0.2309
   32MOL    O64 7566   7.209   5.236   4.510  0.3584 -0.1861 -0.5235
   32MOL    C65 7567   7.199   5.364   4.523  0.2613  1.3819 -1.2625
   32MOL    C66 7568   7.244   5.402   4.661 -0.2216 -0.3741 -0.4361
   32MOL    O67 7569   7.155   5.437   4.439 -0.4324 -0.3372 -0.0406
   32MOL    H68 7570   7.226   4.979   4.473  1.3121  0.6213 -0.7693
   32MOL    H69 7571   7.137   4.980   4.333  0.7815  0.3622  0.3453
   32MOL    H70 7572   7.112   5.219   4.325 -0.9166 -2.1182 -0.5063
   32MOL    H71 7573   7.162   5.433   4.725  0.7270 -0.2575  0.7363
   32MOL    H72 7574   7.312   5.486   4.648  0.5311 -0.5465  2.0708
   32MOL    H73 7575   7.298   5.317   4.702 -1.1778 -1.6319 -1.7516
   32MOL    C74 7576   7.330   5.164   4.319 -0.2536 -0.5525 -0.6794
   32MOL    C75 7577   7.319   5.119   4.170 -0.4896 -0.1237  0.5155
   32MOL    O76 7578   7.233   5.206   4.096  0.3091 -0.7827 -0.1328
   32MOL    C77 7579   7.131   5.159   4.024 -0.1004 -0.2283  0.6035
   32MOL    C78 7580   7.065   5.273   3.944 -0.1209 -0.4108 -0.5849
   32MOL    O79 7581   7.090   5.039   4.020  0.2943 -0.0223  0.0517
   32MOL    H80 7582   7.376   5.263   4.321 -4.6757  1.6543 -0.9876
   32MOL    H81 7583   7.406   5.104   4.369  1.0545  1.4647 -0.1981
   32MOL    H82 7584   7.279   5.017   4.173  2.0674 -1.1208  2.0763
   32MOL    H83 7585   7.036   5.353   4.012  0.3249 -1.9894  1.5252
   32MOL    H84 7586   6.969   5.244   3.903  0.0549 -0.1216 -1.1936
   32MOL    H85 7587   7.129   5.310   3.864  0.6254  1.2053  0.7372
   32MOL    C86 7588   7.455   5.113   4.103 -0.2167  0.8157  0.0701
   32MOL    C87 7589   7.459   5.078   3.950 -0.2289 -0.0959  0.0067
   32MOL    O88 7590   7.586   5.104   3.889  0.3001 -0.4152 -0.2752
   32MOL    C89 7591   7.621   5.227   3.857  0.5011 -0.3447 -0.2876
   32MOL    C90 7592   7.764   5.233   3.805  0.3214 -0.2643  0.1799
   32MOL    O91 7593   7.549   5.330   3.878  0.2921 -0.2259 -0.3851
   32MOL    H92 7594   7.505   5.209   4.118 -1.8545  1.6380  0.4184
   32MOL    H93 7595   7.527   5.044   4.147  0.2328  0.4833 -1.1376
   32MOL    H94 7596   7.393   5.145   3.895  0.6208  2.5138  2.0096
   32MOL    H95 7597   7.762   5.219   3.696 -1.2728 -1.0082  0.2908
   32MOL    H96 7598   7.830   5.156   3.844  0.7643  0.3850  0.7049
   32MOL    H97 7599   7.800   5.332   3.832  1.4355 -1.0626  1.6879
   32MOL    C98 7600   7.400   4.941   3.918  0.2111 -0.3523  0.6666
   32MOL    C99 7601   7.454   4.814   3.990  0.1521 -0.2163 -0.3942
   32MOL   O100 7602   7.326   4.743   4.008  0.5260  0.6504  0.6850
   32MOL   C101 7603   7.283   4.693   4.125 -0.5428  0.8278 -0.5205
   32MOL   C102 7604   7.153   4.615   4.100  0.2716  0.5651 -0.3539
   32MOL   O103 7605   7.338   4.713   4.237  0.4595 -0.5604  0.2617
   32MOL   H104 7606   7.292   4.947   3.930  0.4804  1.2647  2.5807
   32MOL   H105 7607   7.406   4.928   3.810  2.1572 -3.8047  1.1109
   32MOL   H106 7608   7.496   4.835   4.088  0.6147  0.2585 -0.6914
   32MOL   H107 7609   7.107   4.671   4.019  1.1334  0.1732 -1.1235
   32MOL   H108 7610   7.077   4.626   4.177  1.1506  1.4770  0.4045
   32MOL   H109 7611   7.169   4.511   4.073  4.0141  1.1930 -0.8245
   32MOL   C110 7612   7.564   4.747   3.909 -0.1441  0.2939 -0.5087
   32MOL   C111 7613   7.596   4.606   3.936  0.2309 -0.3049  0.1347
   32MOL   O112 7614   7.707   4.573   3.840 -0.2336 -0.0045  0.4154
   32MOL   C113 7615   7.694   4.482   3.745 -0.0591 -0.8723  1.1277
   32MOL   C114 7616   7.824   4.459   3.671  0.8489  0.5023 -0.0963
   32MOL   O115 7617   7.589   4.426   3.718 -0.2800  0.3819  0.5684
   32MOL   H116 7618   7.535   4.754   3.804 -1.8225 -2.1730 -0.2649
   32MOL   H117 7619   7.657   4.800   3.930 -0.3416  0.2422  0.4979
   32MOL   H118 7620   7.501   4.558   3.915 -0.2181  1.1720 -1.3360
   32MOL   H119 7621   7.837   4.354   3.645 -2.9867 -0.1104  0.1858
   32MOL   H120 7622   7.912   4.494   3.726  0.3544  1.3411  0.1581
   32MOL   H121 7623   7.829   4.509   3.575 -0.3576 -1.4639 -1.2078
   32MOL   C122 7624   7.632   4.577   4.083 -0.7769 -0.5327  0.1319
   32MOL   C123 7625   7.638   4.420   4.114 -0.4072 -0.7000 -0.1751
   32MOL   O124 7626   7.723   4.394   4.221  0.2580  0.5419 -0.0619
   32MOL   C125 7627   7.859   4.378   4.194 -0.4435 -0.3492  0.7383
   32MOL   C126 7628   7.947   4.396   4.311 -0.3080 -0.1683  0.2908
   32MOL   O127 7629   7.911   4.383   4.084  0.1776 -0.1132  0.1671
   32MOL   H128 7630   7.726   4.629   4.105 -0.8203 -0.0023 -0.8922
   32MOL   H129 7631   7.557   4.621   4.149 -0.6409 -1.1825  0.7251
   32MOL   H130 7632   7.654   4.370   4.019  0.8286  2.1689 -1.5188
   32MOL   H131 7633   8.001   4.491   4.309 -0.4640 -0.0719  0.6123
   32MOL   H132 7634   8.021   4.317   4.297 -0.3888 -0.3301  0.7778
   32MOL   H133 7635   7.894   4.362   4.400 -0.3362 -1.6782 -0.2854
   32MOL   C134 7636   7.503   4.364   4.171  0.6118 -0.2039  0.1431
   32MOL   C135 7637   7.496   4.213   4.147 -0.3619 -0.8337 -0.0788
   32MOL   O136 7638   7.397   4.170   4.243 -0.2314  0.1872  0.6715
   32MOL   C137 7639   7.435   4.077   4.332 -0.1015  0.2532  0.3915
   32MOL   C138 7640   7.345   4.074   4.457 -0.1622 -0.2264 -0.1485
   32MOL   O139 7641   7.547   4.032   4.344 -0.3039  0.0743 -0.3266
   32MOL   H140 7642   7.495   4.394   4.275  3.3563  1.7342 -0.1473
   32MOL   H141 7643   7.414   4.403   4.121  1.1919  0.2255 -0.5683
   32MOL   H142 7644   7.594   4.170   4.171 -0.2092 -0.2583  0.3213
   32MOL   H143 7645   7.331   3.969   4.482 -0.7178 -0.0535  0.2782
   32MOL   H144 7646   7.246   4.117   4.442  0.4469  1.0547 -0.6364
   32MOL   H145 7647   7.386   4.126   4.544  1.0423 -1.1063 -0.1755
   32MOL   C146 7648   7.449   4.170   4.006  0.0072 -0.2578 -0.0817
   32MOL   C147 7649   7.488   4.020   3.977 -0.4914 -0.3116  1.0309
   32MOL   O148 7650   7.390   3.929   4.040  0.2208  0.9100 -0.0277
   32MOL   C149 7651   7.423   3.807   4.080  0.4487  0.6193 -0.0793
   32MOL   C150 7652   7.318   3.744   4.164 -0.3214 -0.2712  0.2054
   32MOL   O151 7653   7.522   3.750   4.050  0.0954  0.1546 -0.4719
   32MOL   H152 7654   7.346   4.203   3.993 -0.3537 -1.8389 -1.3867
   32MOL   H153 7655   7.508   4.231   3.937  0.4845 -0.1449  0.4138
   32MOL   H154 7656   7.588   3.993   4.012 -0.0124 -1.1962 -0.9298
   32MOL   H155 7657   7.245   3.816   4.202  1.2055  0.2597  2.2013
   32MOL   H156 7658   7.373   3.698   4.246 -0.0987  0.6099  0.5630
   32MOL   H157 7659   7.256   3.664   4.124  2.6550 -1.7891 -1.5240
   32MOL   C158 7660   7.492   4.000   3.823 -0.1828 -0.1083 -1.4021
   32MOL   C159 7661   7.599   4.077   3.741  0.2296 -0.0614  0.0747
   32MOL   O160 7662   7.723   4.016   3.751  0.1302  0.2586  0.2384
   32MOL   C161 7663   7.813   4.063   3.841 -0.4255 -0.1260  0.2976
   32MOL   C162 7664   7.939   3.985   3.840 -0.3423 -0.5967 -0.1623
   32MOL   O163 7665   7.793   4.159   3.921 -0.5058  0.3812  0.0730
   32MOL   H164 7666   7.492   3.894   3.798 -1.1525 -0.4101 -0.2334
   32MOL   H165 7667   7.390   4.030   3.799 -0.3634 -0.2197 -0.7833
   32MOL   H166 7668   7.600   4.185   3.756 -0.4552 -0.1094  0.4757
   32MOL   H167 7669   7.929   3.902   3.910 -0.7518  0.3296  0.8985
   32MOL   H168 7670   0.006   4.048   3.854 -0.9301 -0.6109  4.5508
   32MOL   H169 7671   7.955   3.944   3.741 -1.6492  2.0349 -1.5079
   32MOL   C170 7672   7.542   4.068   3.592 -0.4490  0.0421 -0.1923
   32MOL   C171 7673   7.624   4.123   3.471 -0.1567  0.2169 -0.3911
   32MOL   O172 7674   7.725   4.037   3.424 -1.0563  0.0673 -0.0471
   32MOL   C173 7675   7.846   4.074   3.436 -0.5532  0.5333  0.3031
   32MOL   C174 7676   7.942   3.963   3.389  0.0725  0.9123 -0.6067
   32MOL   O175 7677   7.886   4.190   3.469  0.0291 -0.2984  0.0009
   32MOL   H176 7678   7.542   3.959   3.582  1.3546  0.1064 -1.0465
   32MOL   H177 7679   7.439   4.105   3.595 -0.5041 -0.2162  1.6360
   32MOL   H178 7680   7.667   4.219   3.498  0.5476 -0.1734 -0.1053
   32MOL   H179 7681   7.894   3.864   3.384 -0.5911  1.2321 -0.6621
   32MOL   H180 7682   8.016   3.953   3.468 -0.7313  1.6818  0.2613
   32MOL   H181 7683   7.991   3.990   3.296 -1.9613  0.8896 -1.7316
   32MOL   C182 7684   7.530   4.148   3.352  0.1392  0.3456 -0.1486
   32MOL   C183 7685   7.418   4.260   3.372 -0.5369  1.1295  0.3520
   32MOL   O184 7686   7.481   4.389   3.390  0.0167 -0.3496  0.1186
   32MOL   C185 7687   7.415   4.487   3.455 -0.2744  0.6556  0.1512
   32MOL   C186 7688   7.502   4.614   3.479  0.1100 -0.1766 -0.2310
   32MOL   O187 7689   7.299   4.479   3.498  0.1860 -0.2212 -0.1708
   32MOL   H188 7690   7.601   4.182   3.276 -0.5972  2.3613  0.0306
   32MOL   H189 7691   7.488   4.052   3.325  1.4654  0.3238 -2.2589
   32MOL   H190 7692   7.350   4.235   3.454 -0.6522  2.2905  0.6119
   32MOL   H191 7693   7.540   4.624   3.581 -0.8921  1.4780  0.0074
   32MOL   H192 7694   7.437   4.701   3.467 -0.3210 -0.5286 -0.4335
   32MOL   H193 7695   7.579   4.615   3.402 -1.5027  0.3088 -1.8820
   32MOL   C194 7696   7.329   4.260   3.241  0.2944  0.1664  0.3632
   32MOL   C195 7697   7.187   4.313   3.245 -0.4848 -0.2164 -0.2304
   32MOL   O196 7698   7.130   4.325   3.118  0.6648 -0.1732  0.2979
   32MOL   C197 7699   7.166   4.427   3.041 -0.5524  0.5024 -0.7153
   32MOL   C198 7700   7.083   4.432   2.914 -0.3402  0.2654 -0.7315
   32MOL   O199 7701   7.244   4.521   3.075 -0.5645  0.0524 -0.1603
   32MOL   H200 7702   7.388   4.306   3.161  0.6764 -1.4809 -0.3149
   32MOL   H201 7703   7.321   4.157   3.209  0.4338  0.7878 -1.7735
   32MOL   H202 7704   7.184   4.414   3.286 -4.2079  0.7346 -2.5502
   32MOL   H203 7705   7.096   4.352   2.842  0.7963  0.0725 -0.3247
   32MOL   H204 7706   7.106   4.529   2.868  0.6319  0.2878 -0.2121
   32MOL   H205 7707   6.979   4.428   2.945  0.0222  1.8929  0.7874
   32MOL   C206 7708   7.085   4.220   3.324 -0.2822  0.1091  0.2366
   32MOL   C207 7709   6.948   4.291   3.380  0.2283 -0.0184  0.0901
   32MOL   O208 7710   6.864   4.319   3.272 -0.1088  0.5680  0.0976
   32MOL   C209 7711   6.801   4.431   3.262 -0.1804 -0.5159 -0.3038
   32MOL   C210 7712   6.747   4.454   3.124  0.1526 -0.3851 -0.3119
   32MOL   O211 7713   6.798   4.526   3.344  0.0134  0.0735  0.7167
   32MOL   H212 7714   7.065   4.125   3.275 -0.8928  0.0383  0.6214
   32MOL   H213 7715   7.139   4.183   3.411  0.0045  1.6747  0.7420
   32MOL   H214 7716   6.970   4.382   3.436  0.6523  1.3031 -2.1748
   32MOL   H215 7717   6.677   4.536   3.114  1.5577  0.9300  0.3695
   32MOL   H216 7718   6.703   4.364   3.081  2.3053 -1.7301  0.1890
   32MOL   H217 7719   6.825   4.487   3.055 -0.8408  4.1771  0.6493
   32MOL   C218 7720   6.869   4.206   3.480 -0.2811 -0.0944  0.4909
   32MOL   C219 7721   6.942   4.131   3.595  0.5125 -0.1196 -0.1240
   32MOL   O220 7722   6.990   4.239   3.674 -0.6143  0.3417  0.4403
   32MOL   C221 7723   7.120   4.254   3.708  0.2522 -0.0329  0.2483
   32MOL   C222 7724   7.148   4.399   3.749  0.0180 -0.5531  0.0758
   32MOL   O223 7725   7.202   4.161   3.705 -0.4360  0.2315  0.2622
   32MOL   H224 7726   6.797   4.277   3.522  0.3722  1.1645 -0.5034
   32MOL   H225 7727   6.813   4.126   3.433 -0.3018 -0.3401  0.9295
   32MOL   H226 7728   7.021   4.073   3.548 -0.9422 -0.7419 -1.8428
   32MOL   H227 7729   7.120   4.478   3.681 -0.7254 -0.7095  0.2037
   32MOL   H228 7730   7.250   4.424   3.778  0.6141 -0.1634 -2.2756
   32MOL   H229 7731   7.100   4.410   3.846 -0.7139 -1.9962 -0.1116
   32MOL   C230 7732   6.848   4.032   3.675 -0.4721  0.3074 -0.2326
   32MOL   C231 7733   6.918   3.945   3.781  0.1668 -0.7705 -0.3314
   32MOL   O232 7734   6.950   4.014   3.905  0.1963  0.0092  0.3573
   32MOL   C233 7735   7.013   3.949   4.004  0.4038 -0.4543  0.0585
   32MOL   C234 7736   7.061   4.051   4.108 -0.2941  0.4495  0.3149
   32MOL   O235 7737   7.050   3.830   4.008  0.4315 -0.2662 -0.2025
   32MOL   H236 7738   6.767   4.089   3.720 -0.3523  0.1186  0.2290
   32MOL   H237 7739   6.798   3.969   3.602  1.3190  0.1811 -1.3818
   32MOL   H238 7740   7.010   3.908   3.735 -0.2948 -2.5549  0.1802
   32MOL   H239 7741   6.974   4.114   4.126  1.0480  2.4994 -0.2836
   32MOL   H240 7742   7.138   4.115   4.065 -0.2988 -0.5478 -1.1897
   32MOL   H241 7743   7.098   4.009   4.203  1.5153 -0.4223 -0.7385
   32MOL   H242 7744   6.862   3.854   3.799  0.1782 -0.6282  0.4036
   33MOL     C1 7745   5.895   0.489   0.502  0.4679  0.0449  0.7946
   33MOL     C2 7746   5.808   0.432   0.385 -0.5498 -0.2980  0.5273
   33MOL     O3 7747   5.725   0.330   0.443 -0.3585 -0.5321 -0.4150
   33MOL     C4 7748   5.716   0.212   0.375  0.5798 -0.3638 -0.6920
   33MOL     C5 7749   5.634   0.105   0.444 -0.4579  0.3814 -0.3617
   33MOL     O6 7750   5.774   0.176   0.270 -0.3082  0.4309 -0.0216
   33MOL     H7 7751   5.953   0.575   0.469  1.0354 -0.6609 -0.0459
   33MOL     H8 7752   5.958   0.406   0.533 -0.0258 -1.5938 -2.3465
   33MOL     H9 7753   5.874   0.387   0.311 -0.3667  0.1855  0.3959
   33MOL    H10 7754   5.531   0.129   0.469  0.2850  1.5293  1.6615
   33MOL    H11 7755   5.679   0.089   0.542 -1.4295  0.8851  0.1635
   33MOL    H12 7756   5.632   0.006   0.399 -1.9910  0.2679 -0.0441
   33MOL    H13 7757   5.833   0.530   0.582 -1.9814 -0.8767 -0.5539
   33MOL    C14 7758   5.726   0.547   0.319 -0.0421  0.2332  0.1017
   33MOL    C15 7759   5.663   0.504   0.184 -0.1582  0.2398  0.1692
   33MOL    O16 7760   5.590   0.616   0.134 -0.0361 -0.4016 -0.5952
   33MOL    C17 7761   5.472   0.640   0.187  0.1131  0.5053 -0.0381
   33MOL    C18 7762   5.407   0.759   0.132  0.2376  0.3627  0.0183
   33MOL    O19 7763   5.416   0.566   0.269  0.0831 -0.3894 -0.4402
   33MOL    H20 7764   5.647   0.578   0.388  1.1669  2.3805  0.5620
   33MOL    H21 7765   5.797   0.626   0.293 -0.5318 -0.0509 -2.2431
   33MOL    H22 7766   5.591   0.424   0.197 -1.7058  1.1102 -2.6071
   33MOL    H23 7767   5.406   0.750   0.024  0.0763  3.7774 -0.2944
   33MOL    H24 7768   5.462   0.851   0.147  0.9400  0.2803 -1.9790
   33MOL    H25 7769   5.303   0.771   0.163  0.1555  0.1294 -0.1655
   33MOL    C26 7770   5.754   0.465   0.079  0.3088  0.0434 -0.7807
   33MOL    C27 7771   5.673   0.407   7.984 -0.1774  0.5564  0.3486
   33MOL    O28 7772   5.761   0.422   7.867 -0.3734  0.1597  0.1599
   33MOL    C29 7773   5.735   0.506   7.768  0.0998 -0.1209  0.7858
   33MOL    C30 7774   5.856   0.519   7.679 -0.0162 -0.1831 -0.1812
   33MOL    O31 7775   5.629   0.579   7.756 -0.9907 -0.1066  0.0167
   33MOL    H32 7776   5.806   0.556   0.052  0.4504  0.9223  2.2482
   33MOL    H33 7777   5.831   0.401   0.121  0.8265  0.9602 -0.3145
   33MOL    H34 7778   5.583   0.463   7.960  0.4863  1.3942 -0.2106
   33MOL    H35 7779   5.930   0.577   7.733  0.7621 -0.7936 -0.5826
   33MOL    H36 7780   5.826   0.559   7.582 -1.7924 -0.5510  0.1935
   33MOL    H37 7781   5.890   0.417   7.665 -1.3580 -0.8147  0.9911
   33MOL    C38 7782   5.639   0.255   8.003 -0.3259  0.1016 -0.5018
   33MOL    C39 7783   5.552   0.174   7.896 -0.6155  0.0280 -0.6594
   33MOL    O40 7784   5.415   0.209   7.902 -0.3330  0.3468 -0.0976
   33MOL    C41 7785   5.323   0.129   7.977  0.5040  0.8709 -0.1813
   33MOL    C42 7786   5.177   0.138   7.930  0.3622 -0.3005 -0.0332
   33MOL    O43 7787   5.359   0.041   0.029  0.3807 -0.0793 -0.2791
   33MOL    H44 7788   5.738   0.209   8.016  0.1545  1.2154 -0.1590
   33MOL    H45 7789   5.595   0.235   0.079  0.7576 -2.1923 -0.4380
   33MOL    H46 7790   5.567   0.072   7.933  0.3016  0.8746  1.3468
   33MOL    H47 7791   5.165   0.136   7.822  0.1512  3.1835 -0.1190
   33MOL    H48 7792   5.135   0.235   7.958 -0.8398 -0.3690 -1.5015
   33MOL    H49 7793   5.105   0.077   7.983  1.0290 -1.7500 -0.7682
   33MOL    C50 7794   5.593   0.187   7.750 -0.2854 -0.1425  0.0009
   33MOL    C51 7795   5.550   0.077   7.655 -0.0095  0.3707 -0.3580
   33MOL    O52 7796   5.566   0.113   7.523  0.1541 -0.1331  0.3262
   33MOL    C53 7797   5.479   0.062   7.430 -0.4340  0.8143  0.5997
   33MOL    C54 7798   5.487   0.125   7.290 -0.5835 -0.4127  0.3552
   33MOL    O55 7799   5.387   8.005   7.459 -0.0956  0.2790  0.1967
   33MOL    H56 7800   5.561   0.283   7.710  0.0748 -0.3229 -0.7508
   33MOL    H57 7801   5.702   0.200   7.748 -0.3042 -0.0340 -0.4237
   33MOL    H58 7802   5.445   0.060   7.676 -0.3662  2.3112 -0.4717
   33MOL    H59 7803   5.578   0.182   7.273 -0.8923 -0.1296 -0.3969
   33MOL    H60 7804   5.401   0.192   7.295 -0.7137 -0.4840 -0.8726
   33MOL    H61 7805   5.477   0.057   7.205 -1.5049 -1.5136  1.3193
   33MOL    C62 7806   5.628   7.963   7.688  0.6782 -0.6719 -0.2763
   33MOL    C63 7807   5.773   7.961   7.697 -0.2828  0.1913  0.4187
   33MOL    O64 7808   5.811   7.932   7.830 -0.1717 -0.5104 -0.1822
   33MOL    C65 7809   5.882   8.013   7.904 -0.2047  0.6167 -0.3187
   33MOL    C66 7810   5.889   7.966   0.022  0.0369 -0.0643  0.1168
   33MOL    O67 7811   5.954   0.080   7.864 -0.1879  0.1810  0.2631
   33MOL    H68 7812   5.583   7.914   7.774 -1.4016  0.1250 -0.8828
   33MOL    H69 7813   5.592   7.898   7.608 -1.4763  1.3252 -0.9837
   33MOL    H70 7814   5.803   0.043   7.678  1.6227 -0.2010  1.1468
   33MOL    H71 7815   5.807   8.014   0.075  1.0089  1.0789  0.5852
   33MOL    H72 7816   5.976   7.992   0.082  0.4853 -0.9187 -0.1458
   33MOL    H73 7817   5.860   7.861   0.035  2.1291 -0.4548  1.8838
   33MOL    C74 7818   5.844   7.882   7.586  0.0362 -0.0874 -0.0056
   33MOL    C75 7819   5.993   7.907   7.570  0.1863 -0.1426 -0.1562
   33MOL    O76 7820   6.052   7.787   7.524 -0.0204  0.2818  0.0310
   33MOL    C77 7821   6.109   7.708   7.614 -1.1701 -0.3564  0.3070
   33MOL    C78 7822   6.192   7.609   7.547 -0.1330  0.3733 -0.0560
   33MOL    O79 7823   6.106   7.721   7.739  0.1309 -0.2680 -0.5924
   33MOL    H80 7824   5.837   7.774   7.600  0.8611  0.1082  2.1105
   33MOL    H81 7825   5.795   7.883   7.488  0.0179 -0.0694  0.0033
   33MOL    H82 7826   6.020   7.933   7.672 -3.1101 -0.9175  0.9730
   33MOL    H83 7827   6.215   7.533   7.622 -1.2372  0.0005 -0.0830
   33MOL    H84 7828   6.282   7.660   7.513 -0.6489  0.0008 -2.0026
   33MOL    H85 7829   6.155   7.550   7.463  2.3212 -0.4808 -0.5838
   33MOL    C86 7830   6.032   0.001   7.480  0.0249  0.5707 -0.4741
   33MOL    C87 7831   6.188   0.027   7.469 -0.0336 -0.5107 -0.2079
   33MOL    O88 7832   6.212   0.132   7.378  0.5612 -0.5956 -0.5944
   33MOL    C89 7833   6.265   0.108   7.252  0.2445 -0.5315 -0.2909
   33MOL    C90 7834   6.303   0.242   7.188 -0.1961 -0.0372 -0.0650
   33MOL    O91 7835   6.294   8.021   7.200 -0.4240 -0.0223 -0.3571
   33MOL    H92 7836   5.986   8.001   7.383  0.1031 -3.2211  0.2312
   33MOL    H93 7837   5.981   0.088   7.522 -0.2155 -0.1013  0.6460
   33MOL    H94 7838   6.228   7.957   7.424  2.6985 -1.6238  4.2284
   33MOL    H95 7839   6.279   0.328   7.250 -2.7579  0.5598 -1.7658
   33MOL    H96 7840   6.241   0.260   7.099 -0.7257  2.3759  0.7498
   33MOL    H97 7841   6.406   0.246   7.152 -0.2019  0.0987 -0.0660
   33MOL    C98 7842   6.265   0.048   7.604 -0.6461  0.3089  0.5254
   33MOL    C99 7843   6.415   0.082   7.590 -0.6115  0.3425 -0.5636
   33MOL   O100 7844   6.454   0.121   7.721 -0.0387 -0.2207 -0.1960
   33MOL   C101 7845   6.520   0.238   7.739 -0.5766 -0.1257  0.2240
   33MOL   C102 7846   6.555   0.268   7.884  0.0939 -0.0724  0.6305
   33MOL   O103 7847   6.542   0.321   7.654 -0.4461  0.5707  0.5089
   33MOL   H104 7848   6.210   0.126   7.657 -0.4738 -0.0153  1.1809
   33MOL   H105 7849   6.252   7.980   7.663 -2.5982 -1.2091 -2.0809
   33MOL   H106 7850   6.418   0.162   7.515  0.8538  0.5155 -0.3445
   33MOL   H107 7851   6.634   0.206   7.926  1.1370  1.8322  1.5815
   33MOL   H108 7852   6.472   0.252   7.952  0.5585  2.2450  1.7887
   33MOL   H109 7853   6.589   0.371   7.898 -0.4254  0.1604  0.1859
   33MOL   C110 7854   6.493   7.983   7.543  0.4510  0.9683 -0.0609
   33MOL   C111 7855   6.633   8.013   7.471 -0.3466 -0.8792  0.1985
   33MOL   O112 7856   6.710   7.892   7.450  0.9447  0.1660 -0.2779
   33MOL   C113 7857   6.819   7.865   7.532  0.3227  0.6305 -0.1924
   33MOL   C114 7858   6.863   7.715   7.509  0.0108 -0.0743 -0.1664
   33MOL   O115 7859   6.876   7.934   7.613  0.4866  0.0122 -0.1563
   33MOL   H116 7860   6.516   7.921   7.630 -0.2780  1.4900  0.5189
   33MOL   H117 7861   6.427   7.912   7.493  0.5152  1.9049 -1.4942
   33MOL   H118 7862   6.692   0.061   7.531 -2.3909 -0.1222  1.4251
   33MOL   H119 7863   6.965   7.706   7.544 -0.0037 -2.2831 -0.6552
   33MOL   H120 7864   6.855   7.699   7.401 -1.0899 -0.9939  0.0422
   33MOL   H121 7865   6.795   7.645   7.559 -1.3383  0.9609 -0.5023
   33MOL   C122 7866   6.618   0.064   7.338 -0.6406  0.2152  0.2528
   33MOL   C123 7867   6.759   0.095   7.269  0.5317  0.1702  0.2588
   33MOL   O124 7868   6.731   0.153   7.140  0.0155 -0.6656  0.3314
   33MOL   C125 7869   6.815   0.139   7.038 -0.3087  0.0848  0.2794
   33MOL   C126 7870   6.776   0.220   6.917  0.1823 -0.5666  0.5795
   33MOL   O127 7871   6.926   0.088   7.045  0.2147 -0.0280  0.2896
   33MOL   H128 7872   6.557   8.019   7.277  1.5172  1.4648 -3.4263
   33MOL   H129 7873   6.565   0.159   7.348  0.4167  0.6016  2.5456
   33MOL   H130 7874   6.807   8.021   7.250 -0.6883 -0.4441  0.2088
   33MOL   H131 7875   6.860   0.224   6.847  0.2069  1.6756  0.7169
   33MOL   H132 7876   6.759   0.326   6.932 -0.7697 -0.5228 -0.7510
   33MOL   H133 7877   6.689   0.171   6.873 -0.3001  0.4607  0.3838
   33MOL   C134 7878   6.844   0.197   7.347 -0.5429 -0.1584 -0.0162
   33MOL   C135 7879   6.779   0.328   7.400  0.3980  0.3455 -0.0142
   33MOL   O136 7880   6.875   0.392   7.483  0.1162 -0.1693  0.1486
   33MOL   C137 7881   6.885   0.342   7.602 -0.4974  0.0620 -0.3299
   33MOL   C138 7882   6.988   0.428   7.658 -0.4089  0.2914  0.2053
   33MOL   O139 7883   6.838   0.241   7.657  0.0382  0.4337  0.7498
   33MOL   H140 7884   6.890   0.130   7.419 -1.9673 -1.6254 -0.4660
   33MOL   H141 7885   6.927   0.236   7.288 -0.4716  1.4655  1.1058
   33MOL   H142 7886   6.694   0.294   7.459  0.6839  1.8353  1.2783
   33MOL   H143 7887   6.965   0.435   7.765  0.6105  3.8584  0.2664
   33MOL   H144 7888   6.991   0.532   7.627  1.3047 -0.2688 -1.6112
   33MOL   H145 7889   7.084   0.375   7.655 -1.0149 -0.7164 -1.6530
   33MOL   C146 7890   6.726   0.419   7.285 -0.9071  0.4402  0.8476
   33MOL   C147 7891   6.699   0.569   7.320  0.1917  0.1096  0.3936
   33MOL   O148 7892   6.654   0.629   7.197 -0.4475  0.4135 -0.3980
   33MOL   C149 7893   6.739   0.705   7.121 -0.4936  0.2412  0.2725
   33MOL   C150 7894   6.668   0.793   7.019  0.0473 -0.3036 -0.6670
   33MOL   O151 7895   6.855   0.700   7.126  0.1248 -0.1883 -0.6219
   33MOL   H152 7896   6.791   0.402   7.200 -1.8248 -1.5898  0.5326
   33MOL   H153 7897   6.633   0.383   7.240 -2.1345  4.1521  0.2261
   33MOL   H154 7898   6.799   0.603   7.348  0.6919 -1.3625  0.4185
   33MOL   H155 7899   6.617   0.739   6.939 -0.6284  0.0704 -0.4929
   33MOL   H156 7900   6.752   0.847   6.976  1.3992 -1.0904  0.9227
   33MOL   H157 7901   6.598   0.868   7.057 -3.0029 -0.7305 -5.1489
   33MOL   C158 7902   6.591   0.604   7.427 -0.4102  0.2274  0.1483
   33MOL   C159 7903   6.599   0.756   7.478  0.5680 -0.6960  0.2556
   33MOL   O160 7904   6.512   0.834   7.398  0.4804  0.3000  0.3878
   33MOL   C161 7905   6.563   0.935   7.322  0.1990 -0.1635  0.1017
   33MOL   C162 7906   6.463   1.015   7.238 -1.1762  0.1729 -0.4091
   33MOL   O163 7907   6.682   0.963   7.319 -0.0229 -0.3547  0.0136
   33MOL   H164 7908   6.496   0.589   7.376  0.3206 -2.0313 -0.6239
   33MOL   H165 7909   6.589   0.530   7.507 -0.8935  0.3592  0.2589
   33MOL   H166 7910   6.706   0.776   7.468  1.0914 -4.3986 -2.3413
   33MOL   H167 7911   6.376   0.949   7.232 -0.3967 -1.1208  1.7632
   33MOL   H168 7912   6.511   1.026   7.141  3.8713  0.7391  2.0013
   33MOL   H169 7913   6.433   1.107   7.289  1.9986  1.6048 -1.0046
   33MOL   C170 7914   6.581   0.775   7.623 -0.5068 -0.2384 -0.2249
   33MOL   C171 7915   6.444   0.748   7.682 -0.9699  0.4150 -0.8606
   33MOL   O172 7916   6.464   0.720   7.821 -0.1618  0.1297  0.5707
   33MOL   C173 7917   6.410   0.610   7.873  0.2774  0.1126 -0.6237
   33MOL   C174 7918   6.435   0.593   8.021  0.4735  0.0112  0.1890
   33MOL   O175 7919   6.332   0.541   7.812  0.3003 -0.2000 -0.0483
   33MOL   H176 7920   6.649   0.705   7.672 -0.8197  0.6617  1.5496
   33MOL   H177 7921   6.614   0.875   7.648  0.3572 -0.1667 -1.6524
   33MOL   H178 7922   6.416   0.661   7.622 -1.2123 -0.0894 -0.0190
   33MOL   H179 7923   6.506   0.670   0.032 -0.5462  0.8440  0.4619
   33MOL   H180 7924   6.485   0.500   0.027 -3.4167 -1.7722  1.5092
   33MOL   H181 7925   6.348   0.597   0.065 -2.2910 -0.6137 -3.3269
   33MOL   C182 7926   6.356   0.874   7.672 -0.0409  0.3969  0.2137
   33MOL   C183 7927   6.208   0.848   7.698  0.6276  0.1598 -0.2272
   33MOL   O184 7928   6.161   0.935   7.803  0.5695 -0.4048 -0.5439
   33MOL   C185 7929   6.116   0.882   7.919  0.2203  0.1376 -0.5796
   33MOL   C186 7930   6.118   0.979   0.007  0.4875 -0.3387  0.8416
   33MOL   O187 7931   6.068   0.765   7.935 -0.0891  0.0098  0.0194
   33MOL   H188 7932   6.411   0.946   7.733  0.2787  1.1241 -0.9151
   33MOL   H189 7933   6.366   0.916   7.572  0.4492 -0.1551  0.0216
   33MOL   H190 7934   6.199   0.746   7.737 -1.3066  1.9058  4.2885
   33MOL   H191 7935   6.020   1.023   0.022 -0.3260 -0.4515 -3.5384
   33MOL   H192 7936   6.188   1.060   8.008 -1.5242  1.1689 -0.1692
   33MOL   H193 7937   6.164   0.936   0.097  1.7840  2.6801  1.6762
   33MOL   C194 7938   6.115   0.855   7.578 -0.2029 -0.3277 -0.1532
   33MOL   C195 7939   6.128   0.743   7.467  0.6118  0.2454 -0.2315
   33MOL   O196 7940   6.113   0.627   7.538  0.2062 -0.0803 -0.5863
   33MOL   C197 7941   6.193   0.522   7.512  0.1128 -0.4706  0.7031
   33MOL   C198 7942   6.173   0.393   7.574  0.4498 -0.9759 -0.5021
   33MOL   O199 7943   6.274   0.519   7.424 -0.4801  0.3187 -0.0517
   33MOL   H200 7944   6.012   0.845   7.614 -0.0952 -0.6622  0.0691
   33MOL   H201 7945   6.123   0.958   7.543  0.5515  0.0162  0.9929
   33MOL   H202 7946   6.228   0.756   7.427  0.4972 -0.6301 -0.8039
   33MOL   H203 7947   6.272   0.353   7.597  0.1885 -0.6239  1.3527
   33MOL   H204 7948   6.123   0.325   7.505 -3.7289 -0.2584  1.6597
   33MOL   H205 7949   6.110   0.404   7.662  0.3215  0.2423 -0.7370
   33MOL   C206 7950   6.005   0.757   7.367 -0.4559 -0.0200 -0.0287
   33MOL   C207 7951   5.995   0.639   7.263 -0.0437  0.1397  0.3576
   33MOL   O208 7952   5.903   0.541   7.309  0.3558  0.2292  0.7471
   33MOL   C209 7953   5.917   0.414   7.273  0.3980  0.2802 -0.1749
   33MOL   C210 7954   5.840   0.318   7.364 -0.6094 -0.0715  0.9767
   33MOL   O211 7955   5.975   0.368   7.176  0.4464  0.3136  0.2853
   33MOL   H212 7956   5.911   0.757   7.423  1.1301  0.0622  2.6781
   33MOL   H213 7957   6.003   0.847   7.306 -1.7981  0.8541  1.2720
   33MOL   H214 7958   6.095   0.597   7.259  0.8074  2.0538  1.3078
   33MOL   H215 7959   5.908   0.246   7.408  0.8447  0.3369 -0.5537
   33MOL   H216 7960   5.761   0.266   7.310 -1.4307  1.3300  0.7961
   33MOL   H217 7961   5.794   0.386   7.436  0.2833  3.8282 -1.9240
   33MOL   C218 7962   5.951   0.683   7.126  0.2412 -0.2476  0.2430
   33MOL   C219 7963   6.055   0.755   7.046 -0.1365  0.1135  0.3466
   33MOL   O220 7964   6.145   0.652   6.993 -0.2252  0.1120  0.2733
   33MOL   C221 7965   6.270   0.640   7.027 -0.8855 -0.0155 -0.3386
   33MOL   C222 7966   6.335   0.511   6.990  0.6030  1.5143 -0.2482
   33MOL   O223 7967   6.336   0.725   7.091  0.2458  0.0307  0.5895
   33MOL   H224 7968   5.917   0.600   7.064 -1.0225  1.8634 -1.9981
   33MOL   H225 7969   5.861   0.744   7.136  1.4768  1.8421 -1.0096
   33MOL   H226 7970   6.105   0.828   7.109 -0.1973  0.0295  0.4924
   33MOL   H227 7971   6.409   0.473   7.061 -1.0073 -1.2146  0.0424
   33MOL   H228 7972   6.392   0.527   6.899  0.1320 -0.5419 -0.9451
   33MOL   H229 7973   6.258   0.434   6.982  0.8913  1.3926 -1.9172
   33MOL   C230 7974   6.001   0.836   6.926 -0.8263 -0.8382  0.9232
   33MOL   C231 7975   5.922   0.963   6.975 -0.2525 -0.4068 -0.2382
   33MOL   O232 7976   6.018   1.061   7.015  0.1800  0.1411 -0.0519
   33MOL   C233 7977   6.004   1.113   7.143  0.3399  0.4749  0.0317
   33MOL   C234 7978   6.102   1.226   7.170  0.2545  0.0467  0.2378
   33MOL   O235 7979   5.925   1.072   7.231 -0.0135 -0.1215 -0.5185
   33MOL   H236 7980   6.078   0.870   6.857 -0.2532 -0.4228  1.7644
   33MOL   H237 7981   5.929   0.778   6.869  1.4169 -2.6627 -0.1296
   33MOL   H238 7982   5.849   0.932   7.049 -1.5792  0.7945 -1.0352
   33MOL   H239 7983   6.199   1.216   7.122  1.1944  1.6646  1.7414
   33MOL   H240 7984   6.104   1.249   7.276 -2.8201 -2.4983  0.9403
   33MOL   H241 7985   6.044   1.305   7.121  2.4999  0.1056 -2.4481
   33MOL   H242 7986   5.867   1.004   6.890 -1.0486  0.5575  0.7382
   34MOL     C1 7987   1.720   2.639   4.060  0.3848 -0.7215  0.4102
   34MOL     C2 7988   1.842   2.724   4.112 -0.1994 -0.0955  0.2574
   34MOL     O3 7989   1.819   2.862   4.138  0.1647  0.7752 -0.1496
   34MOL     C4 7990   1.906   2.956   4.182  0.2756  0.1261 -0.5733
   34MOL     C5 7991   1.834   3.088   4.205  0.0855  0.5514  0.0541
   34MOL     O6 7992   2.023   2.936   4.216 -0.5022 -0.0544  0.3370
   34MOL     H7 7993   1.637   2.635   4.131  0.9402 -1.5726  1.0208
   34MOL     H8 7994   1.744   2.536   4.034  2.2955 -0.4723  1.1056
   34MOL     H9 7995   1.900   2.721   4.020  0.2392 -0.1319  0.5359
   34MOL    H10 7996   1.806   3.133   4.110  0.1267  0.3310 -0.0617
   34MOL    H11 7997   1.902   3.156   4.256 -2.2322  1.6508  1.8265
   34MOL    H12 7998   1.747   3.089   4.271 -0.0955 -1.8234 -0.1136
   34MOL    H13 7999   1.685   2.687   3.969 -0.8728  0.1448  1.3224
   34MOL    C14 8000   1.920   2.656   4.224 -0.7071  0.4296 -0.3124
   34MOL    C15 8001   1.843   2.646   4.361 -0.2440  0.7249  0.0577
   34MOL    O16 8002   1.763   2.533   4.360 -0.6009  0.1683 -0.3486
   34MOL    C17 8003   1.636   2.538   4.396  0.2203  1.0802  0.4839
   34MOL    C18 8004   1.571   2.407   4.416  0.2105  0.2271 -0.3285
   34MOL    O19 8005   1.570   2.637   4.398  0.2840 -1.2570  0.7151
   34MOL    H20 8006   1.954   2.558   4.189 -1.5902  0.3970 -1.1031
   34MOL    H21 8007   2.017   2.703   4.240 -0.9726  1.3865 -1.3949
   34MOL    H22 8008   1.779   2.734   4.367 -0.2398  0.6778  0.8066
   34MOL    H23 8009   1.541   2.381   4.315 -0.4721  1.2369 -0.3938
   34MOL    H24 8010   1.486   2.402   4.485  3.0103 -3.6161  3.0703
   34MOL    H25 8011   1.638   2.346   4.476 -1.5064  0.7897  2.2554
   34MOL    C26 8012   1.940   2.647   4.481 -0.0899  0.2581  0.6012
   34MOL    C27 8013   1.956   2.783   4.540  0.0951  0.6970  0.2708
   34MOL    O28 8014   1.841   2.813   4.612 -0.5480  0.0799 -0.1173
   34MOL    C29 8015   1.772   2.929   4.595  0.2507  0.0430  0.9174
   34MOL    C30 8016   1.632   2.923   4.664 -0.3970 -0.2992 -0.3371
   34MOL    O31 8017   1.810   3.029   4.532 -0.6951 -0.7072  0.2518
   34MOL    H32 8018   1.900   2.576   4.554  0.4027 -0.6995 -0.0515
   34MOL    H33 8019   2.034   2.602   4.448 -0.3193 -0.1127  0.4628
   34MOL    H34 8020   1.960   2.846   4.451 -2.5108 -0.6249 -0.8002
   34MOL    H35 8021   1.594   2.822   4.647 -1.2441  0.1858 -1.4491
   34MOL    H36 8022   1.563   2.990   4.612 -0.8961  1.1019  2.0502
   34MOL    H37 8023   1.618   2.946   4.769  0.4360  0.5626 -0.4071
   34MOL    C38 8024   2.080   2.790   4.630 -0.2067 -0.6047  0.0133
   34MOL    C39 8025   2.106   2.937   4.674 -0.2968 -0.2932 -0.4373
   34MOL    O40 8026   2.182   2.928   4.801  1.0679  0.4840 -0.0322
   34MOL    C41 8027   2.124   2.918   4.920 -0.8779 -0.0492  0.6010
   34MOL    C42 8028   2.216   2.862   5.033  0.1413 -0.1398 -0.5145
   34MOL    O43 8029   2.006   2.934   4.946 -0.1526  0.0172 -0.1078
   34MOL    H44 8030   2.066   2.728   4.718  0.3279 -0.5850  0.1160
   34MOL    H45 8031   2.169   2.750   4.581 -1.0511  0.0430 -2.1377
   34MOL    H46 8032   2.013   2.989   4.700  0.6410  0.3615  1.7247
   34MOL    H47 8033   2.266   2.770   5.001  0.0615 -0.5810  0.6287
   34MOL    H48 8034   2.154   2.834   5.118 -0.0590  0.2040 -0.5484
   34MOL    H49 8035   2.304   2.922   5.053  0.6687 -0.3731 -1.9963
   34MOL    C50 8036   2.177   3.025   4.568  0.4597 -0.5366 -0.5995
   34MOL    C51 8037   2.134   3.174   4.567 -0.1736 -0.1936  0.6488
   34MOL    O52 8038   2.171   3.241   4.685  0.0201 -0.0290 -0.1127
   34MOL    C53 8039   2.080   3.258   4.778  0.2372  0.1108 -0.3987
   34MOL    C54 8040   2.132   3.311   4.906 -0.5864 -0.0609 -0.2838
   34MOL    O55 8041   1.960   3.236   4.772  0.1019  0.1265 -0.2815
   34MOL    H56 8042   2.282   3.021   4.595  1.0375 -2.3121 -2.9296
   34MOL    H57 8043   2.164   2.984   4.468  0.5444 -1.0455 -0.4044
   34MOL    H58 8044   2.027   3.174   4.551  0.0364 -1.6217 -0.9846
   34MOL    H59 8045   2.222   3.260   4.939  1.0889  2.4548 -0.7966
   34MOL    H60 8046   2.054   3.308   4.982  1.3813  2.0610  1.9187
   34MOL    H61 8047   2.165   3.414   4.887 -1.9643  0.4715  0.1443
   34MOL    C62 8048   2.201   3.259   4.456 -0.2318 -0.4289 -0.0338
   34MOL    C63 8049   2.145   3.404   4.443 -0.0836 -0.3690  0.4982
   34MOL    O64 8050   2.229   3.470   4.342 -0.3534 -0.1661 -0.1839
   34MOL    C65 8051   2.278   3.598   4.360  0.1180 -0.0506 -0.2178
   34MOL    C66 8052   2.355   3.651   4.240 -0.2154 -0.3954  0.6690
   34MOL    O67 8053   2.261   3.671   4.461 -0.4637 -0.4416  0.0729
   34MOL    H68 8054   2.309   3.259   4.476 -0.3395  2.1350  0.7560
   34MOL    H69 8055   2.179   3.225   4.355 -2.2271  1.8179 -0.3916
   34MOL    H70 8056   2.163   3.461   4.535  0.3548 -0.7872  0.6747
   34MOL    H71 8057   2.410   3.564   4.203  0.0296 -0.8367  2.0242
   34MOL    H72 8058   2.421   3.732   4.272  1.4675 -0.5675 -2.1905
   34MOL    H73 8059   2.291   3.688   4.160  0.1834 -2.0667 -0.4570
   34MOL    C74 8060   2.011   3.414   4.390  0.0706 -0.2219 -0.1915
   34MOL    C75 8061   1.907   3.449   4.497 -0.3237  0.1647 -0.4244
   34MOL    O76 8062   1.891   3.589   4.519  0.0594  0.0450 -0.1877
   34MOL    C77 8063   1.962   3.653   4.616  0.2929  0.0386  0.0005
   34MOL    C78 8064   1.932   3.802   4.621  0.3579 -0.0516 -0.3196
   34MOL    O79 8065   2.038   3.598   4.701 -0.1298 -0.2718  0.6376
   34MOL    H80 8066   1.998   3.478   4.303 -1.5410 -0.2426  0.0063
   34MOL    H81 8067   1.991   3.312   4.357 -2.2067  0.0298  0.3290
   34MOL    H82 8068   1.934   3.394   4.587 -0.2745  1.8700  0.6415
   34MOL    H83 8069   2.002   3.859   4.682  0.1532 -1.3858  1.1941
   34MOL    H84 8070   1.835   3.811   4.669 -1.3187 -1.8284 -3.2124
   34MOL    H85 8071   1.916   3.840   4.520 -2.7745 -1.1656 -0.2957
   34MOL    C86 8072   1.768   3.409   4.450  0.3565 -0.1437 -0.6946
   34MOL    C87 8073   1.652   3.440   4.551  0.9006  0.4464 -0.0764
   34MOL    O88 8074   1.541   3.367   4.501  0.5150 -0.4099 -0.2765
   34MOL    C89 8075   1.461   3.416   4.408  0.0303 -0.2313  0.0140
   34MOL    C90 8076   1.346   3.314   4.371  0.1555  0.2625  0.0329
   34MOL    O91 8077   1.472   3.523   4.352  0.0280 -0.1643  0.3079
   34MOL    H92 8078   1.744   3.475   4.366  0.1313  0.6585 -0.0156
   34MOL    H93 8079   1.759   3.308   4.411  1.5875 -1.0681  1.3316
   34MOL    H94 8080   1.626   3.546   4.558 -1.9415 -0.3255  2.1523
   34MOL    H95 8081   1.274   3.306   4.452 -1.1828 -0.2246 -1.1839
   34MOL    H96 8082   1.388   3.214   4.361  0.2832  0.4023 -0.8786
   34MOL    H97 8083   1.301   3.335   4.274  0.4736  0.5039 -0.0647
   34MOL    C98 8084   1.667   3.400   4.697 -0.3581  0.4954 -0.7236
   34MOL    C99 8085   1.664   3.522   4.792  0.1842 -0.1897  0.2662
   34MOL   O100 8086   1.547   3.602   4.758 -0.1417  0.2471  0.2495
   34MOL   C101 8087   1.546   3.740   4.789  0.2002  0.6467  0.2454
   34MOL   C102 8088   1.424   3.815   4.739  0.0302  0.5097  0.0921
   34MOL   O103 8089   1.630   3.802   4.851  0.0340  0.0410 -0.1721
   34MOL   H104 8090   1.589   3.329   4.724  1.2654 -0.7113  0.9290
   34MOL   H105 8091   1.756   3.338   4.706 -0.7363 -0.0734 -0.8616
   34MOL   H106 8092   1.759   3.576   4.786  1.0160 -1.6170  0.4453
   34MOL   H107 8093   1.336   3.813   4.803  1.2872 -1.3294  1.8487
   34MOL   H108 8094   1.396   3.790   4.637 -0.8083 -1.0727  0.6813
   34MOL   H109 8095   1.439   3.923   4.744 -1.8501  0.8031 -0.1362
   34MOL   C110 8096   1.646   3.469   4.939 -0.3218 -0.2603  0.0808
   34MOL   C111 8097   1.764   3.380   4.986 -0.2639  0.0017 -0.1300
   34MOL   O112 8098   1.881   3.457   5.016 -0.3096 -0.6528 -0.3764
   34MOL   C113 8099   1.892   3.529   5.121  0.1508 -0.2772  0.2876
   34MOL   C114 8100   2.021   3.610   5.120 -0.5650 -0.3536 -0.2203
   34MOL   O115 8101   1.813   3.536   5.215 -0.1730 -0.5435  0.2555
   34MOL   H116 8102   1.614   3.555   4.998  1.9700  0.3725  0.4699
   34MOL   H117 8103   1.564   3.398   4.930 -0.1532 -0.2364 -2.0663
   34MOL   H118 8104   1.789   3.315   4.903  1.4707  2.0319 -1.2611
   34MOL   H119 8105   2.038   3.658   5.023 -3.0125  1.5641  0.2373
   34MOL   H120 8106   2.108   3.550   5.145 -0.6806 -0.7349 -0.7343
   34MOL   H121 8107   2.027   3.682   5.201 -0.1187  3.1905 -3.2624
   34MOL   C122 8108   1.722   3.283   5.100 -0.8206  0.5005  0.1397
   34MOL   C123 8109   1.824   3.175   5.160 -0.6009 -0.7966 -0.2303
   34MOL   O124 8110   1.920   3.239   5.244 -0.1162  0.0013 -0.9168
   34MOL   C125 8111   2.050   3.198   5.259  0.3656  0.0091  0.2214
   34MOL   C126 8112   2.128   3.287   5.352 -0.2272 -0.0372  0.1342
   34MOL   O127 8113   2.089   3.103   5.199 -0.1541  0.1709  0.5126
   34MOL   H128 8114   1.676   3.342   5.178  2.0875  1.5790  1.0910
   34MOL   H129 8115   1.643   3.218   5.063  0.4737  0.0399 -1.9428
   34MOL   H130 8116   1.867   3.122   5.075  1.4327  0.5370 -0.0668
   34MOL   H131 8117   2.150   3.232   5.443 -0.3792 -0.0586  0.1575
   34MOL   H132 8118   2.070   3.373   5.386 -1.4150 -0.4413 -0.8615
   34MOL   H133 8119   2.226   3.309   5.309 -1.3844  0.3908 -2.3440
   34MOL   C134 8120   1.755   3.081   5.252  0.6205 -0.4198 -0.3349
   34MOL   C135 8121   1.766   2.934   5.205  0.1220 -0.6235  0.0525
   34MOL   O136 8122   1.728   2.847   5.313  0.0714 -0.1203  0.6017
   34MOL   C137 8123   1.795   2.738   5.350 -0.4022 -0.1941  0.0361
   34MOL   C138 8124   1.732   2.654   5.459  0.0334  0.0545 -0.0062
   34MOL   O139 8125   1.905   2.705   5.310 -0.7712 -0.2076 -0.2852
   34MOL   H140 8126   1.788   3.093   5.355 -0.5605 -0.0670  0.0186
   34MOL   H141 8127   1.650   3.107   5.267  0.0697 -2.1832 -1.0761
   34MOL   H142 8128   1.870   2.907   5.182 -0.1099 -1.1467 -0.3898
   34MOL   H143 8129   1.662   2.705   5.525 -1.4097 -0.8022 -0.8429
   34MOL   H144 8130   1.818   2.626   5.520 -0.1098 -0.7151 -0.1575
   34MOL   H145 8131   1.698   2.566   5.405 -1.0136  0.4411  0.0113
   34MOL   C146 8132   1.676   2.906   5.082 -0.3629 -0.1947 -0.2214
   34MOL   C147 8133   1.665   2.757   5.042  0.1001  0.0542 -0.0594
   34MOL   O148 8134   1.570   2.740   4.940  0.2778 -0.1211 -0.2209
   34MOL   C149 8135   1.440   2.716   4.971  0.2608 -0.2061  0.2901
   34MOL   C150 8136   1.350   2.715   4.844 -0.7403 -0.7387  0.2891
   34MOL   O151 8137   1.391   2.691   5.084  0.4953  0.2443 -0.2234
   34MOL   H152 8138   1.580   2.940   5.122 -0.8528 -1.7916 -0.0201
   34MOL   H153 8139   1.712   2.968   5.000 -1.0667  2.0274  1.0855
   34MOL   H154 8140   1.637   2.699   5.130  0.5111  1.2868  0.8999
   34MOL   H155 8141   1.286   2.802   4.829 -2.2839 -1.9621 -0.3469
   34MOL   H156 8142   1.289   2.626   4.832 -0.9396 -0.9039  2.3968
   34MOL   H157 8143   1.404   2.725   4.749 -2.5263  5.6478 -0.2922
   34MOL   C158 8144   1.794   2.707   4.980  0.3331  0.3749  0.3319
   34MOL   C159 8145   1.800   2.555   4.960  0.2187 -0.3401 -0.5790
   34MOL   O160 8146   1.936   2.525   4.933 -0.2748 -0.2589  0.0424
   34MOL   C161 8147   1.969   2.436   4.844 -0.1089  0.3925  0.0267
   34MOL   C162 8148   2.113   2.448   4.800 -0.1516  0.3404 -0.3486
   34MOL   O163 8149   1.894   2.369   4.785  0.0968  0.1712  0.1921
   34MOL   H164 8150   1.818   2.764   4.891  1.6011 -0.5178  0.0759
   34MOL   H165 8151   1.871   2.729   5.055  0.2477 -0.8400  0.7946
   34MOL   H166 8152   1.731   2.522   4.882 -1.0062  0.4720  0.1634
   34MOL   H167 8153   2.113   2.462   4.692 -0.6782  0.5561 -0.3251
   34MOL   H168 8154   2.145   2.348   4.829 -2.7483 -0.1485  1.0743
   34MOL   H169 8155   2.164   2.527   4.854 -0.6644  0.8461 -0.6008
   34MOL   C170 8156   1.773   2.474   5.090 -0.2443  0.0767  0.7742
   34MOL   C171 8157   1.768   2.319   5.075 -0.7212  0.5244 -0.4562
   34MOL   O172 8158   1.899   2.263   5.106 -0.5482  0.0102 -0.9202
   34MOL   C173 8159   1.942   2.151   5.055 -0.2210 -0.5276 -0.1783
   34MOL   C174 8160   2.085   2.121   5.078  0.3307  0.7697 -0.7285
   34MOL   O175 8161   1.867   2.080   4.990  0.3681  0.2884 -0.0278
   34MOL   H176 8162   1.839   2.504   5.172  0.5324  3.4001 -0.9576
   34MOL   H177 8163   1.675   2.502   5.128 -0.0960  1.0867  0.4371
   34MOL   H178 8164   1.738   2.302   4.972 -1.0907 -1.2949 -0.0720
   34MOL   H179 8165   2.129   2.078   4.988 -1.0714 -0.3648 -0.8947
   34MOL   H180 8166   2.104   2.061   5.166 -1.6342 -1.5220 -1.8004
   34MOL   H181 8167   2.136   2.217   5.089 -2.7967  2.5868 -1.2966
   34MOL   C182 8168   1.655   2.250   5.159 -0.3684  0.5720 -0.1255
   34MOL   C183 8169   1.516   2.265   5.100  0.6618 -0.3054  0.5129
   34MOL   O184 8170   1.509   2.193   4.985  0.0585 -0.8889 -0.1453
   34MOL   C185 8171   1.496   2.258   4.866  0.9172  0.0065 -0.0034
   34MOL   C186 8172   1.495   2.158   4.748  0.2186  0.7510 -0.1630
   34MOL   O187 8173   1.495   2.382   4.858 -0.5231  0.0230 -0.1990
   34MOL   H188 8174   1.673   2.143   5.173  0.8824  0.5482 -1.7840
   34MOL   H189 8175   1.643   2.289   5.260  2.4062 -0.0377  0.4571
   34MOL   H190 8176   1.496   2.372   5.090  1.4476  0.0940  2.8116
   34MOL   H191 8177   1.392   2.139   4.717  0.5378 -2.3276  0.5851
   34MOL   H192 8178   1.542   2.069   4.789 -0.2677  0.5887  0.0493
   34MOL   H193 8179   1.545   2.184   4.655 -0.4454 -3.3714 -1.7751
   34MOL   C194 8180   1.407   2.207   5.196 -0.1983  0.2160 -0.6243
   34MOL   C195 8181   1.260   2.235   5.147  0.3070  0.8147  0.1778
   34MOL   O196 8182   1.166   2.174   5.239 -0.2932  0.1831  0.3038
   34MOL   C197 8183   1.112   2.059   5.190  0.4523  0.7029 -0.3137
   34MOL   C198 8184   0.975   2.011   5.249  0.3125 -0.7065  0.3667
   34MOL   O199 8185   1.141   1.999   5.087  0.0316  0.1529  0.1495
   34MOL   H200 8186   1.418   2.099   5.204  0.0731  0.2976  0.0655
   34MOL   H201 8187   1.409   2.248   5.296 -0.6645  1.0148 -0.9398
   34MOL   H202 8188   1.247   2.207   5.043 -1.8030 -0.3704  0.7311
   34MOL   H203 8189   0.964   2.034   5.355  0.6435  0.6976  0.1068
   34MOL   H204 8190   0.945   1.911   5.218 -0.6578 -0.6248  1.0410
   34MOL   H205 8191   0.908   2.083   5.204  0.7045  0.8677  2.2339
   34MOL   C206 8192   1.230   2.386   5.164 -0.0852  0.5650 -0.7885
   34MOL   C207 8193   1.106   2.443   5.095  0.3353 -0.3008 -0.4502
   34MOL   O208 8194   1.114   2.583   5.093  0.1886 -0.0529  0.4301
   34MOL   C209 8195   1.039   2.672   5.162 -0.6975 -0.7507  0.1822
   34MOL   C210 8196   1.058   2.815   5.124 -0.6223 -0.9396  0.0397
   34MOL   O211 8197   0.952   2.648   5.248 -0.3357 -0.3726 -0.0030
   34MOL   H212 8198   1.229   2.413   5.270 -1.4680 -0.2418 -0.5742
   34MOL   H213 8199   1.322   2.438   5.138  0.7807 -0.2537  0.5811
   34MOL   H214 8200   1.021   2.419   5.159  0.9904  0.7556  0.8371
   34MOL   H215 8201   1.158   2.855   5.143 -0.2950 -1.5436 -0.3923
   34MOL   H216 8202   0.992   2.879   5.183 -2.2017 -1.1556 -1.4612
   34MOL   H217 8203   1.042   2.825   5.017  1.7332  0.9166 -0.1809
   34MOL   C218 8204   1.069   2.389   4.960 -0.0502  0.0753  0.2552
   34MOL   C219 8205   0.921   2.424   4.933 -0.6879 -0.4547 -0.4444
   34MOL   O220 8206   0.901   2.440   4.790 -0.6012  0.6616 -0.2315
   34MOL   C221 8207   0.821   2.531   4.742  0.8459  0.0635  0.7707
   34MOL   C222 8208   0.815   2.525   4.590 -0.0563 -0.3680  0.3876
   34MOL   O223 8209   0.757   2.616   4.800 -0.1509  0.4539  0.4041
   34MOL   H224 8210   1.132   2.430   4.881  0.7912 -0.5986  0.5671
   34MOL   H225 8211   1.078   2.281   4.960 -1.2744 -0.0274 -0.3709
   34MOL   H226 8212   0.908   2.519   4.985 -0.4117 -0.8487  0.3671
   34MOL   H227 8213   0.754   2.604   4.546 -1.1826 -0.6342  1.4648
   34MOL   H228 8214   0.765   2.431   4.562  0.3303 -0.8059  1.1712
   34MOL   H229 8215   0.917   2.521   4.552  0.3020 -1.4816  1.4435
   34MOL   C230 8216   0.821   2.318   4.979  0.1165 -0.6147  0.1337
   34MOL   C231 8217   0.848   2.173   4.932  0.5973  0.3434 -0.4993
   34MOL   O232 8218   0.839   2.164   4.787 -0.0586 -0.0534  0.1691
   34MOL   C233 8219   0.940   2.125   4.704 -0.0602  0.6401  0.1233
   34MOL   C234 8220   0.884   2.106   4.562  0.2340  0.2940 -0.2248
   34MOL   O235 8221   1.056   2.105   4.747 -0.3653 -0.2829  0.0655
   34MOL   H236 8222   0.836   2.305   5.086  1.0495 -0.8649 -0.0250
   34MOL   H237 8223   0.717   2.345   4.962  0.6036  0.3709 -1.3553
   34MOL   H238 8224   0.763   2.115   4.968 -0.2100  1.4274 -0.6321
   34MOL   H239 8225   0.948   2.031   4.515 -0.4560 -0.2009 -0.3752
   34MOL   H240 8226   0.887   2.197   4.502  0.6276 -0.0720 -0.7722
   34MOL   H241 8227   0.780   2.074   4.570 -0.2104  1.3664 -1.4084
   34MOL   H242 8228   0.936   2.117   4.964 -0.1657 -0.4882  0.1700
   35MOL     C1 8229   3.811   5.017   7.831  0.4470 -0.7096  0.0867
   35MOL     C2 8230   3.952   4.956   7.845 -0.0906 -1.1350  0.5486
   35MOL     O3 8231   4.002   4.980   7.976  0.1489  0.0462 -0.3345
   35MOL     C4 8232   4.082   5.085   8.013  0.1791  0.4232  0.1744
   35MOL     C5 8233   4.131   5.082   0.135  0.1203 -0.1770 -0.2189
   35MOL     O6 8234   4.127   5.170   7.938  0.1128  0.3480  0.1730
   35MOL     H7 8235   3.787   5.050   7.730  0.6520 -0.7240  0.0316
   35MOL     H8 8236   3.784   5.094   7.903 -1.1336 -0.5286 -0.6839
   35MOL     H9 8237   4.013   4.992   7.762 -0.7464 -1.5632 -0.1304
   35MOL    H10 8238   4.181   5.176   0.163 -2.9092  1.4670 -0.1732
   35MOL    H11 8239   4.201   4.999   0.141 -1.8474 -1.9368 -1.1504
   35MOL    H12 8240   4.052   5.071   0.209  1.2636 -1.2134  0.8826
   35MOL    H13 8241   3.736   4.943   7.858 -1.0938  1.7201  2.6961
   35MOL    C14 8242   3.940   4.805   7.815  0.3332  0.6960  0.0803
   35MOL    C15 8243   4.065   4.714   7.856  0.0454  0.0434 -0.0416
   35MOL    O16 8244   4.025   4.574   7.849 -0.3786 -0.3142  0.3342
   35MOL    C17 8245   4.021   4.509   7.968  0.9677  0.2674 -0.0197
   35MOL    C18 8246   3.971   4.367   7.949 -0.3914 -0.1804 -0.2768
   35MOL    O19 8247   4.048   4.558   0.056  0.5996  0.2679  0.1843
   35MOL    H20 8248   3.847   4.764   7.853  0.0462 -0.5328 -1.8551
   35MOL    H21 8249   3.927   4.804   7.707  0.5099 -0.6464  0.0527
   35MOL    H22 8250   4.082   4.746   7.959  0.4693  0.7100 -0.3140
   35MOL    H23 8251   3.933   4.344   0.027 -1.7993  1.3946 -0.4264
   35MOL    H24 8252   4.056   4.302   7.929 -0.3407 -0.0885 -0.3584
   35MOL    H25 8253   3.884   4.349   7.885  0.6406 -0.8505 -1.5037
   35MOL    C26 8254   4.195   4.728   7.766 -0.2734 -0.5165 -0.5127
   35MOL    C27 8255   4.295   4.839   7.823  0.2120 -0.7705  0.4990
   35MOL    O28 8256   4.318   4.828   7.960 -0.0153 -0.0435 -0.1717
   35MOL    C29 8257   4.387   4.715   8.008  0.1743 -0.0133  0.6661
   35MOL    C30 8258   4.435   4.730   0.131  0.0399  0.1778  0.0394
   35MOL    O31 8259   4.415   4.611   7.949  0.0721  0.8605  0.0821
   35MOL    H32 8260   4.250   4.635   7.758  1.2489  0.1792  1.2509
   35MOL    H33 8261   4.166   4.760   7.666  0.6760 -2.4419 -1.4136
   35MOL    H34 8262   4.242   4.931   7.798  2.7566  1.4592  2.8487
   35MOL    H35 8263   4.543   4.721   0.142 -0.1719  0.6161  2.7021
   35MOL    H36 8264   4.394   4.653   0.196 -0.6976  0.4784 -0.0621
   35MOL    H37 8265   4.406   4.829   0.166 -2.7817  1.0160 -4.2673
   35MOL    C38 8266   4.429   4.862   7.749 -0.5416  0.6980  0.0682
   35MOL    C39 8267   4.413   4.931   7.610 -0.9399  0.2955 -1.0227
   35MOL    O40 8268   4.419   5.074   7.633 -0.0399 -0.0765 -0.2524
   35MOL    C41 8269   4.299   5.142   7.627  0.4275 -0.7873  0.3593
   35MOL    C42 8270   4.318   5.293   7.639 -0.1402  0.1152 -0.2135
   35MOL    O43 8271   4.189   5.093   7.618 -0.0978 -0.7184 -0.0312
   35MOL    H44 8272   4.490   4.935   7.803  1.3947  0.1967 -1.3895
   35MOL    H45 8273   4.490   4.772   7.750  3.7181  3.4589  1.3101
   35MOL    H46 8274   4.321   4.904   7.559 -1.4720  0.7703 -0.3174
   35MOL    H47 8275   4.237   5.354   7.597 -1.8076 -1.4842  0.5877
   35MOL    H48 8276   4.402   5.331   7.581 -0.8426 -0.8001 -1.8736
   35MOL    H49 8277   4.335   5.322   7.742  1.8475 -1.4078 -0.1011
   35MOL    C50 8278   4.531   4.896   7.516  0.4369  0.0323  0.4880
   35MOL    C51 8279   4.549   4.752   7.476 -0.9735  0.8716  0.1648
   35MOL    O52 8280   4.434   4.711   7.402  0.0124  0.1854  0.0584
   35MOL    C53 8281   4.387   4.585   7.423 -0.4806 -0.1164  0.3535
   35MOL    C54 8282   4.249   4.569   7.352 -0.6817 -0.3676  0.1274
   35MOL    O55 8283   4.444   4.497   7.492  0.2003 -0.0741 -0.5674
   35MOL    H56 8284   4.508   4.952   7.425  0.7533 -2.2228 -1.0249
   35MOL    H57 8285   4.625   4.939   7.550 -0.2436  0.6426  1.6298
   35MOL    H58 8286   4.566   4.691   7.564 -2.7825  0.0496 -0.0294
   35MOL    H59 8287   4.174   4.546   7.428 -2.1433 -1.8171 -1.6683
   35MOL    H60 8288   4.258   4.478   7.292 -1.9112 -0.8511  0.6623
   35MOL    H61 8289   4.227   4.659   7.294 -0.6074  0.6009  1.5742
   35MOL    C62 8290   4.666   4.737   7.374 -0.1273 -0.5114  0.1639
   35MOL    C63 8291   4.803   4.792   7.431  0.8376  0.4498 -0.2904
   35MOL    O64 8292   4.818   4.710   7.550 -0.3033 -0.4112 -0.4395
   35MOL    C65 8293   4.821   4.757   7.665  0.5560  0.1465 -0.0790
   35MOL    C66 8294   4.831   4.657   7.770  0.4551  0.4518  0.1413
   35MOL    O67 8295   4.800   4.869   7.700 -0.1151 -0.0557  0.1286
   35MOL    H68 8296   4.685   4.635   7.340  0.1224 -0.1255 -0.8612
   35MOL    H69 8297   4.630   4.791   7.287  0.4208  0.1897  0.3711
   35MOL    H70 8298   4.798   4.897   7.460 -0.3567  0.2884  0.1374
   35MOL    H71 8299   4.836   4.553   7.737 -2.2227  0.0333  0.8729
   35MOL    H72 8300   4.741   4.670   7.831  1.9640 -0.9529  2.7358
   35MOL    H73 8301   4.924   4.675   7.823  0.7498  0.6811 -0.4524
   35MOL    C74 8302   4.924   4.775   7.343 -0.0161  0.3672  0.0562
   35MOL    C75 8303   5.048   4.849   7.400  0.5275 -0.0732 -0.3445
   35MOL    O76 8304   5.163   4.778   7.353  0.2981  0.2121 -0.2079
   35MOL    C77 8305   5.223   4.682   7.425 -0.1049 -0.2835  0.5031
   35MOL    C78 8306   5.346   4.619   7.361  0.2362 -0.4160  0.0848
   35MOL    O79 8307   5.185   4.646   7.532  0.7158 -0.1722  0.2907
   35MOL    H80 8308   4.929   4.667   7.334  1.3881  0.2834  1.5439
   35MOL    H81 8309   4.903   4.825   7.249  2.3056  1.8938  0.2975
   35MOL    H82 8310   5.048   4.861   7.508  1.9652 -1.2205 -0.1976
   35MOL    H83 8311   5.346   4.510   7.369 -0.0877 -0.3648  0.7887
   35MOL    H84 8312   5.434   4.663   7.407 -0.0379  2.3742 -1.9427
   35MOL    H85 8313   5.352   4.648   7.256  1.0986  2.7124  0.9521
   35MOL    C86 8314   5.066   4.989   7.332  0.1806  0.5655 -0.1698
   35MOL    C87 8315   4.945   5.088   7.353 -0.9551  0.4050  0.7778
   35MOL    O88 8316   4.910   5.120   7.488  0.8449 -0.0692 -0.0563
   35MOL    C89 8317   4.783   5.159   7.509  0.3343  0.1534  0.3511
   35MOL    C90 8318   4.769   5.203   7.654 -0.4706 -0.5964  0.0610
   35MOL    O91 8319   4.687   5.157   7.432  0.3348  0.1643 -0.0026
   35MOL    H92 8320   5.152   5.025   7.389  0.1229  1.1207 -0.4338
   35MOL    H93 8321   5.102   4.976   7.230  1.1937  2.1678 -0.0281
   35MOL    H94 8322   4.863   5.040   7.299  0.2458 -1.4449  0.5739
   35MOL    H95 8323   4.671   5.194   7.700 -0.0585  2.3573  1.6695
   35MOL    H96 8324   4.782   5.311   7.659  3.1773 -0.9796  0.5701
   35MOL    H97 8325   4.847   5.159   7.716 -0.4600  1.0870  1.2765
   35MOL    C98 8326   4.970   5.217   7.275  0.0802  0.2272  0.1621
   35MOL    C99 8327   4.983   5.213   7.121  0.3426  0.1691 -0.1207
   35MOL   O100 8328   4.858   5.213   7.058 -0.5482  0.3652  0.1285
   35MOL   C101 8329   4.804   5.094   7.025 -0.5066  0.4386 -0.0699
   35MOL   C102 8330   4.681   5.113   6.937  0.1504 -0.2402  0.3546
   35MOL   O103 8331   4.848   4.983   7.058  0.0883 -0.0136 -0.3996
   35MOL   H104 8332   4.898   5.295   7.302 -0.7156 -0.5280  0.2386
   35MOL   H105 8333   5.061   5.264   7.313 -0.1672  0.6731  0.2145
   35MOL   H106 8334   5.044   5.125   7.098  0.3189 -0.6534  2.8438
   35MOL   H107 8335   4.583   5.105   6.985 -0.8194  0.8617 -1.3971
   35MOL   H108 8336   4.685   5.022   6.878 -0.2453 -0.6276  0.9175
   35MOL   H109 8337   4.683   5.209   6.885  0.3900  0.2744  1.2820
   35MOL   C110 8338   5.053   5.336   7.062  0.8067  0.0404  0.3633
   35MOL   C111 8339   5.197   5.365   7.113 -0.5159 -0.1559 -0.0624
   35MOL   O112 8340   5.276   5.258   7.071  0.3559  0.6059  0.0387
   35MOL   C113 8341   5.351   5.188   7.154 -0.6963  0.3038 -0.4141
   35MOL   C114 8342   5.458   5.101   7.090 -0.0688 -0.5650  0.5412
   35MOL   O115 8343   5.341   5.191   7.276 -0.5260 -0.6978  0.2995
   35MOL   H116 8344   5.061   5.319   6.955 -0.3621 -0.4919  0.3587
   35MOL   H117 8345   4.988   5.423   7.073  0.6563  0.0528 -0.6208
   35MOL   H118 8346   5.200   5.379   7.221 -1.6418 -1.5043  0.1592
   35MOL   H119 8347   5.552   5.151   7.112 -0.2089 -0.3654  0.6884
   35MOL   H120 8348   5.438   5.103   6.983  1.4020 -1.1259  0.2492
   35MOL   H121 8349   5.452   5.001   7.132  1.0582 -0.5213  0.8102
   35MOL   C122 8350   5.252   5.482   7.038  0.1040  0.3359  0.3798
   35MOL   C123 8351   5.402   5.523   7.070  0.6469 -0.7535 -0.0804
   35MOL   O124 8352   5.455   5.583   6.957 -0.0619  0.5889 -0.4587
   35MOL   C125 8353   5.536   5.518   6.866 -0.3474 -0.4516  0.4595
   35MOL   C126 8354   5.602   5.620   6.771  0.0457  0.2401  0.7067
   35MOL   O127 8355   5.572   5.401   6.865 -0.7453 -0.4280  0.1619
   35MOL   H128 8356   5.243   5.467   6.931 -1.6075  1.8890  0.2867
   35MOL   H129 8357   5.195   5.570   7.067 -1.2904 -0.0889 -1.0461
   35MOL   H130 8358   5.457   5.433   7.098  1.3950 -0.6328 -1.1399
   35MOL   H131 8359   5.575   5.718   6.809 -0.9778  0.2429 -0.0073
   35MOL   H132 8360   5.563   5.609   6.670 -1.6214 -2.9260  1.6514
   35MOL   H133 8361   5.708   5.595   6.777  0.2481  1.1563  0.9910
   35MOL   C134 8362   5.413   5.619   7.191 -0.0964  0.3754  0.4334
   35MOL   C135 8363   5.548   5.642   7.255  0.2680 -1.1301 -0.1676
   35MOL   O136 8364   5.634   5.691   7.153 -0.4968  0.1994  0.0770
   35MOL   C137 8365   5.750   5.629   7.133  0.4013 -0.3200 -0.1974
   35MOL   C138 8366   5.827   5.702   7.019 -0.2139 -0.7535  0.0733
   35MOL   O139 8367   5.802   5.522   7.184  0.2181 -0.5110 -0.1080
   35MOL   H140 8368   5.371   5.714   7.158 -0.7211  0.1933  0.7004
   35MOL   H141 8369   5.354   5.578   7.273  2.7683 -2.7484  1.0805
   35MOL   H142 8370   5.587   5.552   7.302  1.8366 -0.8932 -0.9762
   35MOL   H143 8371   5.870   5.623   6.957 -1.5972 -2.0024  0.6709
   35MOL   H144 8372   5.901   5.772   7.057 -0.0755 -1.0326  0.3171
   35MOL   H145 8373   5.751   5.755   6.961  0.4664 -0.4199 -0.5200
   35MOL   C146 8374   5.529   5.753   7.361 -0.8561  0.1664  0.4991
   35MOL   C147 8375   5.648   5.767   7.457 -0.6235  0.0227 -0.1398
   35MOL   O148 8376   5.668   5.908   7.467  0.6858  0.9736  0.0205
   35MOL   C149 8377   5.764   5.967   7.387  0.5802 -0.0153  0.0977
   35MOL   C150 8378   5.790   6.112   7.439 -0.7012  0.3692 -0.3861
   35MOL   O151 8379   5.834   5.921   7.298 -0.4606 -0.2309  0.0122
   35MOL   H152 8380   5.507   5.849   7.315  0.7398 -1.1516 -3.2287
   35MOL   H153 8381   5.440   5.734   7.422 -0.6562 -1.2934  0.3649
   35MOL   H154 8382   5.733   5.721   7.408  0.0025 -0.2464  1.1826
   35MOL   H155 8383   5.797   6.131   7.546  3.1183  2.3547 -0.8946
   35MOL   H156 8384   5.727   6.188   7.392 -0.0382  0.5226 -1.0278
   35MOL   H157 8385   5.889   6.137   7.401 -0.8656 -0.0784 -1.1174
   35MOL   C158 8386   5.639   5.738   7.603 -0.2415 -0.2115  0.5111
   35MOL   C159 8387   5.636   5.588   7.643 -0.1664 -0.0105 -0.3264
   35MOL   O160 8388   5.653   5.575   7.787 -0.0710 -0.6200  0.0644
   35MOL   C161 8389   5.762   5.512   7.840 -0.5702 -0.0912 -0.7448
   35MOL   C162 8390   5.753   5.500   7.995  0.0937  0.3104  0.0007
   35MOL   O163 8391   5.857   5.454   7.784 -0.1557  0.4208 -0.1712
   35MOL   H164 8392   5.715   5.794   7.657  1.1279 -0.2475 -1.3692
   35MOL   H165 8393   5.547   5.777   7.648  0.0856  1.4700 -0.2568
   35MOL   H166 8394   5.720   5.543   7.590  0.1736  0.4459 -0.1727
   35MOL   H167 8395   5.654   5.490   0.017 -0.2789 -1.0024 -1.1044
   35MOL   H168 8396   5.784   5.597   0.011  0.6465  0.9054 -1.8975
   35MOL   H169 8397   5.827   5.427   0.006 -1.3953 -1.3428 -0.2477
   35MOL   C170 8398   5.505   5.513   7.602 -0.3417 -0.1317  0.2844
   35MOL   C171 8399   5.487   5.368   7.639  0.2535  0.5115 -0.2197
   35MOL   O172 8400   5.352   5.332   7.614 -0.1389 -0.0892 -0.0460
   35MOL   C173 8401   5.274   5.278   7.707 -0.1173 -0.2793  0.2946
   35MOL   C174 8402   5.150   5.225   7.650  0.1339  0.0749  1.1851
   35MOL   O175 8403   5.303   5.258   7.827 -0.1223  0.0055 -0.4608
   35MOL   H176 8404   5.413   5.567   7.627 -0.1706 -0.1210  0.9061
   35MOL   H177 8405   5.495   5.518   7.494 -2.2315  0.6427  0.4692
   35MOL   H178 8406   5.507   5.350   7.745 -1.7838 -0.7757 -0.0357
   35MOL   H179 8407   5.156   5.117   7.639  1.2351  0.3393 -1.0034
   35MOL   H180 8408   5.127   5.280   7.559 -1.3393 -3.4414 -0.7037
   35MOL   H181 8409   5.069   5.253   7.719  1.0970  2.3699  1.4311
   35MOL   C182 8410   5.583   5.284   7.549 -0.4926  1.3584 -0.5508
   35MOL   C183 8411   5.603   5.147   7.609 -1.0796  0.7179  0.2663
   35MOL   O184 8412   5.653   5.062   7.502 -0.4473 -0.0576 -0.1984
   35MOL   C185 8413   5.592   4.941   7.476  0.1451 -0.3775 -0.1152
   35MOL   C186 8414   5.661   4.872   7.358 -0.2336  0.6888 -0.0041
   35MOL   O187 8415   5.501   4.886   7.538 -0.3087  0.0833  1.0151
   35MOL   H188 8416   5.541   5.273   7.449 -2.3352 -1.3726  0.4697
   35MOL   H189 8417   5.682   5.330   7.544 -0.6567  1.7474 -0.3063
   35MOL   H190 8418   5.506   5.104   7.637 -0.0730 -1.3535  0.6954
   35MOL   H191 8419   5.768   4.882   7.376 -0.4918 -0.6926  2.5578
   35MOL   H192 8420   5.644   4.924   7.264  1.5788  0.3955 -0.5028
   35MOL   H193 8421   5.628   4.769   7.349  0.1018  0.5809 -0.0032
   35MOL   C194 8422   5.684   5.136   7.733 -0.5110 -0.0714 -0.1430
   35MOL   C195 8423   5.681   4.995   7.808 -0.2854  0.5297 -0.0527
   35MOL   O196 8424   5.789   4.992   7.900 -0.1422 -0.3459  0.3868
   35MOL   C197 8425   5.880   4.889   7.903 -0.4832 -0.0280  0.3714
   35MOL   C198 8426   5.974   4.904   8.020 -0.0699 -0.3515  0.1175
   35MOL   O199 8427   5.886   4.793   7.831  0.1566  0.2649  0.2404
   35MOL   H200 8428   5.782   5.181   7.714 -0.4321 -0.0320  0.3373
   35MOL   H201 8429   5.648   5.204   7.811  1.9966  0.9592  0.1672
   35MOL   H202 8430   5.703   4.922   7.731 -0.3897  1.3115 -0.8403
   35MOL   H203 8431   5.945   4.831   0.074 -0.0391 -1.1535 -0.6302
   35MOL   H204 8432   5.975   5.008   0.029 -0.0912 -0.0190 -0.9867
   35MOL   H205 8433   6.070   4.862   7.988 -1.0724 -3.1642  0.6431
   35MOL   C206 8434   5.553   4.972   7.882  0.0453 -0.3283 -0.2402
   35MOL   C207 8435   5.520   4.825   7.924  0.4496  0.0439 -0.1607
   35MOL   O208 8436   5.390   4.818   7.980 -0.3425  0.2024  0.3167
   35MOL   C209 8437   5.367   4.879   0.077  0.3804  0.0620  1.0672
   35MOL   C210 8438   5.230   4.851   0.133 -0.4445 -0.0185  0.7392
   35MOL   O211 8439   5.453   4.950   0.137  0.2545  0.2081 -0.1366
   35MOL   H212 8440   5.542   5.050   7.958 -1.3444  1.0695 -1.8399
   35MOL   H213 8441   5.470   4.992   7.815 -0.0523 -0.6132 -0.2055
   35MOL   H214 8442   5.592   4.794   8.000 -0.1341 -0.3943  0.2200
   35MOL   H215 8443   5.227   4.778   0.214  1.0758 -1.6718 -0.6427
   35MOL   H216 8444   5.163   4.813   0.056  0.0269 -0.9757  0.7912
   35MOL   H217 8445   5.193   4.947   0.168 -0.6838  0.1690 -0.0256
   35MOL   C218 8446   5.532   4.731   7.800 -0.1409  0.4437  0.1053
   35MOL   C219 8447   5.505   4.582   7.835 -0.1931 -0.1646  0.0419
   35MOL   O220 8448   5.363   4.568   7.830  0.4196  0.5345  0.4443
   35MOL   C221 8449   5.301   4.505   7.924  0.2075  0.6476 -0.0313
   35MOL   C222 8450   5.151   4.519   7.906 -0.1991  1.5600  0.1488
   35MOL   O223 8451   5.346   4.449   0.005 -0.3160  0.0838  0.2566
   35MOL   H224 8452   5.460   4.762   7.724  0.3667  2.1608  0.2951
   35MOL   H225 8453   5.630   4.734   7.753  0.2000  1.4504  0.8585
   35MOL   H226 8454   5.540   4.568   7.937 -2.9138 -0.1286  1.0170
   35MOL   H227 8455   5.091   4.548   7.992  2.6168  3.1557  1.6660
   35MOL   H228 8456   5.103   4.436   7.855  3.9233 -0.8042 -0.1324
   35MOL   H229 8457   5.134   4.612   7.852 -2.0895  0.9448 -0.3601
   35MOL   C230 8458   5.571   4.488   7.735 -0.0329 -0.2029 -0.2491
   35MOL   C231 8459   5.717   4.456   7.764 -0.6503  0.4297  0.4849
   35MOL   O232 8460   5.760   4.371   7.659 -0.3895  0.0224  0.3425
   35MOL   C233 8461   5.886   4.318   7.671 -0.5616  0.6074 -0.2965
   35MOL   C234 8462   5.931   4.253   7.542 -0.1830 -0.3084  0.0888
   35MOL   O235 8463   5.958   4.323   7.771  0.3025  0.2726 -0.1456
   35MOL   H236 8464   5.517   4.395   7.723  1.3633 -1.1111  0.3521
   35MOL   H237 8465   5.563   4.530   7.635  1.6365  0.7907 -0.0007
   35MOL   H238 8466   5.731   4.403   7.858  0.8498 -0.4804 -0.2511
   35MOL   H239 8467   6.039   4.252   7.530 -0.2623  1.1431 -0.8205
   35MOL   H240 8468   5.888   4.309   7.459  1.6924 -0.3278 -0.9071
   35MOL   H241 8469   5.898   4.149   7.535 -0.1751 -0.3145  0.1387
   35MOL   H242 8470   5.773   4.549   7.768  0.1870  0.1800 -3.1416
   36MOL     C1 8471   4.696   0.155   5.252  0.0524 -0.1672  0.1498
   36MOL     C2 8472   4.557   0.179   5.197  0.4387 -0.2132  0.6729
   36MOL     O3 8473   4.512   0.312   5.217  0.4769  0.3069 -0.0110
   36MOL     C4 8474   4.484   0.363   5.338  0.2092  0.9023  0.0403
   36MOL     C5 8475   4.477   0.512   5.313  0.4685 -0.3841  0.2985
   36MOL     O6 8476   4.469   0.307   5.443  0.9073 -0.2724  0.0501
   36MOL     H7 8477   4.733   0.055   5.274  0.6364  0.1117  0.4546
   36MOL     H8 8478   4.704   0.203   5.350 -0.5488  3.2433 -1.3988
   36MOL     H9 8479   4.495   0.109   5.254  0.7497 -2.2128 -1.3846
   36MOL    H10 8480   4.463   0.561   5.409  0.9482  0.5078 -0.0848
   36MOL    H11 8481   4.391   0.540   5.252 -0.4987 -1.2620  1.2277
   36MOL    H12 8482   4.558   0.554   5.254  1.2230 -0.2087  1.4400
   36MOL    H13 8483   4.775   0.196   5.189 -0.1024 -0.0006  0.0645
   36MOL    C14 8484   4.543   0.127   5.052  0.7773  0.0534  0.3809
   36MOL    C15 8485   4.398   0.085   5.008 -0.1087 -0.4053 -0.4131
   36MOL    O16 8486   4.329   0.206   4.983  0.0832 -0.4646 -0.3197
   36MOL    C17 8487   4.211   0.239   5.041  0.5416  0.4917 -0.5432
   36MOL    C18 8488   4.158   0.372   4.992  0.2526  0.0765 -0.6151
   36MOL    O19 8489   4.165   0.179   5.138 -0.3024  0.2029  0.3317
   36MOL    H20 8490   4.583   0.204   4.986  2.1629  0.7552  1.9969
   36MOL    H21 8491   4.608   0.040   5.062 -0.9873 -1.1928  1.3740
   36MOL    H22 8492   4.352   0.022   5.083 -0.8794  0.9556  0.2909
   36MOL    H23 8493   4.169   0.455   5.062 -2.5488 -0.0648  0.0669
   36MOL    H24 8494   4.053   0.350   4.973 -0.3056  1.4519  0.7598
   36MOL    H25 8495   4.196   0.403   4.894  1.5276  1.4219  0.2765
   36MOL    C26 8496   4.403   8.021   4.882 -0.4015  0.1147 -0.2557
   36MOL    C27 8497   4.273   7.941   4.858  0.6057 -1.1131 -0.3123
   36MOL    O28 8498   4.166   0.006   4.819  0.7017 -0.0170  0.2072
   36MOL    C29 8499   4.040   7.986   4.826 -0.6711  0.2320 -0.4675
   36MOL    C30 8500   3.936   0.066   4.813  0.1409  0.5898 -0.8354
   36MOL    O31 8501   4.015   7.869   4.844  0.1000  0.4400  0.6830
   36MOL    H32 8502   4.420   0.072   4.802  4.8324 -3.3943 -2.6100
   36MOL    H33 8503   4.490   7.956   4.892 -1.1668 -0.8737  0.0593
   36MOL    H34 8504   4.245   7.902   4.955  0.4895 -0.1262  0.0526
   36MOL    H35 8505   3.916   0.094   4.710 -2.4993 -0.9992 -0.8167
   36MOL    H36 8506   3.954   0.160   4.864 -0.2062 -0.3256  1.0139
   36MOL    H37 8507   3.847   0.014   4.849  0.0398  0.5188 -1.1822
   36MOL    C38 8508   4.303   7.823   4.764  0.1090  0.7297 -0.8747
   36MOL    C39 8509   4.319   7.855   4.615 -0.8883 -0.2119 -1.0667
   36MOL    O40 8510   4.419   7.944   4.601  0.0660  0.0080 -0.1136
   36MOL    C41 8511   4.405   0.039   4.533  0.1884 -0.5970 -0.6667
   36MOL    C42 8512   4.515   0.137   4.556  0.1696 -0.2427 -0.3269
   36MOL    O43 8513   4.310   0.067   4.463 -0.0769  0.7418  0.1882
   36MOL    H44 8514   4.394   7.774   4.798  0.1246  2.3228  1.4964
   36MOL    H45 8515   4.222   7.751   4.771  0.8179 -0.2574 -2.5070
   36MOL    H46 8516   4.223   7.898   4.588 -1.7777 -1.9026 -0.6482
   36MOL    H47 8517   4.608   0.102   4.601 -1.1620 -2.4745  0.6975
   36MOL    H48 8518   4.471   0.221   4.610  0.6280 -0.1218 -0.1346
   36MOL    H49 8519   4.537   0.193   4.465  0.2419  0.0969 -0.1039
   36MOL    C50 8520   4.351   7.740   4.518 -0.1061  0.2902 -0.0449
   36MOL    C51 8521   4.258   7.617   4.515  0.5431  0.6068 -0.1618
   36MOL    O52 8522   4.283   7.555   4.389 -0.2166  0.1715  0.0199
   36MOL    C53 8523   4.205   7.552   4.283  0.2141 -0.1240  0.1343
   36MOL    C54 8524   4.241   7.446   4.179  0.2914  0.7209  0.7950
   36MOL    O55 8525   4.121   7.639   4.262  0.1226  0.5538 -0.0390
   36MOL    H56 8526   4.339   7.785   4.420 -0.1476 -2.6654 -1.4613
   36MOL    H57 8527   4.456   7.714   4.536 -0.6267  0.3074  3.3901
   36MOL    H58 8528   4.152   7.635   4.533  0.6373  1.6956 -0.6227
   36MOL    H59 8529   4.221   7.488   4.081  0.5277  0.7488  0.7589
   36MOL    H60 8530   4.180   7.356   4.192  2.1537 -0.7637 -0.3433
   36MOL    H61 8531   4.350   7.437   4.179  0.2648  0.3703 -0.6761
   36MOL    C62 8532   4.287   7.513   4.625  0.5872 -0.0606 -0.1177
   36MOL    C63 8533   4.164   7.420   4.660  0.0790 -0.1706 -0.4354
   36MOL    O64 8534   4.042   7.479   4.695 -1.2872  0.7665  0.4738
   36MOL    C65 8535   4.026   7.513   4.817 -0.2123 -0.3218  0.4656
   36MOL    C66 8536   3.891   7.570   4.833 -0.5769  0.0808 -0.3806
   36MOL    O67 8537   4.109   7.516   4.907 -0.0730 -0.5720 -0.2180
   36MOL    H68 8538   4.370   7.447   4.598  0.4068  0.0029 -0.8185
   36MOL    H69 8539   4.324   7.563   4.714  0.3724 -0.9166  0.4570
   36MOL    H70 8540   4.200   7.373   4.752 -0.3554 -2.1181 -1.2375
   36MOL    H71 8541   3.814   7.504   4.793 -1.6355  1.2232 -0.2271
   36MOL    H72 8542   3.885   7.659   4.771  0.9022 -0.7301 -1.7524
   36MOL    H73 8543   3.872   7.586   4.939  1.7731  2.9654 -0.3328
   36MOL    C74 8544   4.137   7.303   4.562  1.0621 -0.2105  0.0019
   36MOL    C75 8545   4.258   7.205   4.536  0.5519 -0.4231  0.0015
   36MOL    O76 8546   4.306   7.176   4.663  0.2948 -0.1476 -0.5182
   36MOL    C77 8547   4.438   7.158   4.681  0.3795 -0.4887 -0.1145
   36MOL    C78 8548   4.465   7.127   4.826  0.8688  0.0348 -0.4855
   36MOL    O79 8549   4.520   7.141   4.590  0.1060  0.1211 -0.3034
   36MOL    H80 8550   4.068   7.240   4.617  0.9757  0.6454  0.8871
   36MOL    H81 8551   4.094   7.345   4.471  0.1745  0.7111  0.8288
   36MOL    H82 8552   4.330   7.260   4.475  2.0366 -2.6983 -0.3612
   36MOL    H83 8553   4.394   7.070   4.885  0.3277  0.8677 -0.3233
   36MOL    H84 8554   4.480   7.218   4.884  1.8536 -1.5628  1.8206
   36MOL    H85 8555   4.562   7.077   4.822  0.0472 -1.5886 -0.3447
   36MOL    C86 8556   4.202   7.084   4.446 -0.4641  0.5620 -1.1291
   36MOL    C87 8557   4.302   6.987   4.387  0.0550  0.0302  0.0826
   36MOL    O88 8558   4.223   6.876   4.332  0.2953 -0.5369  0.2317
   36MOL    C89 8559   4.238   6.745   4.376  0.0332 -1.0580 -0.1707
   36MOL    C90 8560   4.156   6.646   4.299 -0.5607  0.6365 -0.3669
   36MOL    O91 8561   4.319   6.712   4.455  0.1538  0.4393  0.5737
   36MOL    H92 8562   4.134   7.037   4.517 -0.3354  1.4036 -0.4345
   36MOL    H93 8563   4.132   7.120   4.371 -0.6163 -0.8886 -1.6952
   36MOL    H94 8564   4.363   6.956   4.472 -0.4097  1.7329  1.0597
   36MOL    H95 8565   4.064   6.694   4.265 -0.2106  0.4736 -1.5722
   36MOL    H96 8566   4.128   6.562   4.362  3.2390 -0.0603  0.4928
   36MOL    H97 8567   4.215   6.602   4.219 -0.8092 -1.7590  0.7475
   36MOL    C98 8568   4.388   7.055   4.279  0.2521 -0.8451 -0.2809
   36MOL    C99 8569   4.535   7.012   4.278 -0.8190 -0.5232  0.7526
   36MOL   O100 8570   4.551   6.885   4.225  0.5950 -0.4851 -0.0608
   36MOL   C101 8571   4.527   6.856   4.096 -0.7330 -0.3451  0.2269
   36MOL   C102 8572   4.534   6.710   4.060  0.4285 -0.3160 -0.3317
   36MOL   O103 8573   4.503   6.940   4.013  0.0687 -0.0113 -0.0836
   36MOL   H104 8574   4.340   7.034   4.184 -0.6847  3.9147 -0.9494
   36MOL   H105 8575   4.381   7.163   4.294 -1.6814 -0.6269 -2.4171
   36MOL   H106 8576   4.552   7.005   4.385  0.4237 -0.0362  0.5953
   36MOL   H107 8577   4.519   6.701   3.952  1.9365  1.2644 -0.6949
   36MOL   H108 8578   4.460   6.650   4.112  1.5751 -1.0011  0.5317
   36MOL   H109 8579   4.636   6.679   4.083  0.0332 -1.5471 -0.1837
   36MOL   C110 8580   4.626   7.119   4.219 -0.4226 -1.0168  0.2063
   36MOL   C111 8581   4.777   7.097   4.255 -0.2917  0.4506  0.0272
   36MOL   O112 8582   4.824   6.989   4.172  0.2547  0.5200  0.1911
   36MOL   C113 8583   4.929   6.906   4.207  0.1115  0.7937 -0.2684
   36MOL   C114 8584   4.949   6.790   4.108  0.2946 -1.1169 -0.7122
   36MOL   O115 8585   5.005   6.920   4.307  0.0728  0.3635 -0.1411
   36MOL   H116 8586   4.618   7.122   4.110  0.5824 -0.3888  0.1346
   36MOL   H117 8587   4.593   7.215   4.260  0.6979 -0.3215 -0.4780
   36MOL   H118 8588   4.793   7.069   4.359 -0.6933 -1.5790 -0.4400
   36MOL   H119 8589   5.053   6.783   4.078  0.8717  1.6401  0.4228
   36MOL   H120 8590   4.879   6.793   4.024 -1.9142 -0.0202  1.0882
   36MOL   H121 8591   4.921   6.696   4.155  0.3593 -0.9149 -0.2615
   36MOL   C122 8592   4.863   7.225   4.236 -1.0639  0.1512 -0.4018
   36MOL   C123 8593   4.808   7.354   4.304 -0.1305  0.5924 -0.1019
   36MOL   O124 8594   4.798   7.338   4.445  0.1346  0.0167  0.2202
   36MOL   C125 8595   4.687   7.382   4.507 -0.1560  0.3848  0.6019
   36MOL   C126 8596   4.707   7.380   4.659  0.5098 -0.0407 -0.2240
   36MOL   O127 8597   4.575   7.398   4.450 -0.2253 -0.2586  0.2435
   36MOL   H128 8598   4.959   7.208   4.285 -0.4322 -2.4468 -2.4586
   36MOL   H129 8599   4.874   7.249   4.130 -2.5101  0.7013 -0.4300
   36MOL   H130 8600   4.712   7.378   4.257 -1.7482 -0.3005  2.6270
   36MOL   H131 8601   4.776   7.457   4.695  0.4579 -0.4434  0.7366
   36MOL   H132 8602   4.747   7.283   4.687 -0.9085 -1.5196 -3.0790
   36MOL   H133 8603   4.608   7.381   4.704  0.5471  0.4096 -0.1452
   36MOL   C134 8604   4.902   7.473   4.277  0.3426  0.2997 -0.9100
   36MOL   C135 8605   4.832   7.615   4.303  0.1054  0.6527 -0.2694
   36MOL   O136 8606   4.925   7.718   4.286 -0.2193 -0.6372 -0.1204
   36MOL   C137 8607   4.987   7.765   4.395  0.8860  0.1983  0.1827
   36MOL   C138 8608   5.082   7.878   4.371 -0.2539  0.1717 -1.1649
   36MOL   O139 8609   4.977   7.714   4.507  0.6426  0.0448 -0.0221
   36MOL   H140 8610   4.986   7.472   4.346  0.0582  1.1228 -0.5394
   36MOL   H141 8611   4.950   7.462   4.180  0.0506 -0.2625 -0.9948
   36MOL   H142 8612   4.803   7.621   4.407  1.9251  1.5679  0.2117
   36MOL   H143 8613   5.162   7.847   4.303  0.3615  0.7765 -0.7290
   36MOL   H144 8614   5.118   7.905   4.470 -2.3032  0.0037 -0.3704
   36MOL   H145 8615   5.031   7.967   4.332 -0.3392  0.1130 -1.1867
   36MOL   C146 8616   4.711   7.645   4.223 -0.6790  0.0397 -0.6434
   36MOL   C147 8617   4.736   7.646   4.076 -0.5611 -0.4056  1.1654
   36MOL   O148 8618   4.673   7.539   4.012  0.1332 -0.2584 -0.2518
   36MOL   C149 8619   4.738   7.435   3.941  0.0579 -0.0068 -0.7085
   36MOL   C150 8620   4.636   7.346   3.873 -0.1667  1.1832 -0.1267
   36MOL   O151 8621   4.854   7.418   3.935 -0.0514 -0.1093  0.5177
   36MOL   H152 8622   4.633   7.572   4.245 -0.7335  1.1055  2.9939
   36MOL   H153 8623   4.657   7.736   4.249  0.6544  0.6616 -0.0302
   36MOL   H154 8624   4.840   7.633   4.046 -1.2210 -3.2205 -0.0699
   36MOL   H155 8625   4.631   7.366   3.766  0.6442  2.0029 -0.0129
   36MOL   H156 8626   4.535   7.356   3.912  0.4828 -0.4202  2.0268
   36MOL   H157 8627   4.665   7.247   3.907 -3.2856  0.2149 -0.0715
   36MOL   C158 8628   4.685   7.781   4.009 -0.5350  0.7928 -0.0276
   36MOL   C159 8629   4.781   7.895   4.033 -0.5963 -0.2315 -0.3251
   36MOL   O160 8630   4.902   7.866   3.956  0.4406  0.1024  0.0258
   36MOL   C161 8631   5.023   7.929   3.985 -0.4292  0.0412 -0.0642
   36MOL   C162 8632   5.142   7.866   3.913  0.7174 -0.4644  0.5981
   36MOL   O163 8633   5.027   0.001   4.060 -0.3046  0.0032 -0.1780
   36MOL   H164 8634   4.676   7.764   3.902 -0.2225 -0.7740  0.1853
   36MOL   H165 8635   4.585   7.805   4.045 -0.3242  3.1934 -0.9723
   36MOL   H166 8636   4.803   7.901   4.139 -2.8411  0.8962  0.1150
   36MOL   H167 8637   5.226   7.936   3.910  0.0834  0.3597  1.5967
   36MOL   H168 8638   5.116   7.837   3.812 -0.2207  1.3781  0.2788
   36MOL   H169 8639   5.168   7.778   3.971  2.9273 -1.5498 -1.9567
   36MOL   C170 8640   4.719   0.012   3.995  0.2063 -0.5511 -0.9229
   36MOL   C171 8641   4.637   0.083   4.106  0.2545  0.0020  0.8356
   36MOL   O172 8642   4.717   0.155   4.195 -0.0502 -0.0197 -0.2285
   36MOL   C173 8643   4.779   0.104   4.301 -0.4981 -0.2108 -0.4582
   36MOL   C174 8644   4.870   0.208   4.367 -0.0192 -0.2193  0.1609
   36MOL   O175 8645   4.761   8.009   4.341  0.1948 -0.4029  0.4635
   36MOL   H176 8646   4.794   0.081   3.956 -0.8381  0.7925 -0.5865
   36MOL   H177 8647   4.655   8.020   3.908 -0.6091 -1.5205 -0.1834
   36MOL   H178 8648   4.584   0.008   4.165  1.0164 -0.1830  1.2893
   36MOL   H179 8649   4.811   0.298   4.385  0.1233 -0.2626  0.8915
   36MOL   H180 8650   4.962   0.229   4.313  0.3229  0.8351  1.1169
   36MOL   H181 8651   4.891   0.160   4.463 -0.2933  1.6729  1.1991
   36MOL   C182 8652   4.540   0.194   4.041  0.4560  1.0710  0.1091
   36MOL   C183 8653   4.413   0.137   3.968  0.6595 -0.0906 -0.2827
   36MOL   O184 8654   4.312   0.100   4.061 -0.0505  1.0011 -0.2498
   36MOL   C185 8655   4.297   8.005   4.107  0.6264  1.1016 -0.1502
   36MOL   C186 8656   4.172   8.006   4.186  0.2971  0.2264  1.0114
   36MOL   O187 8657   4.362   7.907   4.092  0.1528 -0.0249 -0.1262
   36MOL   H188 8658   4.506   0.269   4.113  1.1236  0.3701  1.1674
   36MOL   H189 8659   4.602   0.261   3.981  1.2790  0.3388  0.1503
   36MOL   H190 8660   4.449   0.050   3.913 -0.2529 -1.4244  1.1868
   36MOL   H191 8661   4.168   7.911   4.240  1.5405 -0.0456  0.6393
   36MOL   H192 8662   4.089   0.006   4.119  0.4349 -0.3737  0.6435
   36MOL   H193 8663   4.178   0.058   4.266 -1.1337 -2.8669  4.1020
   36MOL   C194 8664   4.354   0.233   3.865  0.1796 -0.0994 -0.3144
   36MOL   C195 8665   4.448   0.267   3.745  0.1745 -0.7736  0.4826
   36MOL   O196 8666   4.481   0.145   3.672 -0.3546 -0.0662 -0.7283
   36MOL   C197 8667   4.602   0.124   3.628  1.0032  0.3364 -0.0407
   36MOL   C198 8668   4.630   8.004   3.566 -0.4153  0.1748  0.6492
   36MOL   O199 8669   4.695   0.203   3.648  0.0193 -0.1895 -0.2955
   36MOL   H200 8670   4.263   0.182   3.833  0.4416 -0.8922  0.1951
   36MOL   H201 8671   4.321   0.319   3.924 -0.8055 -0.8089  0.1809
   36MOL   H202 8672   4.535   0.312   3.793 -0.2553  1.7466 -1.0089
   36MOL   H203 8673   4.553   7.970   3.498  0.7049 -3.0117  0.8492
   36MOL   H204 8674   4.625   7.925   3.642 -1.6344 -0.5558 -0.1773
   36MOL   H205 8675   4.729   8.011   3.520 -0.3817  0.5594  0.7761
   36MOL   C206 8676   4.387   0.372   3.643 -0.0955 -0.5312 -0.0348
   36MOL   C207 8677   4.361   0.513   3.702  0.5786  0.9181 -0.3236
   36MOL   O208 8678   4.491   0.560   3.742  0.0359  0.0085 -0.5912
   36MOL   C209 8679   4.521   0.574   3.870 -0.5570  0.2052 -0.8639
   36MOL   C210 8680   4.635   0.670   3.890 -0.1153 -0.2026 -0.6159
   36MOL   O211 8681   4.454   0.525   3.965 -0.0520  0.6965  0.1882
   36MOL   H212 8682   4.439   0.372   3.547 -0.0019  0.8538 -0.0025
   36MOL   H213 8683   4.286   0.341   3.616  0.1971 -2.0114  0.5330
   36MOL   H214 8684   4.300   0.499   3.791  0.1985  2.7012 -0.2960
   36MOL   H215 8685   4.675   0.665   3.992 -0.6819 -0.2157 -0.3934
   36MOL   H216 8686   4.581   0.764   3.879  2.4874  1.3553 -0.5866
   36MOL   H217 8687   4.700   0.650   3.805  1.3910  1.9229 -0.0113
   36MOL   C218 8688   4.307   0.605   3.600 -0.2264 -0.6700 -0.8403
   36MOL   C219 8689   4.203   0.704   3.646  0.1690  0.0411 -0.5602
   36MOL   O220 8690   4.266   0.791   3.742  0.2004  0.0362 -0.1875
   36MOL   C221 8691   4.202   0.824   3.853 -0.9228 -0.3447 -0.2348
   36MOL   C222 8692   4.308   0.874   3.955  0.6589  0.0917  0.0296
   36MOL   O223 8693   4.081   0.814   3.882  0.2829 -0.2719  0.0657
   36MOL   H224 8694   4.387   0.654   3.544  1.8814 -1.1538  1.6789
   36MOL   H225 8695   4.261   0.548   3.519 -0.2001  0.7618 -1.8774
   36MOL   H226 8696   4.119   0.649   3.688  1.1519 -1.3433 -0.3363
   36MOL   H227 8697   4.249   0.932   4.025  1.3407 -0.5641  1.1625
   36MOL   H228 8698   4.387   0.938   3.913 -0.0293  0.5811 -0.5420
   36MOL   H229 8699   4.356   0.793   4.008 -1.0387  0.0820  1.5838
   36MOL   C230 8700   4.145   0.792   3.530  0.3559  0.4846  0.1831
   36MOL   C231 8701   4.245   0.863   3.435 -0.4764 -0.5150 -0.4455
   36MOL   O232 8702   4.175   0.927   3.334 -0.0236 -0.3501  0.0875
   36MOL   C233 8703   4.236   0.942   3.221 -0.4858 -0.0338  0.8815
   36MOL   C234 8704   4.158   1.031   3.120  0.1382  0.7560  0.0144
   36MOL   O235 8705   4.338   0.883   3.183 -0.0719  0.7839 -0.0775
   36MOL   H236 8706   4.070   0.732   3.479  1.0653  0.4144 -0.7890
   36MOL   H237 8707   4.086   0.873   3.574  0.3823 -0.4585  1.9735
   36MOL   H238 8708   4.318   0.797   3.388  1.1645  0.3239  0.8565
   36MOL   H239 8709   4.175   0.984   3.024  0.0581  0.1109  0.3124
   36MOL   H240 8710   4.218   1.120   3.102  0.2932  0.4866 -0.8277
   36MOL   H241 8711   4.053   1.049   3.142  0.2595  0.4762  0.8355
   36MOL   H242 8712   4.290   0.933   3.505  0.1108 -0.7909 -0.5453
   37MOL     C1 8713   5.116   6.286   4.909  0.4080 -0.4057  0.0980
   37MOL     C2 8714   5.174   6.378   5.008  0.0321  0.1636 -0.6440
   37MOL     O3 8715   5.255   6.300   5.098  0.2486  0.1279 -0.1398
   37MOL     C4 8716   5.263   6.336   5.228  0.4220  0.2940 -0.6531
   37MOL     C5 8717   5.349   6.232   5.310 -0.1584 -0.1901  0.0093
   37MOL     O6 8718   5.218   6.440   5.279 -0.4158  0.3351  0.1946
   37MOL     H7 8719   5.192   6.260   4.836  0.2791 -0.5678  0.0215
   37MOL     H8 8720   5.031   6.335   4.861  1.4163  1.6742  0.3807
   37MOL     H9 8721   5.092   6.420   5.067  0.5516  1.7670 -1.0233
   37MOL    H10 8722   5.397   6.154   5.252 -1.3591 -1.5612  0.8092
   37MOL    H11 8723   5.288   6.180   5.383 -2.9027  0.3088 -1.8729
   37MOL    H12 8724   5.422   6.286   5.371  0.0473 -1.8592  1.2679
   37MOL    H13 8725   5.065   6.194   4.939 -1.5956  0.5362 -0.3006
   37MOL    C14 8726   5.245   6.496   4.950 -0.3593  0.5575 -0.4589
   37MOL    C15 8727   5.167   6.593   4.846  0.1215  0.3094 -0.6293
   37MOL    O16 8728   5.147   6.518   4.727  0.6420 -0.1526 -0.1601
   37MOL    C17 8729   5.182   6.563   4.603 -0.3532 -0.4997  0.2851
   37MOL    C18 8730   5.135   6.470   4.489  0.1605 -0.3346 -0.1229
   37MOL    O19 8731   5.233   6.673   4.581  0.0361 -0.6632  0.2218
   37MOL    H20 8732   5.293   6.551   5.032 -1.1244 -2.1995  1.9410
   37MOL    H21 8733   5.326   6.451   4.893  0.7581 -1.2357  2.4378
   37MOL    H22 8734   5.233   6.676   4.821 -1.7174  1.8779 -0.4240
   37MOL    H23 8735   5.183   6.373   4.498 -2.4530 -1.8073 -1.3332
   37MOL    H24 8736   5.171   6.500   4.391  0.3071 -0.4646 -0.1091
   37MOL    H25 8737   5.027   6.455   4.485  0.1582 -0.3525 -0.0157
   37MOL    C26 8738   5.031   6.637   4.908  0.0064 -0.0903  0.3921
   37MOL    C27 8739   5.050   6.750   5.018 -1.1975  0.0582  0.3918
   37MOL    O28 8740   5.095   6.871   4.962  0.1034 -0.5501 -0.2687
   37MOL    C29 8741   5.218   6.915   4.996  0.4534 -0.2190 -0.2921
   37MOL    C30 8742   5.241   7.051   4.937 -0.4587 -0.0432  1.4694
   37MOL    O31 8743   5.301   6.865   5.073  0.1104  0.2311 -0.0482
   37MOL    H32 8744   4.981   6.687   4.825  1.1494 -0.0619 -0.2902
   37MOL    H33 8745   4.976   6.550   4.945  0.3059 -0.4354  0.0276
   37MOL    H34 8746   5.114   6.711   5.098  0.2605 -0.2912 -0.9154
   37MOL    H35 8747   5.346   7.063   4.910 -0.8065  0.1840  0.1819
   37MOL    H36 8748   5.225   7.114   5.025 -2.0561  0.9257  0.5064
   37MOL    H37 8749   5.179   7.064   4.849 -1.0627 -1.9582  1.5971
   37MOL    C38 8750   4.914   6.788   5.089  0.0665  0.5043  0.1681
   37MOL    C39 8751   4.922   6.877   5.214 -0.1772  0.9167  0.2953
   37MOL    O40 8752   4.793   6.925   5.227 -0.2985  0.1627 -0.8064
   37MOL    C41 8753   4.760   7.052   5.193  0.0806 -0.4279  0.4793
   37MOL    C42 8754   4.625   7.105   5.237 -0.2416  0.1756  0.2820
   37MOL    O43 8755   4.828   7.126   5.120 -0.0919  0.0311  0.2265
   37MOL    H44 8756   4.857   6.838   5.011  0.8407  1.0852 -0.0258
   37MOL    H45 8757   4.862   6.694   5.110  0.2400  0.3529 -0.0784
   37MOL    H46 8758   5.001   6.951   5.201  0.9267 -0.3252 -0.1851
   37MOL    H47 8759   4.566   7.091   5.147 -1.1351  0.6396  0.7851
   37MOL    H48 8760   4.618   7.208   5.272  0.1446 -0.5351  2.5291
   37MOL    H49 8761   4.585   7.050   5.322 -0.4395 -0.1666 -0.0311
   37MOL    C50 8762   4.966   6.803   5.346  0.0087  0.4493  0.3721
   37MOL    C51 8763   5.010   6.894   5.458 -0.5686  0.5730  0.1697
   37MOL    O52 8764   5.050   6.797   5.567  0.3012 -0.4588 -0.3253
   37MOL    C53 8765   5.025   6.828   5.695  0.0969  0.6315  0.2803
   37MOL    C54 8766   5.074   6.720   5.789 -0.5930  0.2053  0.0034
   37MOL    O55 8767   4.971   6.929   5.738  0.1472  0.4161  0.2375
   37MOL    H56 8768   4.884   6.739   5.377 -0.0864 -0.1137 -0.9938
   37MOL    H57 8769   5.046   6.733   5.321 -0.2168  0.9802 -1.9681
   37MOL    H58 8770   4.919   6.945   5.488 -0.9852 -0.6012  0.9685
   37MOL    H59 8771   5.009   6.722   5.876 -0.9075  0.1807 -0.2296
   37MOL    H60 8772   5.178   6.731   5.818 -0.2036  0.3536 -1.4043
   37MOL    H61 8773   5.065   6.626   5.735 -1.5140  0.3198 -0.0513
   37MOL    C62 8774   5.129   6.986   5.417  0.4128  1.0424  0.0160
   37MOL    C63 8775   5.099   7.137   5.385  0.5267 -0.0627 -0.8745
   37MOL    O64 8776   5.057   7.199   5.505 -0.2945  0.4389 -0.6062
   37MOL    C65 8777   4.940   7.241   5.525  0.0675  0.1281  0.1334
   37MOL    C66 8778   4.931   7.282   5.671  0.2096  0.1916  0.0183
   37MOL    O67 8779   4.853   7.243   5.440  0.3747  0.2616  0.4319
   37MOL    H68 8780   5.209   6.983   5.490  0.1859 -2.1073  0.1973
   37MOL    H69 8781   5.169   6.933   5.331 -1.5269  0.2861 -0.4506
   37MOL    H70 8782   5.017   7.133   5.313 -0.7182  1.8508  0.4047
   37MOL    H71 8783   5.017   7.342   5.698 -0.0082  0.1528  0.8168
   37MOL    H72 8784   4.928   7.189   5.729  0.8914  1.2695  1.8068
   37MOL    H73 8785   4.837   7.334   5.692 -0.9246 -1.4249 -0.9514
   37MOL    C74 8786   5.212   7.215   5.319  0.1068  0.0438  0.1699
   37MOL    C75 8787   5.183   7.368   5.297  0.6329  0.2333  0.4983
   37MOL    O76 8788   5.302   7.454   5.295 -0.1750 -0.1389  0.3245
   37MOL    C77 8789   5.346   7.511   5.404 -0.1544 -0.0555 -0.1198
   37MOL    C78 8790   5.466   7.606   5.382  0.2195 -0.0270 -0.1999
   37MOL    O79 8791   5.303   7.489   5.510  0.2080 -0.4891 -0.4484
   37MOL    H80 8792   5.296   7.216   5.388 -0.7195 -0.8322  1.2229
   37MOL    H81 8793   5.255   7.175   5.228 -0.9329 -0.5243 -0.0873
   37MOL    H82 8794   5.115   7.408   5.373  0.7905  1.0827  0.2016
   37MOL    H83 8795   5.470   7.637   5.278 -0.4728  0.6666 -0.0248
   37MOL    H84 8796   5.560   7.551   5.390  0.3432  0.1003 -0.7923
   37MOL    H85 8797   5.463   7.688   5.454 -3.4585 -0.6449  0.4715
   37MOL    C86 8798   5.123   7.395   5.159 -0.1021  0.6292 -0.4767
   37MOL    C87 8799   5.004   7.490   5.162  0.4150  0.3572 -0.2260
   37MOL    O88 8800   5.059   7.619   5.210  0.3951 -0.0931  0.3300
   37MOL    C89 8801   4.993   7.699   5.293  0.6904  0.0691  0.5157
   37MOL    C90 8802   5.074   7.821   5.314 -0.3759  0.3575  0.3117
   37MOL    O91 8803   4.888   7.684   5.353 -0.3065 -0.0194  0.1111
   37MOL    H92 8804   5.204   7.413   5.089  1.3585 -1.0369  0.7249
   37MOL    H93 8805   5.087   7.302   5.113 -0.5645  0.9919 -0.8537
   37MOL    H94 8806   4.928   7.445   5.227  0.9142 -0.6002 -0.2927
   37MOL    H95 8807   5.038   7.909   5.262 -1.6221 -0.5773 -0.4399
   37MOL    H96 8808   5.172   7.797   5.271 -0.5942 -2.9005  1.4924
   37MOL    H97 8809   5.091   7.839   5.420  0.9075  0.5671  0.0823
   37MOL    C98 8810   4.932   7.501   5.024  0.3804 -0.5743  0.0627
   37MOL    C99 8811   4.798   7.580   5.028 -0.7699  0.3575  0.2046
   37MOL   O100 8812   4.763   7.610   4.887  0.5988  0.2994  0.4431
   37MOL   C101 8813   4.716   7.735   4.858 -0.2300  0.1894 -0.2576
   37MOL   C102 8814   4.713   7.768   4.711 -0.2611  0.3117 -0.7547
   37MOL   O103 8815   4.676   7.813   4.940 -0.2595  0.3667  0.6199
   37MOL   H104 8816   4.987   7.544   4.940  2.3856 -0.1042  1.5816
   37MOL   H105 8817   4.906   7.402   4.988  0.3584  0.2096 -2.1333
   37MOL   H106 8818   4.818   7.676   5.076  2.1376 -0.0681 -0.0611
   37MOL   H107 8819   4.639   7.845   4.687 -0.9068  0.3543  1.2758
   37MOL   H108 8820   4.691   7.676   4.658 -0.0227  0.0252 -0.3531
   37MOL   H109 8821   4.815   7.800   4.688 -0.5551  0.3727 -2.0291
   37MOL   C110 8822   4.688   7.502   5.103 -0.0737  0.5386 -0.7175
   37MOL   C111 8823   4.561   7.585   5.141  0.0198 -0.3298 -0.4019
   37MOL   O112 8824   4.457   7.499   5.196  0.4397 -0.6798  0.0961
   37MOL   C113 8825   4.375   7.433   5.108  0.0505  0.2369  0.4813
   37MOL   C114 8826   4.268   7.363   5.180  0.2379  0.5035 -0.3093
   37MOL   O115 8827   4.380   7.439   4.982 -0.4557 -0.2063 -0.0172
   37MOL   H116 8828   4.655   7.412   5.051  0.7884 -0.8450  1.0868
   37MOL   H117 8829   4.726   7.463   5.197  0.0668 -2.1172 -1.8390
   37MOL   H118 8830   4.525   7.628   5.048  3.6424  1.0544 -1.2690
   37MOL   H119 8831   4.230   7.417   5.266  1.0152 -2.5202  2.0137
   37MOL   H120 8832   4.308   7.268   5.214 -3.1471 -0.9769 -0.3124
   37MOL   H121 8833   4.185   7.331   5.118 -0.2709  0.0012  0.6309
   37MOL   C122 8834   4.594   7.690   5.240 -0.1574 -0.1150 -0.4239
   37MOL   C123 8835   4.467   7.766   5.301  1.1261  0.3656  0.0102
   37MOL   O124 8836   4.522   7.884   5.361  0.3059 -0.2857  0.5082
   37MOL   C125 8837   4.555   7.878   5.492 -0.1446  0.3243  0.2818
   37MOL   C126 8838   4.591   8.009   5.550 -0.0439 -0.4677  0.4555
   37MOL   O127 8839   4.558   7.776   5.559  0.6603  0.0197 -0.1515
   37MOL   H128 8840   4.652   7.639   5.317 -0.3070 -0.4745 -0.5487
   37MOL   H129 8841   4.663   7.765   5.200  0.2219  0.2973  0.9481
   37MOL   H130 8842   4.429   7.694   5.373  0.1321  0.9345  0.0587
   37MOL   H131 8843   4.697   0.006   5.534 -0.1913  0.5787  0.6870
   37MOL   H132 8844   4.561   8.015   5.655  3.1556 -1.9260  1.5062
   37MOL   H133 8845   4.542   0.065   5.491 -0.9694 -0.5555  1.0912
   37MOL   C134 8846   4.356   7.807   5.204  0.5662  0.5848  0.3507
   37MOL   C135 8847   4.223   7.849   5.283 -0.4630 -0.3649  0.2831
   37MOL   O136 8848   4.240   7.978   5.344  0.3826  0.0996 -0.0902
   37MOL   C137 8849   4.208   7.996   5.473 -0.1834 -0.3389  0.3612
   37MOL   C138 8850   4.237   0.119   5.516  0.5590  0.2257 -0.0368
   37MOL   O139 8851   4.182   7.911   5.559  0.3361 -0.0635  0.0109
   37MOL   H140 8852   4.400   7.861   5.120  0.2966 -0.0258 -0.1929
   37MOL   H141 8853   4.324   7.714   5.156  1.1895  0.9646 -0.8313
   37MOL   H142 8854   4.227   7.774   5.362 -1.6082 -0.3867  0.3260
   37MOL   H143 8855   4.153   0.162   5.571  1.1312  0.3407  0.7484
   37MOL   H144 8856   4.245   0.178   5.424 -0.6822  1.1910  0.4642
   37MOL   H145 8857   4.331   0.128   5.571  0.4373  1.1459  0.0227
   37MOL   C146 8858   4.090   7.839   5.193 -0.1493 -0.3564  0.0974
   37MOL   C147 8859   3.954   7.863   5.276 -0.6932  0.5716  0.0205
   37MOL   O148 8860   3.917   7.994   5.238  1.0886 -0.5403 -0.0041
   37MOL   C149 8861   3.845   0.059   5.316  0.5432 -0.0064  0.2102
   37MOL   C150 8862   3.849   0.206   5.262 -0.2369 -0.0570 -0.0382
   37MOL   O151 8863   3.787   0.033   5.423 -0.4565  0.0298  0.3343
   37MOL   H152 8864   4.099   7.910   5.111 -0.6173 -0.0124  0.3441
   37MOL   H153 8865   4.095   7.740   5.146 -1.2733 -0.2886 -0.1838
   37MOL   H154 8866   3.966   7.857   5.384 -1.5199  0.4849  0.1166
   37MOL   H155 8867   3.851   0.221   5.155 -1.4544 -0.1175 -0.0769
   37MOL   H156 8868   3.932   0.250   5.316  0.1785 -0.3355 -0.4536
   37MOL   H157 8869   3.764   0.267   5.294  1.4774  1.5155  1.5755
   37MOL   C158 8870   3.845   7.762   5.235  0.5791 -0.0489  0.4731
   37MOL   C159 8871   3.868   7.620   5.290 -0.2834  0.8313 -0.7184
   37MOL   O160 8872   3.885   7.638   5.433  0.1842 -0.5941  0.0431
   37MOL   C161 8873   4.005   7.604   5.478 -0.7527  0.5309  0.0443
   37MOL   C162 8874   4.016   7.631   5.624 -0.0049 -0.1981  0.6672
   37MOL   O163 8875   4.087   7.542   5.407 -0.3356 -0.6774  0.0805
   37MOL   H164 8876   3.760   7.804   5.288  2.2026  0.2371  2.9772
   37MOL   H165 8877   3.836   7.753   5.127 -2.7186 -0.3323  0.7384
   37MOL   H166 8878   3.954   7.590   5.229 -0.6278 -0.0921 -0.7547
   37MOL   H167 8879   4.051   7.733   5.641 -1.4416  0.0583  2.2080
   37MOL   H168 8880   4.094   7.574   5.674 -0.1266  0.2156  1.3293
   37MOL   H169 8881   3.922   7.624   5.680  0.2127  0.1843  1.0802
   37MOL   C170 8882   3.747   7.526   5.279  0.0557  0.2637  0.0082
   37MOL   C171 8883   3.781   7.370   5.309  0.5720  0.7903 -0.2109
   37MOL   O172 8884   3.668   7.281   5.305  0.0798 -0.0756  0.2108
   37MOL   C173 8885   3.583   7.279   5.410  0.7011  0.0252 -0.0350
   37MOL   C174 8886   3.475   7.173   5.398 -0.0295  0.4641  0.0161
   37MOL   O175 8887   3.580   7.359   5.499  0.3725 -0.2843  0.1840
   37MOL   H176 8888   3.663   7.555   5.343  0.6581 -0.6958  1.2717
   37MOL   H177 8889   3.708   7.533   5.178 -1.2650  3.3788  0.7068
   37MOL   H178 8890   3.831   7.353   5.404  1.0624  0.5491 -0.5103
   37MOL   H179 8891   3.397   7.205   5.329  1.1686 -1.6582 -2.4006
   37MOL   H180 8892   3.433   7.143   5.494  2.3395  0.1300  0.9881
   37MOL   H181 8893   3.511   7.086   5.342 -0.1567  1.3925 -1.5452
   37MOL   C182 8894   3.881   7.321   5.198 -0.3545  0.3769 -0.2853
   37MOL   C183 8895   3.934   7.171   5.208 -0.3025  0.3484  0.1585
   37MOL   O184 8896   4.011   7.144   5.094  0.1865 -0.7032  0.4803
   37MOL   C185 8897   3.965   7.083   4.981  0.3752  0.6710  0.3817
   37MOL   C186 8898   4.051   7.095   4.859 -0.1464 -0.6787 -0.8089
   37MOL   O187 8899   3.858   7.022   4.976 -0.1542  0.0543  0.8242
   37MOL   H188 8900   3.842   7.348   5.100  1.4083  3.2186 -0.2507
   37MOL   H189 8901   3.968   7.385   5.214 -0.6821  0.2097  2.5135
   37MOL   H190 8902   3.846   7.110   5.189  0.5326 -1.2823  1.4062
   37MOL   H191 8903   3.994   7.080   4.768  0.6738  0.5276 -1.5241
   37MOL   H192 8904   4.132   7.023   4.870  1.8495  2.1360  4.6142
   37MOL   H193 8905   4.095   7.194   4.864 -0.6387 -0.4985  0.4606
   37MOL   C194 8906   4.006   7.136   5.338 -0.4096  0.9968  0.1177
   37MOL   C195 8907   4.035   6.985   5.344 -0.1364 -0.4452  0.1594
   37MOL   O196 8908   4.121   6.960   5.454 -0.4751 -0.3507  0.1795
   37MOL   C197 8909   4.249   6.985   5.458  0.0769 -0.1657  0.2168
   37MOL   C198 8910   4.322   6.952   5.586 -0.4800  0.1891  0.5245
   37MOL   O199 8911   4.305   7.039   5.363 -0.1387  0.4152  0.7236
   37MOL   H200 8912   4.100   7.190   5.340 -0.7338  1.5527  0.4618
   37MOL   H201 8913   3.943   7.171   5.420 -0.7732  0.7122 -0.0378
   37MOL   H202 8914   4.087   6.966   5.250 -0.8464 -0.0011 -0.3340
   37MOL   H203 8915   4.408   6.888   5.563 -0.7840  0.6284 -1.9316
   37MOL   H204 8916   4.257   6.889   5.647 -0.1778 -1.0630 -0.4113
   37MOL   H205 8917   4.361   7.044   5.628 -1.9753  0.1995  1.9355
   37MOL   C206 8918   3.914   6.890   5.348  0.5635  0.6006 -0.4447
   37MOL   C207 8919   3.952   6.739   5.360  0.6478 -0.6600 -0.1180
   37MOL   O208 8920   3.836   6.659   5.360  0.0183 -0.2435  0.1065
   37MOL   C209 8921   3.798   6.594   5.476 -0.4327 -0.5814 -0.3143
   37MOL   C210 8922   3.658   6.538   5.459  0.2773  0.1816  0.0702
   37MOL   O211 8923   3.868   6.580   5.576  0.0839  0.2941 -0.4347
   37MOL   H212 8924   3.868   6.911   5.444 -0.6470  2.4652 -1.4045
   37MOL   H213 8925   3.841   6.905   5.269  1.3897 -1.4505 -1.6391
   37MOL   H214 8926   4.001   6.739   5.457 -0.1841 -1.9372  0.3038
   37MOL   H215 8927   3.612   6.535   5.557  1.3986 -3.2358  0.5564
   37MOL   H216 8928   3.673   6.437   5.421 -0.2922 -0.7574  2.3162
   37MOL   H217 8929   3.603   6.604   5.392  0.5700  0.6461  0.2838
   37MOL   C218 8930   4.041   6.684   5.256  0.1085 -0.8232  0.6218
   37MOL   C219 8931   4.111   6.543   5.271  0.3962 -0.0316 -0.0203
   37MOL   O220 8932   4.187   6.522   5.158  0.0123  0.2026 -0.0667
   37MOL   C221 8933   4.156   6.428   5.066  0.9414 -0.1073 -0.1630
   37MOL   C222 8934   4.253   6.422   4.944 -0.5546  0.0380  0.3237
   37MOL   O223 8935   4.059   6.350   5.074 -0.2756 -0.2203  0.3443
   37MOL   H224 8936   3.994   6.678   5.159  0.3121  1.1963  0.3704
   37MOL   H225 8937   4.131   6.746   5.245 -0.5196 -0.2730 -1.5357
   37MOL   H226 8938   4.025   6.477   5.282  0.6415 -0.0254  2.2467
   37MOL   H227 8939   4.268   6.321   4.907 -0.6607 -0.3415  1.2985
   37MOL   H228 8940   4.347   6.465   4.978 -0.4711 -0.7373  1.0757
   37MOL   H229 8941   4.206   6.477   4.863 -0.9191 -1.2795 -0.3704
   37MOL   C230 8942   4.205   6.544   5.392  0.1773 -0.8684  0.0583
   37MOL   C231 8943   4.289   6.421   5.406 -0.1401  1.2016 -0.7585
   37MOL   O232 8944   4.388   6.444   5.515 -0.0408 -0.0434  0.0362
   37MOL   C233 8945   4.396   6.363   5.622 -0.1166 -0.5259  0.0632
   37MOL   C234 8946   4.514   6.388   5.717 -0.2983 -0.1949  0.0338
   37MOL   O235 8947   4.315   6.268   5.636  0.0741 -0.3139 -0.1322
   37MOL   H236 8948   4.264   6.635   5.378 -0.8157 -0.1297  0.6388
   37MOL   H237 8949   4.150   6.565   5.483  1.8958  1.8290  0.5273
   37MOL   H238 8950   4.340   6.393   5.314 -2.6781  0.0210 -1.8446
   37MOL   H239 8951   4.551   6.290   5.749  3.7586  1.1453 -0.2147
   37MOL   H240 8952   4.474   6.457   5.792 -1.4739  1.6660 -2.2647
   37MOL   H241 8953   4.590   6.432   5.653 -0.5880  1.3303  0.7270
   37MOL   H242 8954   4.218   6.339   5.418  1.1463  0.1410 -0.1910
   38MOL     C1 8955   5.306   3.501   2.305 -0.7640 -0.3370 -0.2224
   38MOL     C2 8956   5.257   3.526   2.441  0.0349 -0.7074 -0.1768
   38MOL     O3 8957   5.359   3.480   2.528  0.3054  0.1038 -0.9484
   38MOL     C4 8958   5.327   3.392   2.619  0.3775 -0.5372 -0.2620
   38MOL     C5 8959   5.445   3.343   2.702  0.0423  0.5166 -0.1921
   38MOL     O6 8960   5.213   3.360   2.654 -0.0658 -0.2766 -0.1940
   38MOL     H7 8961   5.339   3.596   2.263  0.1779 -0.2659  0.6538
   38MOL     H8 8962   5.231   3.465   2.234 -0.1306 -0.8001 -0.6641
   38MOL     H9 8963   5.160   3.476   2.453  1.1279 -2.7453  0.4862
   38MOL    H10 8964   5.528   3.404   2.666 -1.2927  2.0005 -0.8172
   38MOL    H11 8965   5.467   3.237   2.705 -1.9300  0.1169  1.0288
   38MOL    H12 8966   5.443   3.378   2.805  0.0042  0.2314 -0.0976
   38MOL    H13 8967   5.391   3.433   2.304 -1.5378 -1.3133 -0.4407
   38MOL    C14 8968   5.230   3.670   2.481 -0.0471  0.2965  1.3541
   38MOL    C15 8969   5.141   3.706   2.607 -0.2588  0.0440  0.2931
   38MOL    O16 8970   5.117   3.845   2.618  0.2512 -0.5178  0.0751
   38MOL    C17 8971   5.221   3.922   2.661 -0.1357  0.0321 -0.4793
   38MOL    C18 8972   5.193   4.068   2.676 -0.4536 -0.7441  0.7341
   38MOL    O19 8973   5.326   3.873   2.706 -0.3614 -0.2323  0.6875
   38MOL    H20 8974   5.326   3.722   2.487 -0.5241  1.4200 -0.2767
   38MOL    H21 8975   5.190   3.716   2.390 -0.3116 -0.2278  1.2027
   38MOL    H22 8976   5.186   3.666   2.698  3.6246  1.4787 -0.8810
   38MOL    H23 8977   5.240   4.144   2.614  0.9234 -1.9384  0.2880
   38MOL    H24 8978   5.202   4.100   2.780 -1.8578  2.4524 -0.0565
   38MOL    H25 8979   5.084   4.067   2.687 -0.3209  1.9163  2.8904
   38MOL    C26 8980   4.997   3.650   2.600 -0.7947  0.4453  0.0972
   38MOL    C27 8981   4.902   3.696   2.485  1.1429 -0.8151  0.9048
   38MOL    O28 8982   4.828   3.583   2.453  0.3192  0.1049 -0.3517
   38MOL    C29 8983   4.868   3.500   2.352 -0.3424  0.4984  0.6092
   38MOL    C30 8984   4.802   3.365   2.353 -0.4683 -0.7726  0.1459
   38MOL    O31 8985   4.955   3.532   2.274 -0.4936  0.1759 -0.4734
   38MOL    H32 8986   4.999   3.541   2.594 -1.9769  0.4269 -0.1954
   38MOL    H33 8987   4.958   3.668   2.700 -1.8336 -1.0273 -0.0306
   38MOL    H34 8988   4.958   3.733   2.399  0.1967  0.0613  0.6382
   38MOL    H35 8989   4.767   3.326   2.448 -1.1581 -0.6969 -0.0761
   38MOL    H36 8990   4.878   3.296   2.316  2.0275  2.3129 -0.7832
   38MOL    H37 8991   4.722   3.363   2.279  0.8733  0.5145 -1.3954
   38MOL    C38 8992   4.806   3.810   2.534 -0.0668  0.5238 -0.0308
   38MOL    C39 8993   4.740   3.863   2.407  0.1193 -0.6346 -0.9144
   38MOL    O40 8994   4.604   3.902   2.438  0.2119 -0.5272  0.4617
   38MOL    C41 8995   4.510   3.903   2.343  0.5822  0.0391 -0.0625
   38MOL    C42 8996   4.371   3.962   2.393  0.2498  0.2515 -0.4911
   38MOL    O43 8997   4.525   3.872   2.225 -0.2602  0.2499 -0.7355
   38MOL    H44 8998   4.730   3.768   2.600 -1.1468  1.1234 -0.8924
   38MOL    H45 8999   4.865   3.887   2.583  1.8558 -0.3208 -0.9844
   38MOL    H46 9000   4.735   3.783   2.333  0.2539 -1.8655  0.3911
   38MOL    H47 9001   4.299   3.958   2.312 -0.4547  2.5116  0.0097
   38MOL    H48 9002   4.391   4.063   2.428 -1.0708  0.6260 -0.8023
   38MOL    H49 9003   4.332   3.914   2.483 -2.5462  1.6544 -0.9062
   38MOL    C50 9004   4.813   3.987   2.344 -0.4452  0.1295  1.2682
   38MOL    C51 9005   4.825   3.974   2.192  0.6919  0.1901  0.9699
   38MOL    O52 9006   4.878   4.101   2.146 -0.3928  0.7076  0.1877
   38MOL    C53 9007   4.797   4.197   2.099  0.0877 -0.7873 -0.1006
   38MOL    C54 9008   4.877   4.319   2.052  0.0042  0.0950 -0.3766
   38MOL    O55 9009   4.673   4.202   2.109  0.4153 -0.3667  0.2400
   38MOL    H56 9010   4.757   4.080   2.349  1.1658  1.1637  0.4494
   38MOL    H57 9011   4.903   4.025   2.393 -0.5993 -0.0953  1.7290
   38MOL    H58 9012   4.726   3.965   2.148  0.7738  2.2877  0.3191
   38MOL    H59 9013   4.840   4.401   2.114  1.6384  0.2411  0.4508
   38MOL    H60 9014   4.855   4.338   1.947 -1.8889 -2.1780 -0.4380
   38MOL    H61 9015   4.984   4.301   2.068 -0.3277 -1.5798  0.0353
   38MOL    C62 9016   4.918   3.860   2.137 -0.2755 -0.9632  0.0351
   38MOL    C63 9017   4.948   3.849   1.985  0.9781 -1.0531 -0.2337
   38MOL    O64 9018   5.071   3.910   1.957 -0.4823 -0.1024 -0.3967
   38MOL    C65 9019   5.090   3.998   1.855 -0.3732 -1.3219  0.0027
   38MOL    C66 9020   5.240   4.024   1.831 -0.2483 -0.2654  0.0414
   38MOL    O67 9021   5.005   4.057   1.787  0.1610  0.4089 -0.4302
   38MOL    H68 9022   5.018   3.862   2.180 -0.5102 -2.6938  0.6860
   38MOL    H69 9023   4.879   3.760   2.155  1.5494 -1.3266  2.0922
   38MOL    H70 9024   4.863   3.900   1.939  0.7384 -1.7461 -0.5817
   38MOL    H71 9025   5.264   4.125   1.797  3.1436 -2.0805 -3.3344
   38MOL    H72 9026   5.291   3.950   1.769 -0.4136  0.8080 -1.4016
   38MOL    H73 9027   5.301   4.006   1.919  0.0915  0.9058  0.0553
   38MOL    C74 9028   4.956   3.709   1.926 -0.3685  0.3336 -0.2805
   38MOL    C75 9029   4.966   3.709   1.774  0.2096 -0.0464  0.7200
   38MOL    O76 9030   5.014   3.583   1.733  0.2239 -0.0042  0.1147
   38MOL    C77 9031   5.141   3.565   1.688  0.1709 -0.0235 -0.8254
   38MOL    C78 9032   5.182   3.426   1.636 -0.6975  0.3329 -0.3545
   38MOL    O79 9033   5.224   3.657   1.683  0.3142  0.4788 -0.5402
   38MOL    H80 9034   5.044   3.657   1.965 -0.7021  0.0928  0.1491
   38MOL    H81 9035   4.866   3.654   1.951 -1.0182  0.9326 -1.2626
   38MOL    H82 9036   5.038   3.784   1.741 -1.9781  1.4355 -0.8975
   38MOL    H83 9037   5.278   3.387   1.670 -1.8441 -0.9812  1.5420
   38MOL    H84 9038   5.191   3.442   1.529  2.2495 -2.9200 -0.7015
   38MOL    H85 9039   5.101   3.357   1.661 -0.9973  0.6781 -0.3735
   38MOL    C86 9040   4.829   3.735   1.710  0.5644 -0.6022 -0.1605
   38MOL    C87 9041   4.820   3.758   1.553  0.2181 -0.7891 -0.3106
   38MOL    O88 9042   4.693   3.808   1.526 -0.2580  0.8953  0.7483
   38MOL    C89 9043   4.587   3.718   1.496 -0.1470  0.4818 -0.3143
   38MOL    C90 9044   4.448   3.782   1.482  0.1892  0.1747  0.4346
   38MOL    O91 9045   4.608   3.596   1.489  0.8849  0.0021 -0.3123
   38MOL    H92 9046   4.764   3.652   1.738 -0.3128  1.2622  3.6144
   38MOL    H93 9047   4.776   3.817   1.759 -0.1692  0.1407 -2.1555
   38MOL    H94 9048   4.842   3.660   1.509 -0.3519 -1.2494  0.4193
   38MOL    H95 9049   4.431   3.818   1.381  0.5124  0.8426  0.6063
   38MOL    H96 9050   4.444   3.873   1.542  0.9945  1.6072 -1.6338
   38MOL    H97 9051   4.362   3.718   1.499 -1.1205  1.2541 -1.9378
   38MOL    C98 9052   4.921   3.857   1.486 -0.5229  0.0186 -0.3821
   38MOL    C99 9053   4.892   3.895   1.337 -0.2551  0.0167 -0.0783
   38MOL   O100 9054   5.003   3.968   1.298  0.3198 -0.7460  0.4979
   38MOL   C101 9055   4.993   4.089   1.244 -0.2569  0.0976 -0.2581
   38MOL   C102 9056   5.121   4.176   1.242  0.6461  0.3718  0.4063
   38MOL   O103 9057   4.896   4.140   1.191  0.2875 -0.3255  0.1391
   38MOL   H104 9058   4.921   3.947   1.548 -2.3117  0.0245 -0.3857
   38MOL   H105 9059   5.025   3.829   1.502 -0.4272  1.4066  1.5289
   38MOL   H106 9060   4.808   3.964   1.347 -1.3139 -1.3119  0.4753
   38MOL   H107 9061   5.089   4.278   1.263  0.2580  0.5323 -0.8798
   38MOL   H108 9062   5.150   4.167   1.137  0.8169  0.1579  0.4735
   38MOL   H109 9063   5.197   4.134   1.307 -0.4109 -3.9176 -0.9408
   38MOL   C110 9064   4.859   3.783   1.235  0.3069 -0.0357  0.2482
   38MOL   C111 9065   4.948   3.663   1.230  0.4266  0.5486  1.4756
   38MOL   O112 9066   4.858   3.559   1.256  0.2618  0.2286  0.1954
   38MOL   C113 9067   4.875   3.456   1.338 -0.3798  0.1651 -0.2591
   38MOL   C114 9068   4.777   3.346   1.301  0.4693  0.1863  0.0413
   38MOL   O115 9069   4.954   3.437   1.433 -1.1058  0.9370 -0.1382
   38MOL   H116 9070   4.755   3.753   1.250  0.3208  0.5358  1.5510
   38MOL   H117 9071   4.856   3.838   1.140  0.4493 -1.0636 -0.3574
   38MOL   H118 9072   5.030   3.677   1.301  1.1002  0.6992  0.6802
   38MOL   H119 9073   4.702   3.329   1.379  1.6331 -1.0434  0.9203
   38MOL   H120 9074   4.831   3.251   1.305  0.5432  0.2656  1.1216
   38MOL   H121 9075   4.728   3.367   1.206  0.5674 -2.2484 -0.5812
   38MOL   C122 9076   5.000   3.626   1.097 -0.5703 -0.1407  0.2721
   38MOL   C123 9077   5.124   3.708   1.053 -0.3572  0.5130  0.5935
   38MOL   O124 9078   5.217   3.708   1.163 -0.3446 -0.0529 -0.2839
   38MOL   C125 9079   5.277   3.821   1.190  0.2081  0.2532 -0.8818
   38MOL   C126 9080   5.370   3.796   1.308 -0.8342 -0.4581  0.0361
   38MOL   O127 9081   5.274   3.928   1.132 -0.2798  0.2501  0.8379
   38MOL   H128 9082   5.029   3.521   1.087  0.4689  0.0975  0.7478
   38MOL   H129 9083   4.920   3.652   1.028  1.3568  2.3639 -1.1020
   38MOL   H130 9084   5.103   3.809   1.018  2.0147  0.7305 -0.2897
   38MOL   H131 9085   5.395   3.894   1.350 -1.5132 -0.5040  0.5537
   38MOL   H132 9086   5.456   3.744   1.265 -0.1401  0.9041 -0.2531
   38MOL   H133 9087   5.329   3.736   1.389  0.7894 -1.8021 -0.1083
   38MOL   C134 9088   5.202   3.646   0.936  0.3098  0.2445  0.0359
   38MOL   C135 9089   5.132   3.660   0.802 -0.7819 -0.0779 -0.5581
   38MOL   O136 9090   5.199   3.763   0.735  0.0791  0.6564  0.3323
   38MOL   C137 9091   5.133   3.861   0.656  0.8174  0.4406  0.7927
   38MOL   C138 9092   5.229   3.972   0.615 -0.1461  0.2110 -0.4469
   38MOL   O139 9093   5.010   3.867   0.640  0.2097  0.4373 -0.3318
   38MOL   H140 9094   5.297   3.700   0.924  0.1969  0.2801 -0.7073
   38MOL   H141 9095   5.241   3.548   0.965 -1.3190  0.3516  2.7763
   38MOL   H142 9096   5.026   3.680   0.814 -1.0318 -2.0770  0.7352
   38MOL   H143 9097   5.174   4.047   0.558 -1.1229 -1.0587 -1.1820
   38MOL   H144 9098   5.299   3.921   0.548 -0.9669 -0.0810 -1.0905
   38MOL   H145 9099   5.295   4.014   0.691 -0.4934  2.7777 -1.5040
   38MOL   C146 9100   5.139   3.534   0.730  0.2790  0.1509 -0.6340
   38MOL   C147 9101   5.058   3.415   0.785 -0.1910 -0.4976 -0.2874
   38MOL   O148 9102   4.924   3.428   0.746  0.0798  0.6416  0.2236
   38MOL   C149 9103   4.818   3.392   0.824  0.4231  0.3702  0.3520
   38MOL   C150 9104   4.694   3.379   0.735 -0.4118 -0.6317  0.4044
   38MOL   O151 9105   4.817   3.382   0.944 -0.3307 -0.0234 -0.3306
   38MOL   H152 9106   5.109   3.550   0.627  0.7415  1.0974 -0.6311
   38MOL   H153 9107   5.240   3.495   0.715  1.2127  1.4614  1.9366
   38MOL   H154 9108   5.070   3.414   0.894 -2.4068  0.9482 -0.0002
   38MOL   H155 9109   4.657   3.278   0.718  2.2118 -1.7205  0.9175
   38MOL   H156 9110   4.723   3.413   0.636  0.9647  2.2919  1.7321
   38MOL   H157 9111   4.614   3.448   0.762  0.8307  1.5741 -1.2951
   38MOL   C158 9112   5.108   3.273   0.736 -0.1053 -0.1127  0.1613
   38MOL   C159 9113   5.226   3.216   0.822  0.0228 -0.4879 -0.2007
   38MOL   O160 9114   5.182   3.208   0.955  0.3838 -0.1664 -0.6191
   38MOL   C161 9115   5.245   3.272   1.049  0.3373  0.3863  0.1204
   38MOL   C162 9116   5.177   3.258   1.182 -0.4089 -0.0448  0.1758
   38MOL   O163 9117   5.347   3.340   1.044  0.4919  0.4200  1.0324
   38MOL   H164 9118   5.034   3.197   0.762  0.4757 -1.1018 -1.0515
   38MOL   H165 9119   5.131   3.273   0.630 -1.2873 -1.8984 -0.1166
   38MOL   H166 9120   5.309   3.287   0.812  0.0001 -0.2176  1.3466
   38MOL   H167 9121   5.087   3.196   1.173 -0.0487 -0.6177  0.5228
   38MOL   H168 9122   5.166   3.354   1.232  1.3219  1.0175 -1.4415
   38MOL   H169 9123   5.250   3.201   1.238  0.0375  1.6710  1.3751
   38MOL   C170 9124   5.275   3.075   0.780  0.5054 -0.6506 -0.8941
   38MOL   C171 9125   5.288   3.056   0.620  0.3773 -0.4740 -0.0495
   38MOL   O172 9126   5.423   3.063   0.575  0.4180  0.2195  0.5343
   38MOL   C173 9127   5.476   3.181   0.524 -0.0929  0.2471 -0.3061
   38MOL   C174 9128   5.612   3.171   0.463  0.2185 -0.3685 -0.8018
   38MOL   O175 9129   5.408   3.281   0.514  0.3875 -0.8489  0.0086
   38MOL   H176 9130   5.370   3.063   0.831  0.5868  3.6359  0.2131
   38MOL   H177 9131   5.225   2.989   0.824  0.3664 -0.0714  0.0976
   38MOL   H178 9132   5.231   3.119   0.552  0.1176 -1.8762 -1.1598
   38MOL   H179 9133   5.692   3.143   0.531 -0.1374 -0.0320 -0.2437
   38MOL   H180 9134   5.649   3.268   0.429 -0.0603  0.9075  2.3982
   38MOL   H181 9135   5.629   3.105   0.377 -0.0187 -0.2889 -0.9102
   38MOL   C182 9136   5.242   2.917   0.575  0.0999  0.1340  0.0897
   38MOL   C183 9137   5.092   2.899   0.578  0.0800  0.4468  0.6440
   38MOL   O184 9138   5.033   3.000   0.496 -0.0202 -0.0247  0.0347
   38MOL   C185 9139   4.923   3.070   0.521 -0.1242  0.0121 -0.1859
   38MOL   C186 9140   4.901   3.169   0.412 -0.1418 -0.4018  0.3844
   38MOL   O187 9141   4.854   3.055   0.622  1.0363 -0.5839  0.4577
   38MOL   H188 9142   5.270   2.908   0.470 -0.1015  3.5682 -0.3127
   38MOL   H189 9143   5.297   2.844   0.634  0.7219  0.1726 -0.4323
   38MOL   H190 9144   5.065   2.918   0.682  0.6109 -1.2166  1.1068
   38MOL   H191 9145   4.906   3.121   0.315 -0.2989 -2.1512  1.2279
   38MOL   H192 9146   4.964   3.258   0.422  0.2254 -0.4876 -1.0716
   38MOL   H193 9147   4.796   3.198   0.426 -0.8629 -2.1865 -1.1724
   38MOL   C194 9148   5.055   2.757   0.540 -0.4249 -0.7245  0.2017
   38MOL   C195 9149   4.921   2.707   0.595  0.7852 -0.6505 -0.1491
   38MOL   O196 9150   4.866   2.634   0.488  0.1253 -0.7284 -0.2614
   38MOL   C197 9151   4.804   2.697   0.389 -0.2501  0.7228 -0.5329
   38MOL   C198 9152   4.761   2.601   0.274 -0.7205 -0.4519 -0.0572
   38MOL   O199 9153   4.776   2.820   0.379 -0.2997  0.6292  0.6290
   38MOL   H200 9154   5.069   2.744   0.433  1.3283 -1.1326  0.4651
   38MOL   H201 9155   5.134   2.702   0.590  1.9657  1.4148 -1.1443
   38MOL   H202 9156   4.842   2.782   0.604 -0.2030 -1.7214  0.1028
   38MOL   H203 9157   4.804   2.654   0.190  0.3120  1.2199  1.4797
   38MOL   H204 9158   4.653   2.600   0.266 -0.7733 -0.6750  0.6509
   38MOL   H205 9159   4.814   2.506   0.287  2.3890  0.9539 -1.7777
   38MOL   C206 9160   4.920   2.620   0.727  0.9162  0.1924 -0.3845
   38MOL   C207 9161   4.963   2.691   0.852  0.4809  0.6600 -0.3795
   38MOL   O208 9162   4.865   2.787   0.884  0.0381  0.0013  0.5086
   38MOL   C209 9163   4.886   2.917   0.900  0.0102 -0.3802 -0.4192
   38MOL   C210 9164   4.749   2.988   0.939 -0.3963  0.3561  0.0230
   38MOL   O211 9165   4.997   2.968   0.915  0.2026 -0.3272  0.2922
   38MOL   H212 9166   4.820   2.578   0.738  0.3960  0.6517 -3.0316
   38MOL   H213 9167   4.971   2.524   0.722 -1.4527 -1.1763  1.0702
   38MOL   H214 9168   5.049   2.748   0.816  1.1676 -0.2833 -0.2500
   38MOL   H215 9169   4.742   3.084   0.887  0.1569  2.1135  3.0434
   38MOL   H216 9170   4.759   3.022   1.043  0.0771  3.4514 -0.9743
   38MOL   H217 9171   4.662   2.923   0.927 -0.8470  0.5697  1.8849
   38MOL   C218 9172   5.011   2.601   0.975 -0.0409  0.7481  0.7984
   38MOL   C219 9173   5.157   2.546   0.976 -0.0931 -0.1207 -0.3089
   38MOL   O220 9174   5.243   2.642   1.020 -0.7387  0.7299 -0.0785
   38MOL   C221 9175   5.330   2.707   0.947 -1.0923  0.1423 -0.7943
   38MOL   C222 9176   5.404   2.814   1.028 -0.3403 -0.6361 -0.6357
   38MOL   O223 9177   5.333   2.697   0.827 -0.0967  0.0084  0.4709
   38MOL   H224 9178   4.972   2.640   1.068 -1.9963  0.7194  0.0201
   38MOL   H225 9179   4.940   2.520   0.958  1.2166 -0.5126  1.4468
   38MOL   H226 9180   5.185   2.514   0.876 -0.3388  0.5717 -0.6033
   38MOL   H227 9181   5.511   2.794   1.038 -0.7907 -1.9750  1.6518
   38MOL   H228 9182   5.364   2.822   1.129 -0.1890 -2.0950 -0.4447
   38MOL   H229 9183   5.386   2.905   0.971 -1.5132  0.0053  0.7481
   38MOL   C230 9184   5.176   2.419   1.059 -0.3381  0.0584  0.1113
   38MOL   C231 9185   5.300   2.347   1.021 -0.1258 -0.1348  0.3015
   38MOL   O232 9186   5.301   2.212   1.063 -0.6048 -0.1936 -0.2251
   38MOL   C233 9187   5.310   2.108   0.976  0.2393 -0.0813  0.1228
   38MOL   C234 9188   5.321   1.973   1.044  0.0280 -0.2620  0.5549
   38MOL   O235 9189   5.312   2.117   0.852  0.1283 -0.3075 -0.1777
   38MOL   H236 9190   5.179   2.446   1.164  0.4890 -0.2882  0.1812
   38MOL   H237 9191   5.095   2.348   1.045  0.3534 -1.0182  1.5290
   38MOL   H238 9192   5.390   2.396   1.059  0.6182 -1.4001  0.2139
   38MOL   H239 9193   5.288   1.983   1.147  1.2928 -0.9496  1.0345
   38MOL   H240 9194   5.421   1.932   1.036 -0.1060 -0.8182  1.6723
   38MOL   H241 9195   5.266   1.896   0.990  1.5238  0.5378 -2.2490
   38MOL   H242 9196   5.308   2.350   0.912  1.5402  0.3284  0.4263
   39MOL     C1 9197   0.748   5.327   6.264  0.6409 -0.2843 -0.0542
   39MOL     C2 9198   0.767   5.425   6.381  0.5341 -0.5307 -0.6211
   39MOL     O3 9199   0.902   5.473   6.377  0.2475  0.1870 -0.4811
   39MOL     C4 9200   0.974   5.491   6.493 -0.4855  0.6123 -0.3193
   39MOL     C5 9201   1.119   5.518   6.460 -0.5046 -0.0753  0.1214
   39MOL     O6 9202   0.930   5.489   6.609  0.6070 -0.1160 -0.1409
   39MOL     H7 9203   0.788   5.382   6.178  1.7243  0.9962  1.2472
   39MOL     H8 9204   0.643   5.311   6.238  1.1164 -0.1365 -2.2209
   39MOL     H9 9205   0.754   5.370   6.474  0.0340  0.0885 -0.3287
   39MOL    H10 9206   1.135   5.567   6.364  0.6404 -1.0628 -0.2004
   39MOL    H11 9207   1.171   5.423   6.446 -1.5804 -0.7753  0.7732
   39MOL    H12 9208   1.170   5.575   6.537 -1.3938 -1.2097  1.5919
   39MOL    H13 9209   0.806   5.238   6.287  0.4373 -0.0967  1.1862
   39MOL    C14 9210   0.672   5.544   6.367  0.3772 -0.3039 -0.0748
   39MOL    C15 9211   0.519   5.523   6.353 -0.4072  0.1240  0.2935
   39MOL    O16 9212   0.475   5.504   6.214 -0.0167  0.5020 -0.2620
   39MOL    C17 9213   0.362   5.558   6.173 -0.3964 -0.0249  0.8875
   39MOL    C18 9214   0.333   5.536   6.031 -0.6772 -0.7022  0.4305
   39MOL    O19 9215   0.291   5.626   6.248  0.0567  0.0359 -0.1550
   39MOL    H20 9216   0.673   5.599   6.462 -1.0226 -1.8840  0.8829
   39MOL    H21 9217   0.698   5.609   6.284  0.0693 -0.6944 -0.4785
   39MOL    H22 9218   0.489   5.621   6.391  1.8217 -0.0912  2.7832
   39MOL    H23 9219   0.239   5.580   5.998 -0.5208  0.1786  1.1463
   39MOL    H24 9220   0.316   5.428   6.031 -1.0436 -0.6465  0.5446
   39MOL    H25 9221   0.417   5.571   5.972 -1.5528 -0.5562 -0.7566
   39MOL    C26 9222   0.464   5.411   6.442 -0.2748  0.1036 -1.5120
   39MOL    C27 9223   0.451   5.446   6.591  0.4066  0.3341  0.4452
   39MOL    O28 9224   0.339   5.520   6.607  0.7757 -0.4361 -0.1100
   39MOL    C29 9225   0.338   5.644   6.653 -0.4925 -0.0139  0.2845
   39MOL    C30 9226   0.194   5.702   6.641  0.0660  0.5681  0.0344
   39MOL    O31 9227   0.431   5.716   6.684 -0.2098  0.0136  0.3091
   39MOL    H32 9228   0.360   5.394   6.416 -1.1219 -2.6656  3.0924
   39MOL    H33 9229   0.511   5.314   6.422  1.5573  0.1993  1.9927
   39MOL    H34 9230   0.545   5.494   6.621  1.2167 -1.2193  0.4575
   39MOL    H35 9231   0.146   5.711   6.739 -0.1460  1.9895 -0.1972
   39MOL    H36 9232   0.132   5.634   6.582  1.2980 -1.3479  0.8874
   39MOL    H37 9233   0.196   5.796   6.586  1.0938 -1.4002 -3.4366
   39MOL    C38 9234   0.431   5.308   6.669  0.4120  0.2676 -0.7229
   39MOL    C39 9235   0.389   5.327   6.821 -0.4673  0.2337  0.2048
   39MOL    O40 9236   0.333   5.206   6.863  0.0852  0.6274  0.0793
   39MOL    C41 9237   0.202   5.176   6.857 -0.1977  0.6855  0.4406
   39MOL    C42 9238   0.175   5.028   6.883 -0.6045 -0.6121  0.7394
   39MOL    O43 9239   0.114   5.251   6.816  0.2346  0.3252 -0.1986
   39MOL    H44 9240   0.345   5.254   6.627  0.4331 -2.0280  1.9526
   39MOL    H45 9241   0.511   5.237   6.649 -0.2105 -1.2167  1.7337
   39MOL    H46 9242   0.316   5.407   6.838  0.8914  1.2740  1.2123
   39MOL    H47 9243   0.140   5.010   6.985  2.1600  1.1228  2.0515
   39MOL    H48 9244   0.263   4.964   6.876  0.2599  0.8643 -2.8586
   39MOL    H49 9245   0.101   5.000   6.809 -0.1003  1.6515 -0.6499
   39MOL    C50 9246   0.501   5.353   6.914 -0.1576 -0.2078 -0.9108
   39MOL    C51 9247   0.450   5.376   7.063 -0.2264 -0.6206 -0.2017
   39MOL    O52 9248   0.571   5.385   7.138 -0.0953 -0.6261  0.0192
   39MOL    C53 9249   0.622   5.285   7.212 -0.8040  0.0422 -0.4157
   39MOL    C54 9250   0.756   5.338   7.276  0.2249 -0.6870  1.0050
   39MOL    O55 9251   0.573   5.182   7.258 -0.6600  0.5584 -0.4907
   39MOL    H56 9252   0.580   5.278   6.915  0.7547  0.7635  1.0909
   39MOL    H57 9253   0.570   5.431   6.883  1.4440 -1.0159  0.5370
   39MOL    H58 9254   0.394   5.293   7.106  0.0587 -0.2931  0.8228
   39MOL    H59 9255   0.725   5.402   7.358 -1.3886  0.3860 -0.4244
   39MOL    H60 9256   0.812   5.393   7.200 -2.8963 -0.2678 -1.0505
   39MOL    H61 9257   0.823   5.266   7.324  1.2178  0.9945  2.1996
   39MOL    C62 9258   0.356   5.499   7.073 -0.1263  0.4391 -0.2616
   39MOL    C63 9259   0.303   5.526   7.213 -0.3664  0.0269 -0.5218
   39MOL    O64 9260   0.236   5.650   7.229  0.2562  0.2414 -0.4289
   39MOL    C65 9261   0.305   5.761   7.263 -0.2585 -0.0048 -0.6002
   39MOL    C66 9262   0.225   5.883   7.245  0.3241 -0.6735 -0.0156
   39MOL    O67 9263   0.424   5.764   7.295  0.3723 -0.7022  0.2439
   39MOL    H68 9264   0.413   5.586   7.040 -1.3880  0.2901 -2.9310
   39MOL    H69 9265   0.266   5.499   7.011  0.2076 -1.0765 -0.7582
   39MOL    H70 9266   0.389   5.538   7.280  0.5696  0.3279 -1.7653
   39MOL    H71 9267   0.303   5.959   7.234 -1.7014  2.3128  4.4513
   39MOL    H72 9268   0.152   5.899   7.324 -1.6412  1.9231 -2.2789
   39MOL    H73 9269   0.160   5.875   7.158  0.1046  1.5546 -0.0924
   39MOL    C74 9270   0.200   5.419   7.262  0.2425 -0.3753  0.0971
   39MOL    C75 9271   0.260   5.337   7.381 -0.5962 -0.1055  0.3140
   39MOL    O76 9272   0.276   5.430   7.484  0.1824  0.0753 -0.3973
   39MOL    C77 9273   0.401   5.474   7.526  0.4132 -0.3854  0.3700
   39MOL    C78 9274   0.385   5.584   7.630  0.0203 -0.0494 -0.3440
   39MOL    O79 9275   0.509   5.437   7.479  0.1623  0.1691 -0.2540
   39MOL    H80 9276   0.111   5.469   7.301 -1.1544 -1.5945 -1.4657
   39MOL    H81 9277   0.166   5.347   7.188  1.0868 -1.7370  1.0160
   39MOL    H82 9278   0.354   5.291   7.352 -1.1532 -1.4451  0.5822
   39MOL    H83 9279   0.315   5.661   7.599  0.7522  1.2895  1.3183
   39MOL    H84 9280   0.474   5.645   7.627  0.7309 -1.1101 -1.6543
   39MOL    H85 9281   0.366   5.553   7.732 -0.0073 -2.2728 -0.9907
   39MOL    C86 9282   0.157   5.228   7.424 -0.0624  0.1177 -0.6659
   39MOL    C87 9283   0.218   5.086   7.473 -0.6291 -0.2047  0.1754
   39MOL    O88 9284   0.271   5.006   7.375 -0.0940  0.4571 -0.6311
   39MOL    C89 9285   0.201   4.930   7.304 -0.1345  0.5241  0.5026
   39MOL    C90 9286   0.288   4.854   7.197 -0.1631  0.1856  0.0954
   39MOL    O91 9287   0.080   4.913   7.310  0.1139 -0.3428 -0.0908
   39MOL    H92 9288   0.095   5.271   7.502  0.5992  0.6176 -0.4201
   39MOL    H93 9289   0.088   5.199   7.344 -1.6633 -0.8767  1.0214
   39MOL    H94 9290   0.137   5.035   7.525 -1.3962 -0.6797 -1.4552
   39MOL    H95 9291   0.384   4.834   7.245  0.0258  0.1082 -0.3149
   39MOL    H96 9292   0.315   4.914   7.110  1.4361  0.7893  0.9879
   39MOL    H97 9293   0.248   4.761   7.159  0.0005 -0.1589  0.7516
   39MOL    C98 9294   0.331   5.110   7.578  0.1361  0.1807 -0.3115
   39MOL    C99 9295   0.351   5.010   7.686  0.5878 -0.4817 -0.1295
   39MOL   O100 9296   0.396   4.889   7.628  0.2028 -0.6648  0.5139
   39MOL   C101 9297   0.345   4.767   7.650 -0.1821 -0.4409 -1.1620
   39MOL   C102 9298   0.409   4.665   7.561  0.8893  0.0965  0.5670
   39MOL   O103 9299   0.257   4.739   7.731 -0.5030  0.6695 -0.3496
   39MOL   H104 9300   0.424   5.113   7.522  1.3315 -1.7137  1.5329
   39MOL   H105 9301   0.317   5.206   7.627 -1.5825 -0.9936  1.5608
   39MOL   H106 9302   0.255   4.991   7.735 -0.2566  1.3926 -1.0249
   39MOL   H107 9303   0.518   4.672   7.568  1.3348 -1.7693 -2.9458
   39MOL   H108 9304   0.387   4.671   7.454 -0.4539 -2.3202  0.6595
   39MOL   H109 9305   0.386   4.562   7.588  0.2770 -0.1191 -0.7414
   39MOL   C110 9306   0.449   5.054   7.798  0.6312  0.2549  0.0779
   39MOL   C111 9307   0.593   5.078   7.753 -0.3680  0.1099 -0.2594
   39MOL   O112 9308   0.647   5.139   7.871 -0.2873 -0.8166  0.9403
   39MOL   C113 9309   0.671   5.263   7.877  0.2129 -0.0051 -0.4112
   39MOL   C114 9310   0.777   5.287   7.989 -0.3152  1.1313 -0.2085
   39MOL   O115 9311   0.628   5.354   7.802 -0.1392 -0.4171 -0.3796
   39MOL   H116 9312   0.418   5.148   7.844  1.1823  0.8429 -0.7413
   39MOL   H117 9313   0.452   4.981   7.879  1.4644 -0.2294 -0.3839
   39MOL   H118 9314   0.598   5.141   7.664 -2.0805  0.2864 -0.2457
   39MOL   H119 9315   0.766   5.223   0.055  2.1209  0.2825 -0.4925
   39MOL   H120 9316   0.767   5.392   8.017 -0.5294  1.3191 -0.9842
   39MOL   H121 9317   0.874   5.255   7.951  0.8385  2.3986  1.5894
   39MOL   C122 9318   0.673   4.954   7.717  0.3162  0.0353 -0.8714
   39MOL   C123 9319   0.824   4.980   7.697 -0.2063  0.5832 -0.5754
   39MOL   O124 9320   0.882   4.847   7.709 -0.2837  0.0122 -0.5208
   39MOL   C125 9321   0.945   4.810   7.828 -0.2946 -0.1090  0.5537
   39MOL   C126 9322   0.974   4.660   7.844 -0.0851 -0.5507  0.4182
   39MOL   O127 9323   0.977   4.881   7.923 -0.4336 -0.6340  0.8645
   39MOL   H128 9324   0.660   4.903   7.812  1.5590  1.1033 -0.1043
   39MOL   H129 9325   0.632   4.895   7.635  0.4621  0.9814 -1.6454
   39MOL   H130 9326   0.862   5.053   7.768  2.7538 -1.0322 -0.4130
   39MOL   H131 9327   1.078   4.641   7.819  1.0170  4.5746  0.6936
   39MOL   H132 9328   0.901   4.614   7.777  0.2629 -0.8608  0.2483
   39MOL   H133 9329   0.939   4.620   7.939  0.2049  2.4076  1.8238
   39MOL   C134 9330   0.850   5.041   7.554 -0.0074 -0.2691  0.2342
   39MOL   C135 9331   0.992   5.100   7.534  0.0634 -0.1033 -0.4724
   39MOL   O136 9332   0.999   5.218   7.624  0.2945 -0.1507  0.0615
   39MOL   C137 9333   1.063   5.333   7.591  0.4914  0.3749  0.4380
   39MOL   C138 9334   1.048   5.444   7.686 -0.6532 -0.3037 -0.1426
   39MOL   O139 9335   1.126   5.353   7.483 -0.7128 -0.4130 -0.3452
   39MOL   H140 9336   0.826   4.962   7.483  1.1752 -0.0751 -0.3917
   39MOL   H141 9337   0.782   5.123   7.531  0.2735 -0.6502 -2.0276
   39MOL   H142 9338   1.001   5.129   7.430  1.4514 -2.6747 -1.1101
   39MOL   H143 9339   1.053   5.542   7.639 -0.7320 -0.4784 -0.5188
   39MOL   H144 9340   1.123   5.429   7.764 -2.1022 -1.1465  1.1087
   39MOL   H145 9341   0.947   5.445   7.727 -0.3773 -0.5493  0.5596
   39MOL   C146 9342   1.109   5.005   7.574  0.0934 -1.3665 -0.1956
   39MOL   C147 9343   1.126   4.884   7.487 -0.2149  0.1891  0.7171
   39MOL   O148 9344   1.160   4.927   7.359  0.2199 -0.2357 -0.4737
   39MOL   C149 9345   1.081   4.904   7.249  0.0799  0.1122 -0.3415
   39MOL   C150 9346   1.127   4.974   7.120 -0.1189 -0.0187 -0.4724
   39MOL   O151 9347   0.978   4.845   7.248  0.1374  0.5360  0.9799
   39MOL   H152 9348   1.197   5.069   7.575  0.0973 -1.3645 -0.7403
   39MOL   H153 9349   1.097   4.967   7.676 -1.6035 -1.1084 -0.2861
   39MOL   H154 9350   1.040   4.817   7.491 -0.7770  0.9397  1.2904
   39MOL   H155 9351   1.144   5.077   7.150 -3.9956  0.3723  0.6872
   39MOL   H156 9352   1.040   4.976   7.054 -0.1477  1.0894 -0.4124
   39MOL   H157 9353   1.218   4.931   7.079 -0.3069 -0.5979 -0.2909
   39MOL   C158 9354   1.245   4.798   7.535  1.2468 -0.2270 -0.1489
   39MOL   C159 9355   1.263   4.667   7.441 -1.0618 -0.2188 -0.4635
   39MOL   O160 9356   1.337   4.709   7.320  0.6923 -0.0713  0.0533
   39MOL   C161 9357   1.470   4.739   7.311  0.3187 -0.1526 -0.0756
   39MOL   C162 9358   1.521   4.802   7.182  0.5445  0.2304 -0.1794
   39MOL   O163 9359   1.556   4.724   7.399 -0.1546  1.1225 -0.4455
   39MOL   H164 9360   1.332   4.864   7.539  1.1842 -0.1539  0.0366
   39MOL   H165 9361   1.229   4.767   7.639  0.6193  0.4792 -0.0334
   39MOL   H166 9362   1.164   4.636   7.406 -1.7566  2.1180 -0.6908
   39MOL   H167 9363   1.572   4.731   7.118  1.2009  0.7179 -0.1992
   39MOL   H168 9364   1.589   4.882   7.211 -0.1028  0.6796  0.1210
   39MOL   H169 9365   1.434   4.842   7.130 -0.7457 -0.9632  1.0184
   39MOL   C170 9366   1.338   4.546   7.503  0.0365  0.1613 -0.2980
   39MOL   C171 9367   1.256   4.480   7.611 -0.1628 -0.4565  0.2200
   39MOL   O172 9368   1.162   4.396   7.554 -0.3791  0.2373 -0.7381
   39MOL   C173 9369   1.029   4.445   7.540 -0.6624  0.1266 -0.9014
   39MOL   C174 9370   0.939   4.332   7.510  0.0412  0.0197 -0.4198
   39MOL   O175 9371   0.986   4.560   7.555 -0.1165 -0.4086 -0.2868
   39MOL   H176 9372   1.359   4.475   7.423 -0.9072 -1.1658  0.6065
   39MOL   H177 9373   1.436   4.568   7.545  0.4173 -1.5388 -0.2607
   39MOL   H178 9374   1.209   4.558   7.670  0.2457  0.5143 -0.7236
   39MOL   H179 9375   0.900   4.339   7.409 -0.8099  0.1149 -0.0890
   39MOL   H180 9376   0.853   4.337   7.577 -0.0880  1.8423 -0.7098
   39MOL   H181 9377   0.989   4.235   7.518 -0.1853 -0.1102 -0.6171
   39MOL   C182 9378   1.347   4.402   7.706 -0.3983 -0.0917 -0.2533
   39MOL   C183 9379   1.444   4.473   7.803  0.3442 -0.0652 -0.5440
   39MOL   O184 9380   1.380   4.518   7.926  0.2933 -0.2167  0.1279
   39MOL   C185 9381   1.327   4.639   7.934  0.2590 -0.0582  0.2107
   39MOL   C186 9382   1.265   4.665   0.047  0.4109  0.1570 -0.3759
   39MOL   O187 9383   1.323   4.727   7.849 -0.1194  0.0040  0.4015
   39MOL   H188 9384   1.283   4.335   7.764  1.3270 -2.1317 -0.6404
   39MOL   H189 9385   1.408   4.336   7.645  0.2050  0.6379 -0.4449
   39MOL   H190 9386   1.477   4.565   7.755  0.8760 -0.7767 -1.5772
   39MOL   H191 9387   1.315   4.741   0.108 -1.2228  2.1416 -1.4576
   39MOL   H192 9388   1.265   4.573   0.105  3.5367 -0.4317 -1.2246
   39MOL   H193 9389   1.159   4.681   0.027  0.3066 -1.3120 -1.0655
   39MOL   C194 9390   1.572   4.389   7.845  0.0082 -0.1837 -0.0874
   39MOL   C195 9391   1.673   4.353   7.733 -0.2713  0.0449 -0.5812
   39MOL   O196 9392   1.742   4.472   7.698 -0.2089 -0.5226 -0.1640
   39MOL   C197 9393   1.774   4.485   7.563  0.3511  0.0434  0.1666
   39MOL   C198 9394   1.862   4.610   7.539 -0.2443 -0.1077 -0.2541
   39MOL   O199 9395   1.737   4.405   7.475  0.3209 -0.1535  0.7164
   39MOL   H200 9396   1.624   4.432   7.931  0.4862 -0.0462 -0.4410
   39MOL   H201 9397   1.536   4.297   7.890 -0.2624  0.7003  1.5482
   39MOL   H202 9398   1.628   4.298   7.650  2.1784  0.7762 -2.4584
   39MOL   H203 9399   1.836   4.669   7.452 -2.2185 -1.1933 -0.4247
   39MOL   H204 9400   1.962   4.569   7.522 -0.7101 -0.3775 -2.5308
   39MOL   H205 9401   1.860   4.670   7.630 -1.0189  1.3867 -1.2472
   39MOL   C206 9402   1.764   4.239   7.780 -0.7306  0.3221  0.3806
   39MOL   C207 9403   1.687   4.105   7.811  0.2198 -1.0643 -0.3506
   39MOL   O208 9404   1.646   4.050   7.684  0.5108 -0.2922 -0.5214
   39MOL   C209 9405   1.516   4.006   7.669 -0.0502  0.0086 -0.6643
   39MOL   C210 9406   1.494   3.942   7.531 -0.0495 -0.7163  0.1694
   39MOL   O211 9407   1.428   4.028   7.746  0.1038  0.2060 -0.5189
   39MOL   H212 9408   1.834   4.222   7.698 -0.1670  1.7663  0.5475
   39MOL   H213 9409   1.832   4.258   7.863  0.3601 -2.0917  0.0950
   39MOL   H214 9410   1.604   4.122   7.879  1.0120  1.3361  0.0519
   39MOL   H215 9411   1.483   3.835   7.548 -1.8492 -0.5242  0.2472
   39MOL   H216 9412   1.570   3.978   7.461 -0.8370  1.5890  0.4563
   39MOL   H217 9413   1.402   3.967   7.479  0.6404 -1.9308 -1.6946
   39MOL   C218 9414   1.772   3.993   7.884 -0.0947  0.6649 -0.4161
   39MOL   C219 9415   1.701   3.855   7.914 -0.4711 -0.3922 -0.1963
   39MOL   O220 9416   1.806   3.760   7.942  0.0926 -0.3583 -0.2880
   39MOL   C221 9417   1.839   3.669   7.850 -0.9088 -0.3038  0.2872
   39MOL   C222 9418   1.913   3.551   7.916  0.1687  0.3140 -0.6660
   39MOL   O223 9419   1.814   3.665   7.730  0.3207  0.3164 -0.0547
   39MOL   H224 9420   1.846   3.959   7.812 -2.7645 -0.0148 -2.9422
   39MOL   H225 9421   1.824   4.023   7.974 -0.2667  1.1575 -0.4786
   39MOL   H226 9422   1.647   3.823   7.825 -1.0651  2.4822 -0.9337
   39MOL   H227 9423   2.019   3.573   7.927  0.1794  1.5849 -2.9251
   39MOL   H228 9424   1.897   3.453   7.870  0.5378  0.0223 -0.1633
   39MOL   H229 9425   1.891   3.524   8.019  0.3133  0.3187 -0.6338
   39MOL   C230 9426   1.596   3.863   8.019 -0.0419  0.0714 -0.4450
   39MOL   C231 9427   1.578   3.735   0.075  0.5304  0.0785  0.2846
   39MOL   O232 9428   1.503   3.755   0.195 -0.1712  0.4525 -0.8900
   39MOL   C233 9429   1.559   3.733   0.317  0.1783 -1.0994 -0.4833
   39MOL   C234 9430   1.468   3.800   0.419 -0.1367 -0.1387 -0.4201
   39MOL   O235 9431   1.668   3.679   0.350  0.6187  0.1244 -0.1187
   39MOL   H236 9432   1.607   3.937   0.077  0.2741 -0.3694 -0.0721
   39MOL   H237 9433   1.499   3.882   7.973 -1.2343 -1.7140  1.2269
   39MOL   H238 9434   1.674   3.702   0.114 -0.0361 -0.0441  1.6128
   39MOL   H239 9435   1.498   3.905   0.426  0.4332 -0.2791 -0.6946
   39MOL   H240 9436   1.477   3.755   0.518 -0.6703  0.3258 -0.1594
   39MOL   H241 9437   1.365   3.816   0.388 -0.4975 -2.4424 -0.4442
   39MOL   H242 9438   1.532   3.664   0.006 -0.5879  0.3106  0.7768
   40MOL     C1 9439   6.024   2.713   4.878 -0.1964 -0.3603 -0.0437
   40MOL     C2 9440   6.059   2.599   4.966 -0.6189 -0.1697 -0.5245
   40MOL     O3 9441   6.198   2.570   4.940 -0.3393 -0.4437  0.6217
   40MOL     C4 9442   6.246   2.446   4.974 -0.0782  0.3583 -0.3333
   40MOL     C5 9443   6.394   2.435   4.939  0.2674  0.0966  0.7240
   40MOL     O6 9444   6.181   2.351   5.008  0.4529  0.7634 -0.3418
   40MOL     H7 9445   6.069   2.811   4.900 -0.5741 -0.1384 -0.2602
   40MOL     H8 9446   5.916   2.729   4.875 -0.0673  0.5186 -0.3148
   40MOL     H9 9447   6.003   2.509   4.943 -2.2398  0.3252  1.3777
   40MOL    H10 9448   6.421   2.331   4.921  0.5681  0.3204 -0.1319
   40MOL    H11 9449   6.448   2.472   5.026 -0.2776  1.0727  0.6533
   40MOL    H12 9450   6.421   2.501   4.857  1.3029  0.3424  1.2564
   40MOL    H13 9451   6.050   2.696   4.774 -0.8469  0.2550 -0.3062
   40MOL    C14 9452   6.043   2.629   5.120  0.2714  0.3428 -0.3570
   40MOL    C15 9453   5.889   2.622   5.150  0.4200 -0.5018  0.4738
   40MOL    O16 9454   5.854   2.483   5.150  0.4385  0.3732  0.2920
   40MOL    C17 9455   5.790   2.419   5.048  0.0190 -0.5558  0.1700
   40MOL    C18 9456   5.817   2.272   5.049 -0.4190  0.1748 -0.2932
   40MOL    O19 9457   5.714   2.469   4.967  0.0470  0.1106  0.8571
   40MOL    H20 9458   6.098   2.553   5.176 -0.8073  0.2944  0.6724
   40MOL    H21 9459   6.094   2.717   5.160 -0.0291  0.6412 -0.6246
   40MOL    H22 9460   5.834   2.669   5.069 -0.6322  1.3993  2.2333
   40MOL    H23 9461   5.924   2.253   5.034 -0.6077  0.0091 -1.5376
   40MOL    H24 9462   5.770   2.242   4.955 -1.4122  2.5741 -0.6023
   40MOL    H25 9463   5.778   2.221   5.137  1.0879  0.2040  0.4139
   40MOL    C26 9464   5.840   2.685   5.278 -0.6237  0.6625  0.1187
   40MOL    C27 9465   5.859   2.840   5.304  0.4747  0.4909  0.0853
   40MOL    O28 9466   5.766   2.895   5.214 -0.4355  0.1784  0.7417
   40MOL    C29 9467   5.806   2.944   5.097 -0.4819 -1.3422  0.3242
   40MOL    C30 9468   5.693   2.991   5.010  0.6860  0.3409  0.0761
   40MOL    O31 9469   5.924   2.966   5.062  0.4122 -0.5096  0.6530
   40MOL    H32 9470   5.733   2.667   5.290 -0.4859 -0.9635 -0.9211
   40MOL    H33 9471   5.907   2.643   5.353 -0.0429  0.7225 -0.3697
   40MOL    H34 9472   5.961   2.878   5.296  1.7865 -3.3682 -2.6389
   40MOL    H35 9473   5.644   2.896   4.990 -0.7718  0.8908  0.9840
   40MOL    H36 9474   5.727   3.034   4.915 -0.9398  0.2136 -0.5726
   40MOL    H37 9475   5.636   3.064   5.068 -1.7648 -1.6471  0.2437
   40MOL    C38 9476   5.807   2.881   5.444 -0.0162 -0.0108 -0.1871
   40MOL    C39 9477   5.922   2.841   5.546  1.0482  0.3680  0.3699
   40MOL    O40 9478   6.035   2.931   5.538 -0.8175 -0.0406  0.3501
   40MOL    C41 9479   6.152   2.884   5.492 -0.1267 -0.6231  0.6162
   40MOL    C42 9480   6.256   2.992   5.484  0.0662 -0.1556 -0.1619
   40MOL    O43 9481   6.176   2.769   5.463 -0.1272  0.0101  0.1530
   40MOL    H44 9482   5.809   2.990   5.435 -1.3812  0.1110  0.8591
   40MOL    H45 9483   5.712   2.837   5.475  0.6625 -2.6682 -1.7046
   40MOL    H46 9484   5.948   2.735   5.540 -0.4760  0.1011 -2.0582
   40MOL    H47 9485   6.338   2.959   5.420  0.4679 -1.3020  0.9335
   40MOL    H48 9486   6.302   3.006   5.582  2.5657  0.8028 -1.4213
   40MOL    H49 9487   6.213   3.085   5.446  0.9685  0.5158  0.4622
   40MOL    C50 9488   5.868   2.856   5.691 -0.4349 -0.2851  0.2416
   40MOL    C51 9489   5.975   2.833   5.810 -0.1311 -0.1700 -0.5940
   40MOL    O52 9490   5.903   2.841   5.932 -0.2222  0.6000  0.3091
   40MOL    C53 9491   5.963   2.912   6.024  0.2415 -0.0155 -0.0037
   40MOL    C54 9492   5.882   2.890   6.156  0.1015  0.0377 -0.8572
   40MOL    O55 9493   6.066   2.982   6.016 -0.1571 -0.0268 -0.1488
   40MOL    H56 9494   5.828   2.957   5.702 -0.1736 -0.4598  3.1523
   40MOL    H57 9495   5.784   2.788   5.708 -0.1825 -0.9519 -1.0798
   40MOL    H58 9496   6.037   2.922   5.809 -0.4881  0.1511  2.1932
   40MOL    H59 9497   5.784   2.847   6.135  0.3131 -0.8397 -0.0712
   40MOL    H60 9498   5.867   2.988   6.202  2.1718  0.6004 -1.3101
   40MOL    H61 9499   5.941   2.835   6.229 -2.8169 -0.8855  0.8832
   40MOL    C62 9500   6.056   2.703   5.799 -0.3921 -0.2022 -0.6098
   40MOL    C63 9501   6.180   2.695   5.894 -0.8200  0.3537 -0.4789
   40MOL    O64 9502   6.202   2.559   5.930  0.3701  0.3112  0.3401
   40MOL    C65 9503   6.187   2.506   6.056 -0.4420 -0.8635  0.8537
   40MOL    C66 9504   6.192   2.356   6.074 -0.1103 -0.5715 -0.2031
   40MOL    O67 9505   6.169   2.583   6.151  0.7324  0.3670 -0.0710
   40MOL    H68 9506   5.995   2.615   5.818 -0.6069  0.2794  0.9842
   40MOL    H69 9507   6.099   2.695   5.699 -0.4365  1.4201 -0.7817
   40MOL    H70 9508   6.160   2.752   5.985  0.2454 -0.9488  0.5725
   40MOL    H71 9509   6.211   2.316   5.974 -2.4064  1.6356 -1.5871
   40MOL    H72 9510   6.095   2.318   6.107 -0.2379  0.7093  0.9500
   40MOL    H73 9511   6.274   2.335   6.143  1.7144  2.7426 -1.2483
   40MOL    C74 9512   6.311   2.748   5.830 -0.4956 -0.1599  0.6204
   40MOL    C75 9513   6.441   2.724   5.915  0.0969 -0.9214  0.8276
   40MOL    O76 9514   6.543   2.785   5.836 -0.2468  0.5722 -0.5795
   40MOL    C77 9515   6.608   2.711   5.744 -0.4240  0.2542  0.3032
   40MOL    C78 9516   6.692   2.795   5.648  0.0233 -0.1584 -0.1615
   40MOL    O79 9517   6.595   2.588   5.722  0.3280 -0.1953  0.4520
   40MOL    H80 9518   6.312   2.718   5.725  2.7490  0.4681  0.4359
   40MOL    H81 9519   6.300   2.857   5.827  1.5644  0.0398 -1.5225
   40MOL    H82 9520   6.468   2.619   5.924  0.3876 -0.8792  0.4364
   40MOL    H83 9521   6.755   2.857   5.711  1.0625 -1.3778  0.0320
   40MOL    H84 9522   6.631   2.857   5.583  1.3351  2.3443  0.9564
   40MOL    H85 9523   6.738   2.718   5.585 -0.6367 -0.8153  0.1476
   40MOL    C86 9524   6.435   2.788   6.056 -0.2754  0.4488 -0.5203
   40MOL    C87 9525   6.555   2.762   6.142 -0.3068 -0.3920  0.2507
   40MOL    O88 9526   6.654   2.845   6.111  0.3606 -0.6386  0.5972
   40MOL    C89 9527   6.776   2.797   6.075 -0.6220  0.2611 -0.1431
   40MOL    C90 9528   6.886   2.900   6.082  0.0912 -0.3412  0.3491
   40MOL    O91 9529   6.804   2.680   6.054 -0.0389 -0.4045 -0.5028
   40MOL    H92 9530   6.399   2.891   6.064 -1.5376 -0.0042 -0.2103
   40MOL    H93 9531   6.356   2.727   6.100  0.8656  1.0299  2.4060
   40MOL    H94 9532   6.571   2.654   6.138  1.5392 -0.1974  1.8669
   40MOL    H95 9533   6.956   2.905   5.999 -1.0994 -1.4940 -0.7324
   40MOL    H96 9534   6.925   2.863   6.177 -0.9371  1.2665  1.4287
   40MOL    H97 9535   6.851   3.003   6.092  0.1862 -0.3804  1.1431
   40MOL    C98 9536   6.518   2.782   6.289  0.9404 -0.0521 -0.0293
   40MOL    C99 9537   6.631   2.742   6.386 -0.6508 -0.5069 -1.0392
   40MOL   O100 9538   6.591   2.791   6.509 -0.3447 -0.3046  0.0591
   40MOL   C101 9539   6.658   2.887   6.568  0.4455 -0.3624 -0.5530
   40MOL   C102 9540   6.601   2.934   6.706  0.0816 -0.2363 -0.7273
   40MOL   O103 9541   6.760   2.939   6.513 -0.1405 -0.0556 -0.1087
   40MOL   H104 9542   6.488   2.887   6.291  0.6581 -0.1462  1.0948
   40MOL   H105 9543   6.424   2.731   6.311 -0.4994  1.7768 -1.7327
   40MOL   H106 9544   6.719   2.789   6.342 -1.3208  0.0822 -1.7959
   40MOL   H107 9545   6.569   3.038   6.692 -0.2965 -0.3944 -1.0201
   40MOL   H108 9546   6.685   2.943   6.775  0.2495 -0.7771 -0.8594
   40MOL   H109 9547   6.524   2.868   6.746 -0.2663  0.6092  0.0228
   40MOL   C110 9548   6.654   2.598   6.395 -0.3613  0.7332  0.0312
   40MOL   C111 9549   6.793   2.560   6.449  0.0985 -0.1734  0.4909
   40MOL   O112 9550   6.800   2.414   6.441  0.3814 -0.0712  0.2604
   40MOL   C113 9551   6.790   2.338   6.552  0.2316 -0.0622 -0.2457
   40MOL   C114 9552   6.794   2.189   6.516  0.3289  0.8143  0.2942
   40MOL   O115 9553   6.777   2.375   6.665  0.8350  0.0673  0.3842
   40MOL   H116 9554   6.582   2.539   6.451  1.1125 -1.7266 -0.5794
   40MOL   H117 9555   6.659   2.551   6.297  1.8981 -0.6885  0.8019
   40MOL   H118 9556   6.787   2.591   6.553 -2.9964 -0.0489  0.3112
   40MOL   H119 9557   6.816   2.166   6.412  3.2460  2.0151  0.5991
   40MOL   H120 9558   6.700   2.136   6.533  1.4116 -0.9650  0.7890
   40MOL   H121 9559   6.869   2.142   6.579 -0.7407  0.0722  1.0434
   40MOL   C122 9560   6.915   2.628   6.378 -0.3645  0.4095  0.0188
   40MOL   C123 9561   7.051   2.613   6.458 -0.4253 -0.1170  0.3780
   40MOL   O124 9562   7.163   2.590   6.378  0.0488  0.0339  0.3757
   40MOL   C125 9563   7.190   2.477   6.308 -0.1819  0.6474  0.1514
   40MOL   C126 9564   7.331   2.480   6.244  0.4874  0.0462  0.4794
   40MOL   O127 9565   7.121   2.374   6.312  0.0244 -0.3832  0.1436
   40MOL   H128 9566   6.916   2.580   6.280 -1.2930  0.2024  0.1138
   40MOL   H129 9567   6.910   2.735   6.357  0.5101  0.3702 -0.4265
   40MOL   H130 9568   7.038   2.528   6.525  0.4530 -1.2367 -0.8468
   40MOL   H131 9569   7.399   2.533   6.311  2.4808  0.2075 -1.6086
   40MOL   H132 9570   7.324   2.541   6.154 -1.8018  0.0751  0.6588
   40MOL   H133 9571   7.360   2.377   6.224 -2.6585 -0.5037 -1.6084
   40MOL   C134 9572   7.076   2.743   6.545 -0.6135 -0.3473  0.1743
   40MOL   C135 9573   7.216   2.735   6.621 -0.6223  0.1405  0.0305
   40MOL   O136 9574   7.245   2.871   6.670  0.2689  0.0910  0.2635
   40MOL   C137 9575   7.368   2.923   6.654  0.0755  0.6202  0.0914
   40MOL   C138 9576   7.366   3.073   6.658  0.5810  0.8726  0.1083
   40MOL   O139 9577   7.472   2.862   6.635  0.0754 -0.4523  0.7145
   40MOL   H140 9578   7.085   2.832   6.483  4.0288 -0.4865  0.4971
   40MOL   H141 9579   6.996   2.754   6.618 -1.6495 -0.7219 -0.8956
   40MOL   H142 9580   7.279   2.709   6.535  0.5532  0.2223  0.8662
   40MOL   H143 9581   7.296   3.123   6.592 -2.1872 -0.6053  1.8393
   40MOL   H144 9582   7.464   3.119   6.641  1.5117 -1.6561 -1.5996
   40MOL   H145 9583   7.345   3.093   6.763 -2.3579  1.7849 -0.6138
   40MOL   C146 9584   7.228   2.626   6.719  0.0270 -0.9023  0.3003
   40MOL   C147 9585   7.142   2.637   6.844  0.2523 -0.8279  0.5380
   40MOL   O148 9586   7.007   2.605   6.824 -0.3113 -0.0552  0.2625
   40MOL   C149 9587   6.911   2.685   6.884 -0.3529  0.4311 -0.8135
   40MOL   C150 9588   6.779   2.628   6.857 -0.0955  0.6815  0.1471
   40MOL   O151 9589   6.931   2.773   6.971  1.0022 -0.0951  0.1074
   40MOL   H152 9590   7.229   2.529   6.669  0.5892 -0.2057 -1.0529
   40MOL   H153 9591   7.335   2.639   6.738  0.3147 -0.2076 -1.7160
   40MOL   H154 9592   7.162   2.737   6.882 -2.0863 -0.2616  0.3485
   40MOL   H155 9593   6.757   2.622   6.751  3.7743  1.1429 -0.7717
   40MOL   H156 9594   6.700   2.691   6.896 -0.7004 -0.7979  1.3346
   40MOL   H157 9595   6.777   2.525   6.894 -0.8043 -0.3523 -2.6267
   40MOL   C158 9596   7.202   2.545   6.952  0.6712  0.7579 -0.2652
   40MOL   C159 9597   7.340   2.591   7.014  0.0823 -0.2081  0.0427
   40MOL   O160 9598   7.312   2.688   7.108  0.0318 -0.8381 -0.1282
   40MOL   C161 9599   7.332   2.817   7.085  0.1871  0.4442 -0.0145
   40MOL   C162 9600   7.264   2.914   7.184 -0.2284 -0.4976  0.3371
   40MOL   O163 9601   7.386   2.852   6.983 -0.3617 -0.5617 -0.0195
   40MOL   H164 9602   7.129   2.536   7.033 -0.2319  2.3562 -0.8883
   40MOL   H165 9603   7.209   2.441   6.920  1.9128  1.5711 -2.7213
   40MOL   H166 9604   7.409   2.625   6.936 -0.0459  0.5435  0.2529
   40MOL   H167 9605   7.167   2.873   7.211 -0.1511 -1.0189 -0.1627
   40MOL   H168 9606   7.249   3.012   7.138 -0.5438 -0.9409 -0.5108
   40MOL   H169 9607   7.320   2.937   7.275  0.7188 -1.7141  0.0695
   40MOL   C170 9608   7.426   2.481   7.090 -0.5814  0.0250  0.0716
   40MOL   C171 9609   7.477   2.369   6.990 -0.9180 -0.2508 -0.0106
   40MOL   O172 9610   7.594   2.420   6.932 -0.5243  0.0190 -0.3556
   40MOL   C173 9611   7.605   2.440   6.799  0.0557 -0.2494 -0.3227
   40MOL   C174 9612   7.746   2.490   6.749 -0.4336 -0.6035  0.1726
   40MOL   O175 9613   7.517   2.417   6.716 -0.2799  0.3992  0.1109
   40MOL   H176 9614   7.504   2.512   7.160  0.3762 -3.5239  0.6980
   40MOL   H177 9615   7.360   2.433   7.162  0.1848 -0.3788  0.5156
   40MOL   H178 9616   7.396   2.349   6.921  0.7659  0.6121 -2.2986
   40MOL   H179 9617   7.794   2.534   6.836  1.1313  1.0552 -1.4738
   40MOL   H180 9618   7.747   2.573   6.677  1.1719 -0.1350  0.7168
   40MOL   H181 9619   7.800   2.407   6.703  1.5985  1.1711 -0.7516
   40MOL   C182 9620   7.517   2.234   7.054  0.3390 -0.5495 -0.3763
   40MOL   C183 9621   7.552   2.127   6.953 -0.7555  0.1447 -0.4571
   40MOL   O184 9622   7.660   2.051   7.008 -0.3934 -0.0571  0.1744
   40MOL   C185 9623   7.787   2.080   6.969 -0.5295  0.2858 -0.6690
   40MOL   C186 9624   7.879   1.965   7.020 -0.4280  0.0042  0.2077
   40MOL   O187 9625   7.829   2.170   6.895  0.1301  0.2248  0.1285
   40MOL   H188 9626   7.592   2.257   7.130  2.0877 -0.2570 -2.1763
   40MOL   H189 9627   7.439   2.185   7.113  1.3496 -0.7805  0.8084
   40MOL   H190 9628   7.579   2.178   6.861 -0.8036  2.3010  0.6913
   40MOL   H191 9629   7.897   1.970   7.128  0.4540  0.2726  0.0520
   40MOL   H192 9630   7.975   1.971   6.969 -0.6983 -2.4566 -0.6603
   40MOL   H193 9631   7.837   1.865   7.008 -1.1878  0.6835 -3.3426
   40MOL   C194 9632   7.436   2.025   6.923 -0.3745  0.5361  0.5394
   40MOL   C195 9633   7.301   2.084   6.874  0.1437 -0.3702  0.0278
   40MOL   O196 9634   7.329   2.109   6.739  0.1981 -0.3769 -0.1140
   40MOL   C197 9635   7.269   2.205   6.673  0.6598 -0.1940 -0.1194
   40MOL   C198 9636   7.337   2.229   6.533  0.6595  0.4777 -0.2294
   40MOL   O199 9637   7.186   2.283   6.711 -0.1949 -0.1511  0.0849
   40MOL   H200 9638   7.484   1.950   6.861 -0.3980  2.0295 -1.3699
   40MOL   H201 9639   7.424   1.974   7.018  1.5099 -0.3442  0.3236
   40MOL   H202 9640   7.276   2.177   6.925 -1.7489 -0.7100 -0.2326
   40MOL   H203 9641   7.374   2.328   6.506  3.5462 -0.0059  1.7597
   40MOL   H204 9642   7.265   2.200   6.456  0.6144 -1.1021  0.3865
   40MOL   H205 9643   7.418   2.161   6.509  0.4884 -0.6502  2.2313
   40MOL   C206 9644   7.184   1.984   6.882  0.3064 -0.6603 -0.0137
   40MOL   C207 9645   7.109   2.000   7.015 -0.7458  0.4460  0.2115
   40MOL   O208 9646   7.025   2.108   6.990 -0.1355  0.5188  0.3637
   40MOL   C209 9647   7.035   2.225   7.052 -0.1401  0.4886 -0.5831
   40MOL   C210 9648   6.922   2.319   7.024 -0.3398 -0.2017 -0.3284
   40MOL   O211 9649   7.114   2.247   7.147 -0.3564 -0.3515  0.2380
   40MOL   H212 9650   7.122   1.981   6.793 -1.6417  0.2596  1.2704
   40MOL   H213 9651   7.232   1.886   6.882  1.8952  0.0806  1.8494
   40MOL   H214 9652   7.185   2.031   7.088 -0.9048  0.8450  0.2087
   40MOL   H215 9653   6.837   2.268   7.069  0.3615 -0.1513  1.0706
   40MOL   H216 9654   6.894   2.349   6.923 -0.1594 -0.1490 -0.3612
   40MOL   H217 9655   6.943   2.410   7.081  1.5553  0.2717 -1.7698
   40MOL   C218 9656   7.036   1.873   7.053  0.1409  0.4631 -0.0470
   40MOL   C219 9657   6.959   1.880   7.192 -0.6372 -0.2783 -0.0439
   40MOL   O220 9658   6.878   1.759   7.215 -0.0644 -0.4554 -0.0170
   40MOL   C221 9659   6.746   1.760   7.201 -0.0919  0.5646  0.6696
   40MOL   C222 9660   6.684   1.625   7.246 -0.3184  0.0295  0.4613
   40MOL   O223 9661   6.675   1.852   7.166 -0.2260  0.1407  0.0086
   40MOL   H224 9662   6.962   1.845   6.978  0.5990 -0.8238 -0.0336
   40MOL   H225 9663   7.099   1.785   7.040  0.4966  0.5660  0.9555
   40MOL   H226 9664   6.890   1.961   7.170 -0.3238  0.2679  0.9501
   40MOL   H227 9665   6.673   1.545   7.173  0.8292  1.2408 -1.0613
   40MOL   H228 9666   6.587   1.642   7.292  0.4500 -0.3733  2.3137
   40MOL   H229 9667   6.739   1.581   7.330  1.9159  0.7012 -0.6122
   40MOL   C230 9668   7.047   1.902   7.319 -0.2332 -0.3325 -0.1525
   40MOL   C231 9669   6.965   1.915   7.452 -0.3604  0.2406 -0.2201
   40MOL   O232 9670   7.044   1.962   7.555  0.4524  0.2144 -0.3540
   40MOL   C233 9671   6.980   2.003   7.659 -0.3218  0.3275 -0.2162
   40MOL   C234 9672   7.074   2.086   7.751  0.9039 -0.3682 -0.3135
   40MOL   O235 9673   6.865   1.974   7.685 -0.1869  0.4111 -0.0555
   40MOL   H236 9674   7.116   1.819   7.330  1.0893  0.9353  1.3952
   40MOL   H237 9675   7.100   1.996   7.302  0.5854 -0.8186 -0.2938
   40MOL   H238 9676   6.922   1.818   7.477  1.9259 -0.4449  1.1316
   40MOL   H239 9677   7.015   2.163   7.801  1.3460 -0.2296 -0.0114
   40MOL   H240 9678   7.160   2.120   7.693  0.7928 -1.3036 -1.0573
   40MOL   H241 9679   7.113   2.009   7.817  1.1807  0.7397  0.8299
   40MOL   H242 9680   6.890   1.991   7.428 -0.2086  0.5276  0.2209
   41MOL     C1 9681   3.504   3.603   1.651 -0.7036  0.7644 -0.1788
   41MOL     C2 9682   3.449   3.468   1.691 -0.0714  0.0649 -0.5634
   41MOL     O3 9683   3.331   3.487   1.769 -1.1034  0.1093  0.3046
   41MOL     C4 9684   3.292   3.410   1.861 -0.2901 -0.0212 -1.0373
   41MOL     C5 9685   3.164   3.452   1.930 -0.1527 -0.6087  0.4016
   41MOL     O6 9686   3.352   3.311   1.899 -0.0370  0.0195  0.3757
   41MOL     H7 9687   3.544   3.650   1.741 -0.5342  0.8637 -0.3067
   41MOL     H8 9688   3.444   3.680   1.604  0.4898  1.8674  0.1093
   41MOL     H9 9689   3.525   3.412   1.746  0.4769  1.1715 -0.1700
   41MOL    H10 9690   3.163   3.558   1.955 -2.1378 -0.6163  0.4270
   41MOL    H11 9691   3.160   3.391   2.021  0.3535  0.7509  1.3433
   41MOL    H12 9692   3.068   3.438   1.881 -0.4602  0.3139  0.7296
   41MOL    H13 9693   3.593   3.577   1.594  0.0979  1.1284  0.8982
   41MOL    C14 9694   3.404   3.391   1.562  0.2792  0.0343 -0.0053
   41MOL    C15 9695   3.481   3.258   1.531 -0.0183  0.0050  0.6496
   41MOL    O16 9696   3.623   3.281   1.545  0.3979  0.2155  0.1534
   41MOL    C17 9697   3.702   3.273   1.433  0.9455  0.1259 -0.4191
   41MOL    C18 9698   3.828   3.350   1.458  0.1323 -0.1895  0.6342
   41MOL    O19 9699   3.666   3.218   1.329 -0.6933  0.2125 -0.5887
   41MOL    H20 9700   3.295   3.388   1.554  0.0752 -1.2978  2.5460
   41MOL    H21 9701   3.426   3.455   1.477  0.7014 -1.3504 -0.9479
   41MOL    H22 9702   3.445   3.228   1.433 -2.1735 -1.8424  1.9727
   41MOL    H23 9703   3.874   3.402   1.374  2.0837 -0.3551  1.5764
   41MOL    H24 9704   3.892   3.264   1.480 -1.0347 -0.8798  1.3792
   41MOL    H25 9705   3.836   3.408   1.550  0.7740 -1.3021  1.3028
   41MOL    C26 9706   3.429   3.148   1.623 -0.3234 -0.0458 -0.4839
   41MOL    C27 9707   3.429   3.006   1.570 -0.1862  0.3202 -0.5830
   41MOL    O28 9708   3.569   2.967   1.560 -0.1001 -0.0581  0.6312
   41MOL    C29 9709   3.609   2.891   1.460  0.1114 -1.2743 -0.7098
   41MOL    C30 9710   3.758   2.893   1.433 -0.3021  0.1617 -0.1029
   41MOL    O31 9711   3.543   2.833   1.374 -0.4915 -0.5161 -0.1017
   41MOL    H32 9712   3.494   3.158   1.710 -2.2372  1.7913  0.7812
   41MOL    H33 9713   3.327   3.168   1.656 -0.4990 -1.9717  0.2032
   41MOL    H34 9714   3.389   3.015   1.469 -1.4558  1.8283  0.0413
   41MOL    H35 9715   3.805   2.805   1.476  0.2783 -0.4471 -1.9404
   41MOL    H36 9716   3.802   2.983   1.474  1.3046 -1.2920  1.4452
   41MOL    H37 9717   3.780   2.882   1.327  0.6785  4.3656 -0.4314
   41MOL    C38 9718   3.352   2.910   1.655  0.5167  0.1359 -0.0114
   41MOL    C39 9719   3.217   2.877   1.587 -0.4651  0.2745  0.1706
   41MOL    O40 9720   3.221   2.783   1.475 -0.2476 -0.0462 -0.1089
   41MOL    C41 9721   3.204   2.821   1.345  0.1943 -0.3304 -0.9598
   41MOL    C42 9722   3.213   2.707   1.245  0.1972 -0.2779 -0.2250
   41MOL    O43 9723   3.178   2.935   1.304 -0.6268  0.5948 -0.0639
   41MOL    H44 9724   3.404   2.815   1.668  0.1779  0.3735  3.5408
   41MOL    H45 9725   3.322   2.946   1.754  0.8092  3.9999 -1.2371
   41MOL    H46 9726   3.188   2.969   1.535 -3.7412 -0.2239  0.9941
   41MOL    H47 9727   3.312   2.667   1.223  0.1976 -1.0817  1.1656
   41MOL    H48 9728   3.184   2.762   1.155 -0.8447 -2.7631 -1.4633
   41MOL    H49 9729   3.136   2.629   1.253 -0.5234  0.1637 -2.3609
   41MOL    C50 9730   3.117   2.831   1.695 -0.1892 -0.0252  0.5158
   41MOL    C51 9731   3.053   2.939   1.783  0.3688  0.4981  0.3647
   41MOL    O52 9732   2.950   3.017   1.724 -0.2783 -0.1449  0.3769
   41MOL    C53 9733   2.966   3.144   1.662 -0.0470  0.6507  0.6815
   41MOL    C54 9734   2.830   3.202   1.628  0.1280  0.1873 -0.0310
   41MOL    O55 9735   3.074   3.196   1.645  0.2032 -0.5366  0.7732
   41MOL    H56 9736   3.039   2.795   1.628  1.7963  0.1398 -1.9402
   41MOL    H57 9737   3.156   2.742   1.742  0.1655 -0.5032 -0.6740
   41MOL    H58 9738   3.135   2.999   1.824  0.7983 -0.5619  1.0585
   41MOL    H59 9739   2.851   3.277   1.551 -1.7552  0.2769 -0.5034
   41MOL    H60 9740   2.789   3.254   1.715 -0.4635 -0.0338 -0.1759
   41MOL    H61 9741   2.763   3.124   1.593  1.2760 -1.6046  1.6993
   41MOL    C62 9742   2.976   2.871   1.895  0.6166  0.3108 -0.1082
   41MOL    C63 9743   3.056   2.773   1.983  0.0905 -0.1557 -0.4267
   41MOL    O64 9744   3.124   2.844   2.092  0.4571  0.1376 -0.5567
   41MOL    C65 9745   3.259   2.873   2.083 -0.6677 -0.1392  0.2770
   41MOL    C66 9746   3.317   2.941   2.211 -0.2603 -0.6194  0.0130
   41MOL    O67 9747   3.327   2.858   1.981 -0.8388 -0.3526  0.6934
   41MOL    H68 9748   2.933   2.938   1.969  1.0662 -0.7544  1.1242
   41MOL    H69 9749   2.889   2.817   1.857  1.9109 -3.3097  1.8386
   41MOL    H70 9750   3.134   2.715   1.935 -0.7055 -1.8968  0.3532
   41MOL    H71 9751   3.241   3.008   2.253  0.2325  0.4210 -0.7369
   41MOL    H72 9752   3.391   3.011   2.172 -0.6938 -0.4867 -0.5785
   41MOL    H73 9753   3.346   2.878   2.295 -0.0972  0.3664  0.7104
   41MOL    C74 9754   2.963   2.672   2.043 -0.7173 -0.0555  0.0109
   41MOL    C75 9755   2.901   2.564   1.953  0.1781  0.0023  0.7205
   41MOL    O76 9756   3.010   2.489   1.893 -0.6009 -0.1541  0.3044
   41MOL    C77 9757   3.006   2.470   1.761 -0.8727 -0.6170 -0.1159
   41MOL    C78 9758   3.126   2.399   1.710 -0.3463 -0.0719 -0.1771
   41MOL    O79 9759   2.915   2.509   1.685  0.0280 -0.3468  0.0124
   41MOL    H80 9760   3.027   2.612   2.107  2.1654 -0.0648 -2.7492
   41MOL    H81 9761   2.889   2.725   2.102 -0.7636  0.9138 -0.9181
   41MOL    H82 9762   2.842   2.622   1.883  2.1733  0.5766 -0.5380
   41MOL    H83 9763   3.118   2.294   1.736 -1.0280  0.3740  1.5112
   41MOL    H84 9764   3.218   2.437   1.756  0.1729 -0.1399 -1.1430
   41MOL    H85 9765   3.129   2.402   1.601 -1.8471 -0.5543 -0.2358
   41MOL    C86 9766   2.794   2.468   2.010 -0.1063 -0.7069  0.2558
   41MOL    C87 9767   2.673   2.524   2.086  0.0825 -0.5839 -0.1690
   41MOL    O88 9768   2.710   2.561   2.215  0.0309  0.5868 -0.2355
   41MOL    C89 9769   2.627   2.524   2.315  0.0098  0.2629 -0.1298
   41MOL    C90 9770   2.705   2.529   2.448  0.1073 -0.1213  0.1409
   41MOL    O91 9771   2.517   2.477   2.303 -0.2735  0.2201 -0.1756
   41MOL    H92 9772   2.764   2.400   1.931 -0.5999  0.4314 -0.5483
   41MOL    H93 9773   2.848   2.399   2.075 -0.0803 -0.4690  0.4874
   41MOL    H94 9774   2.606   2.438   2.087 -1.8386  0.8685 -0.8562
   41MOL    H95 9775   2.667   2.613   2.507 -2.7271 -1.9823  1.0522
   41MOL    H96 9776   2.809   2.558   2.436  0.4071 -0.6310  1.4364
   41MOL    H97 9777   2.695   2.440   2.509 -1.5289 -0.4954 -0.6340
   41MOL    C98 9778   2.590   2.637   2.018  0.3441 -0.8444  0.3731
   41MOL    C99 9779   2.486   2.583   1.930 -0.4139  0.2847 -0.0788
   41MOL   O100 9780   2.374   2.548   2.025  0.1052 -0.2331  0.6297
   41MOL   C101 9781   2.334   2.430   2.036 -0.2051 -0.5042  0.2311
   41MOL   C102 9782   2.210   2.421   2.126 -0.5190  0.0441 -0.5033
   41MOL   O103 9783   2.378   2.337   1.978  0.4345 -0.4380 -0.2670
   41MOL   H104 9784   2.540   2.704   2.088  3.1219  0.7136  0.9703
   41MOL   H105 9785   2.649   2.712   1.965  0.8238  0.4229  2.6026
   41MOL   H106 9786   2.535   2.495   1.888  0.0667  1.0711 -1.1959
   41MOL   H107 9787   2.234   2.456   2.226  1.6902  0.0032 -0.9849
   41MOL   H108 9788   2.180   2.317   2.141  2.2624 -0.9235 -1.2453
   41MOL   H109 9789   2.123   2.479   2.097 -0.3419  0.6520  0.1841
   41MOL   C110 9790   2.437   2.687   1.823 -0.1026  0.4436  0.7366
   41MOL   C111 9791   2.381   2.621   1.700  0.6204  0.4918 -0.1664
   41MOL   O112 9792   2.266   2.545   1.726 -0.8144  0.1923 -0.4113
   41MOL   C113 9793   2.222   2.466   1.631  0.2521  0.6093 -0.0014
   41MOL   C114 9794   2.102   2.380   1.674  0.1803 -0.5374 -0.0590
   41MOL   O115 9795   2.260   2.460   1.516  0.3900  0.3768  1.0591
   41MOL   H116 9796   2.366   2.760   1.861  3.3119  3.7491  1.1232
   41MOL   H117 9797   2.528   2.740   1.792 -0.7699  0.9178 -0.4633
   41MOL   H118 9798   2.463   2.557   1.666 -0.1298 -0.6855  0.2053
   41MOL   H119 9799   2.130   2.336   1.770  0.3574 -0.9392 -0.2924
   41MOL   H120 9800   2.048   2.317   1.603  0.0619  0.2091 -0.6431
   41MOL   H121 9801   2.018   2.443   1.704  0.0583 -0.4783 -0.5168
   41MOL   C122 9802   2.356   2.733   1.594  0.2467 -0.1245  0.1952
   41MOL   C123 9803   2.473   2.820   1.550 -0.0373  0.6475 -0.3008
   41MOL   O124 9804   2.562   2.744   1.469 -0.1109  0.2396  1.1975
   41MOL   C125 9805   2.693   2.777   1.441 -0.0662  0.1757  0.0250
   41MOL   C126 9806   2.761   2.683   1.340  0.8384 -0.4819  0.8323
   41MOL   O127 9807   2.756   2.869   1.489 -0.2635 -0.2844  0.8998
   41MOL   H128 9808   2.326   2.690   1.498  1.4140 -0.9498  0.1952
   41MOL   H129 9809   2.281   2.803   1.630  1.6648  0.3328  2.3154
   41MOL   H130 9810   2.530   2.852   1.638  1.2167 -1.6109 -0.2562
   41MOL   H131 9811   2.711   2.684   1.243  0.4813 -1.8632  0.9888
   41MOL   H132 9812   2.767   2.583   1.382 -1.1771 -0.4461  1.2842
   41MOL   H133 9813   2.864   2.719   1.339  0.8257 -0.2689  3.6581
   41MOL   C134 9814   2.415   2.936   1.465 -0.1710 -0.2717 -0.0944
   41MOL   C135 9815   2.364   3.054   1.558  0.4967  0.0128 -0.0957
   41MOL   O136 9816   2.467   3.097   1.649  0.1258  0.1412  0.2013
   41MOL   C137 9817   2.452   3.068   1.786 -0.1450 -0.0642 -0.2565
   41MOL   C138 9818   2.548   3.143   1.867  0.5301  0.2256 -0.1892
   41MOL   O139 9819   2.357   3.008   1.838  0.4814 -0.1218  0.4554
   41MOL   H140 9820   2.498   2.968   1.401  0.0073 -0.6118 -0.0353
   41MOL   H141 9821   2.339   2.913   1.391  0.0847 -2.6135  0.3338
   41MOL   H142 9822   2.282   3.021   1.621  1.5188  0.9083  1.7326
   41MOL   H143 9823   2.653   3.124   1.846  0.5284  2.1787 -2.2406
   41MOL   H144 9824   2.544   3.115   1.972  2.3926 -1.0568 -0.4454
   41MOL   H145 9825   2.532   3.250   1.850 -2.8573 -0.3487 -1.1151
   41MOL   C146 9826   2.323   3.190   1.479 -0.2651 -0.4263  0.2929
   41MOL   C147 9827   2.268   3.300   1.559 -0.0757 -0.7101  0.3463
   41MOL   O148 9828   2.256   3.418   1.487 -0.5497 -0.4742  0.5735
   41MOL   C149 9829   2.283   3.536   1.536  0.1504 -0.5026 -0.1432
   41MOL   C150 9830   2.232   3.647   1.441 -0.2521  0.1251 -0.3513
   41MOL   O151 9831   2.344   3.561   1.643  0.5915 -0.4722 -0.3863
   41MOL   H152 9832   2.411   3.240   1.438  0.4625 -0.4837  1.7458
   41MOL   H153 9833   2.257   3.162   1.397 -1.0545  0.9091  0.4687
   41MOL   H154 9834   2.346   3.308   1.635 -0.6128 -0.5759  0.8900
   41MOL   H155 9835   2.317   3.682   1.382 -0.0427  1.3364  0.6529
   41MOL   H156 9836   2.182   3.724   1.498  0.4065  2.4972 -2.8598
   41MOL   H157 9837   2.160   3.599   1.375  0.4268 -0.6150 -0.5743
   41MOL   C158 9838   2.133   3.274   1.638 -0.3005 -0.4173 -0.0620
   41MOL   C159 9839   2.005   3.321   1.556  0.4389 -0.1070  0.4510
   41MOL   O160 9840   2.019   3.277   1.425  0.7955  0.0425 -0.0175
   41MOL   C161 9841   1.992   3.354   1.327 -0.2279  0.5884  0.1974
   41MOL   C162 9842   2.040   3.302   1.197 -0.2641 -0.3840 -0.2927
   41MOL   O163 9843   1.928   3.459   1.333 -0.0994 -0.2171 -0.1310
   41MOL   H164 9844   2.127   3.167   1.659  2.1591 -0.5999 -0.1801
   41MOL   H165 9845   2.130   3.309   1.741 -1.4898 -0.1492 -0.1787
   41MOL   H166 9846   1.997   3.430   1.552 -1.5743 -0.3001 -1.2884
   41MOL   H167 9847   1.966   3.298   1.117  0.2957 -1.3482 -0.7595
   41MOL   H168 9848   2.070   3.198   1.198  0.7634 -0.0912 -0.0573
   41MOL   H169 9849   2.128   3.360   1.169 -1.1329 -0.2461 -2.8620
   41MOL   C170 9850   1.873   3.267   1.619  0.2351 -0.0701 -0.2509
   41MOL   C171 9851   1.857   3.316   1.763 -0.2250  0.5781  0.1838
   41MOL   O172 9852   1.836   3.460   1.767 -0.6577 -0.4330  0.0095
   41MOL   C173 9853   1.886   3.530   1.866 -0.7020 -0.2155 -0.2755
   41MOL   C174 9854   1.843   3.673   1.863  0.2662  0.2805 -0.2917
   41MOL   O175 9855   1.973   3.491   1.942  0.2691  0.3929 -0.1010
   41MOL   H176 9856   1.783   3.301   1.568 -0.4845 -0.1615  0.9311
   41MOL   H177 9857   1.886   3.159   1.620 -1.9428 -0.3550  0.5317
   41MOL   H178 9858   1.945   3.285   1.820 -0.4770  0.1690  0.3562
   41MOL   H179 9859   1.876   3.715   1.767  0.9816  0.9891  0.2535
   41MOL   H180 9860   1.894   3.734   1.938 -1.6293 -0.1515  1.3622
   41MOL   H181 9861   1.734   3.677   1.858  0.3828  1.4458 -2.4951
   41MOL   C182 9862   1.734   3.239   1.824  0.2884 -0.8062  0.4458
   41MOL   C183 9863   1.764   3.094   1.877 -0.4193 -0.0318  0.0053
   41MOL   O184 9864   1.878   3.107   1.964  0.0348 -0.0912 -0.1515
   41MOL   C185 9865   1.995   3.046   1.933  0.1248 -0.1540  0.5030
   41MOL   C186 9866   2.116   3.081   2.025  0.2074 -0.0503  0.2777
   41MOL   O187 9867   2.009   2.978   1.831 -0.4479  0.2310  0.4106
   41MOL   H188 9868   1.699   3.290   1.914  1.6224  1.2775 -0.1743
   41MOL   H189 9869   1.656   3.220   1.750  0.0746  1.4351  0.0516
   41MOL   H190 9870   1.790   3.033   1.790 -0.3318 -1.7336  1.1972
   41MOL   H191 9871   2.103   3.178   2.075 -0.0262 -0.9408  1.9823
   41MOL   H192 9872   2.213   3.082   1.975 -0.5215 -0.0630 -1.1643
   41MOL   H193 9873   2.117   3.010   2.108  2.3798  0.0708  0.3916
   41MOL   C194 9874   1.639   3.023   1.948 -0.3690 -0.7632 -0.2606
   41MOL   C195 9875   1.658   2.872   1.949  0.1081 -0.0061  0.2951
   41MOL   O196 9876   1.773   2.842   2.027  0.4518 -0.1438  0.1790
   41MOL   C197 9877   1.840   2.728   2.014  0.6377 -0.4891 -0.0100
   41MOL   C198 9878   1.959   2.707   2.115 -0.0245  0.6733  0.5959
   41MOL   O199 9879   1.826   2.638   1.929  0.7151 -0.5027  0.6312
   41MOL   H200 9880   1.608   3.051   2.048  2.7006 -1.5562  0.9542
   41MOL   H201 9881   1.563   3.047   1.873  0.3604  1.3052 -0.3732
   41MOL   H202 9882   1.656   2.841   1.845  0.0886  3.7430 -0.9105
   41MOL   H203 9883   1.970   2.600   2.129  0.4242  0.7337  0.7123
   41MOL   H204 9884   1.945   2.757   2.211 -1.2802  2.5115 -0.5071
   41MOL   H205 9885   2.051   2.752   2.077  0.5831 -0.2488  0.9798
   41MOL   C206 9886   1.533   2.810   2.019  0.0348  1.0645  0.2794
   41MOL   C207 9887   1.500   2.658   1.990 -0.5752  0.6810 -0.5932
   41MOL   O208 9888   1.519   2.587   2.111 -0.1115  0.0295  0.4993
   41MOL   C209 9889   1.569   2.465   2.101 -0.7844  0.4586 -0.1786
   41MOL   C210 9890   1.601   2.398   2.240  0.0707 -0.9763  0.2682
   41MOL   O211 9891   1.585   2.402   1.993 -0.4154 -0.1294  0.1127
   41MOL   H212 9892   1.523   2.851   2.120  1.3526 -1.5265  1.4776
   41MOL   H213 9893   1.441   2.856   1.981 -1.2961 -1.1536  0.7213
   41MOL   H214 9894   1.565   2.622   1.910 -0.2002 -0.0556  0.0317
   41MOL   H215 9895   1.556   2.298   2.233  0.9106 -1.2889 -0.9028
   41MOL   H216 9896   1.559   2.465   2.315  2.5957  0.6328  0.2893
   41MOL   H217 9897   1.708   2.395   2.259 -0.2891  1.7789  3.0125
   41MOL   C218 9898   1.347   2.641   1.952 -0.7801  0.2587  0.7076
   41MOL   C219 9899   1.307   2.715   1.822  0.2426 -0.6742  0.1620
   41MOL   O220 9900   1.398   2.691   1.713  0.7087  0.3631  0.2284
   41MOL   C221 9901   1.451   2.794   1.656  0.2611  0.5406  1.2902
   41MOL   C222 9902   1.563   2.754   1.554 -0.6151  0.0527 -0.7553
   41MOL   O223 9903   1.420   2.912   1.674 -0.1489  0.1640 -0.0989
   41MOL   H224 9904   1.345   2.534   1.929  1.6630  0.4227 -0.4974
   41MOL   H225 9905   1.276   2.659   2.033 -0.1138  3.0169  0.7077
   41MOL   H226 9906   1.306   2.821   1.847 -0.1864 -0.7128  0.3089
   41MOL   H227 9907   1.655   2.800   1.591  0.0536  0.6469 -3.0451
   41MOL   H228 9908   1.550   2.786   1.450  0.0236  1.5075 -0.4065
   41MOL   H229 9909   1.578   2.646   1.548  0.8382  0.2381 -0.7894
   41MOL   C230 9910   1.160   2.685   1.769  0.4282 -0.0825  0.0299
   41MOL   C231 9911   1.112   2.795   1.676  0.2644 -0.0053 -0.2956
   41MOL   O232 9912   0.977   2.764   1.640  0.0791 -0.0096  0.1147
   41MOL   C233 9913   0.908   2.838   1.545 -0.1558 -0.2361 -0.0177
   41MOL   C234 9914   0.759   2.807   1.546  0.7589 -0.2075 -0.5192
   41MOL   O235 9915   0.954   2.933   1.479 -0.5915 -0.1288  0.3206
   41MOL   H236 9916   1.161   2.586   1.724  1.7658  0.8184 -1.9990
   41MOL   H237 9917   1.089   2.685   1.852  0.9095 -0.9093  0.4514
   41MOL   H238 9918   1.174   2.791   1.586  3.0053  1.3057  1.4638
   41MOL   H239 9919   0.721   2.885   1.612  1.6952  1.0961 -1.4685
   41MOL   H240 9920   0.734   2.704   1.570 -1.4782  0.5902  0.7424
   41MOL   H241 9921   0.712   2.824   1.449  0.7227 -0.3087 -0.5189
   41MOL   H242 9922   1.107   2.898   1.712 -0.3358 -0.5920  1.3032
   42MOL     C1 9923   6.988   4.267   7.628  0.6404 -0.7714 -0.1152
   42MOL     C2 9924   7.083   4.191   7.722 -0.2584 -0.7239  0.4715
   42MOL     O3 9925   7.047   4.198   7.852  0.4183 -0.2130  0.0567
   42MOL     C4 9926   7.069   4.311   7.915 -0.0996  0.7251 -0.6778
   42MOL     C5 9927   7.032   4.301   0.036 -0.4579 -0.1507 -0.3654
   42MOL     O6 9928   7.120   4.416   7.875 -0.4525 -0.8747  0.3389
   42MOL     H7 9929   7.005   4.249   7.522 -0.5507 -1.7697 -0.1404
   42MOL     H8 9930   6.996   4.374   7.647  1.3174 -0.6471 -1.0699
   42MOL     H9 9931   7.186   4.228   7.720 -1.2399  2.0552 -0.4819
   42MOL    H10 9932   6.926   4.293   0.058 -1.1741  1.4890 -2.9896
   42MOL    H11 9933   7.071   4.391   0.082 -2.3889  0.6667 -0.2887
   42MOL    H12 9934   7.081   4.210   0.072 -2.4284 -0.3358  1.9092
   42MOL    H13 9935   6.886   4.244   7.659  0.5341  1.3258  1.2505
   42MOL    C14 9936   7.096   4.042   7.679  0.7519 -0.4671 -0.1765
   42MOL    C15 9937   7.193   4.009   7.564 -0.3174 -0.2229 -0.7918
   42MOL    O16 9938   7.325   4.003   7.616 -0.0560 -0.1319 -0.2719
   42MOL    C17 9939   7.429   4.072   7.573 -0.7323 -0.0762 -0.4994
   42MOL    C18 9940   7.554   4.047   7.654 -1.0684  0.5378  0.3484
   42MOL    O19 9941   7.429   4.141   7.473 -0.3143  0.3113 -0.0078
   42MOL    H20 9942   7.109   3.981   7.769 -1.6155 -3.7122 -1.9143
   42MOL    H21 9943   6.993   4.021   7.650  0.9463 -0.5235 -0.8502
   42MOL    H22 9944   7.192   4.090   7.491 -1.9951 -0.4026 -0.9825
   42MOL    H23 9945   7.564   4.100   7.749 -1.2327  0.4610  0.4091
   42MOL    H24 9946   7.643   4.060   7.592  0.0982  0.1638  1.9106
   42MOL    H25 9947   7.560   3.943   7.686  0.5398  0.7484  0.7998
   42MOL    C26 9948   7.164   3.872   7.503 -0.7124  0.2274  0.2120
   42MOL    C27 9949   7.175   3.753   7.598  0.2843 -0.0601  0.1751
   42MOL    O28 9950   7.066   3.756   7.692  0.3157  0.2341 -0.1027
   42MOL    C29 9951   7.076   3.688   7.803  0.4138 -0.0856 -0.0246
   42MOL    C30 9952   6.957   3.704   7.894 -0.4375  0.2950 -0.0306
   42MOL    O31 9953   7.173   3.631   7.848 -0.1139 -0.4345 -0.4466
   42MOL    H32 9954   7.067   3.879   7.455 -0.3551 -0.0304 -0.5617
   42MOL    H33 9955   7.232   3.846   7.421  0.5647  0.4758  1.1667
   42MOL    H34 9956   7.272   3.750   7.648  0.6259 -0.8096 -0.5219
   42MOL    H35 9957   6.923   3.808   7.889  2.5188  1.2527 -1.0410
   42MOL    H36 9958   6.985   3.671   7.994  0.6731  2.1994  0.3076
   42MOL    H37 9959   6.875   3.646   7.852 -0.7124  1.3094 -0.9148
   42MOL    C38 9960   7.159   3.619   7.521 -0.0618 -0.4940  0.5302
   42MOL    C39 9961   7.281   3.576   7.435  0.2442 -0.2888 -0.0321
   42MOL    O40 9962   7.390   3.554   7.524 -0.6178  0.0119 -0.2592
   42MOL    C41 9963   7.493   3.634   7.535 -0.5783 -0.7603 -0.1835
   42MOL    C42 9964   7.596   3.585   7.640 -0.3443  0.4999  0.2931
   42MOL    O43 9965   7.514   3.736   7.474  0.4470  0.5203 -0.2838
   42MOL    H44 9966   7.146   3.540   7.595 -2.5276 -0.5889  0.0486
   42MOL    H45 9967   7.071   3.616   7.457 -0.4887 -0.5207  1.1231
   42MOL    H46 9968   7.312   3.655   7.367 -0.5153 -0.8702 -1.0619
   42MOL    H47 9969   7.612   3.669   7.708 -0.8821  0.2053  0.7880
   42MOL    H48 9970   7.688   3.558   7.589 -1.2111  0.6040 -1.3758
   42MOL    H49 9971   7.555   3.503   7.699 -2.9773  1.4496 -0.1462
   42MOL    C50 9972   7.267   3.451   7.346  0.6922 -0.3487  0.1024
   42MOL    C51 9973   7.175   3.477   7.222  0.3598  0.3810 -0.0778
   42MOL    O52 9974   7.243   3.565   7.133 -0.1626  0.7965  0.2027
   42MOL    C53 9975   7.197   3.694   7.125 -0.7152  0.8663 -0.1597
   42MOL    C54 9976   7.248   3.768   6.999  0.3085  0.3006 -0.3796
   42MOL    O55 9977   7.115   3.748   7.201 -0.1694 -0.4950  0.5245
   42MOL    H56 9978   7.364   3.409   7.316  0.6101 -0.7578  0.3994
   42MOL    H57 9979   7.223   3.367   7.400 -0.2398 -0.4750 -0.8384
   42MOL    H58 9980   7.077   3.508   7.258  1.3791 -0.2318  3.4089
   42MOL    H59 9981   7.354   3.792   6.999  0.5471 -0.6726  0.9046
   42MOL    H60 9982   7.191   3.860   6.996 -2.4431 -1.3827 -1.7519
   42MOL    H61 9983   7.230   3.698   6.917  0.9581  1.1355 -1.2418
   42MOL    C62 9984   7.152   3.347   7.138 -0.0562 -0.5005 -0.0896
   42MOL    C63 9985   7.068   3.356   7.010  0.1015 -0.5145 -0.5396
   42MOL    O64 9986   7.041   3.222   6.966 -0.2404 -0.1014 -0.3308
   42MOL    C65 9987   7.014   3.198   6.843  0.5735  0.2379  0.7125
   42MOL    C66 9988   6.981   3.054   6.823  0.6939  0.2473 -0.3829
   42MOL    O67 9989   7.023   3.271   6.751  0.0884 -0.7686  0.6705
   42MOL    H68 9990   7.254   3.324   7.107 -0.2313 -0.6775 -0.5349
   42MOL    H69 9991   7.111   3.269   7.201  0.7460 -0.8942 -0.0518
   42MOL    H70 9992   7.128   3.408   6.936 -2.0325  4.0124  0.7541
   42MOL    H71 9993   6.874   3.037   6.837  0.8242 -0.2619 -0.0074
   42MOL    H72 9994   7.034   3.000   6.902 -2.1918 -0.6260  1.0303
   42MOL    H73 9995   7.012   3.015   6.726  0.3825 -2.3159  0.5240
   42MOL    C74 9996   6.928   3.426   7.015 -0.2287 -0.0275  0.5842
   42MOL    C75 9997   6.925   3.557   6.936 -0.3144 -0.1990  0.7446
   42MOL    O76 9998   6.865   3.535   6.804 -0.1913  0.1794  0.0351
   42MOL    C77 9999   6.917   3.583   6.690  0.7407 -0.6973  0.2558
   42MOL    C7810000   6.839   3.553   6.559  0.0540  0.0553  0.0823
   42MOL    O7910001   7.019   3.655   6.683  0.1605  0.3829  0.1104
   42MOL    H8010002   6.846   3.364   6.979 -1.9537  2.2910  0.4279
   42MOL    H8110003   6.902   3.436   7.121 -0.5461 -1.9955  0.7185
   42MOL    H8210004   7.029   3.583   6.914 -0.1905 -2.0344 -0.9713
   42MOL    H8310005   6.859   3.638   6.493  1.1627 -0.2193  0.0466
   42MOL    H8410006   6.731   3.542   6.566  0.1193 -0.8462 -0.3307
   42MOL    H8510007   6.876   3.460   6.517  1.3535 -0.1488  1.6343
   42MOL    C8610008   6.858   3.682   7.003 -0.7005  0.7305 -0.6842
   42MOL    C8710009   6.716   3.651   7.048  0.7236  0.4132 -0.1406
   42MOL    O8810010   6.691   3.697   7.182  0.6559 -0.2751 -0.8353
   42MOL    C8910011   6.698   3.619   7.290 -0.4172 -0.0016  0.0952
   42MOL    C9010012   6.638   3.688   7.411 -0.0120  0.1791  0.2864
   42MOL    O9110013   6.750   3.510   7.292 -0.3175  0.4759  0.3146
   42MOL    H9210014   6.911   3.672   7.098 -1.4704  1.4701 -0.1777
   42MOL    H9310015   6.884   3.778   6.958  0.1439  1.2138  0.7753
   42MOL    H9410016   6.680   3.549   7.035  1.7748  0.3910 -3.1575
   42MOL    H9510017   6.670   3.636   7.501  0.8615  0.9283  0.4183
   42MOL    H9610018   6.529   3.688   7.415 -0.0253 -3.2474  0.9409
   42MOL    H9710019   6.664   3.793   7.425  0.0291  0.0747  0.9796
   42MOL    C9810020   6.608   3.728   6.970  0.2717  0.4366  0.2799
   42MOL    C9910021   6.470   3.686   6.998  0.4074 -0.2630  0.4033
   42MOL   O10010022   6.377   3.788   6.958  0.7103 -0.3063 -0.1231
   42MOL   C10110023   6.340   3.892   7.048 -1.1983 -0.3901  0.5589
   42MOL   C10210024   6.258   3.991   6.971 -0.2840 -0.0267 -0.1316
   42MOL   O10310025   6.374   3.894   7.167 -0.5366 -0.5451 -0.5354
   42MOL   H10410026   6.628   3.836   6.967  1.3432  0.2164 -1.2295
   42MOL   H10510027   6.633   3.708   6.866 -3.3639  0.1767 -0.6057
   42MOL   H10610028   6.459   3.663   7.104 -1.1525 -1.6617 -0.0388
   42MOL   H10710029   6.184   3.947   6.904  0.4484 -1.0418 -0.2823
   42MOL   H10810030   6.316   4.059   6.908  3.3067 -3.0321 -0.2943
   42MOL   H10910031   6.210   4.051   7.048  1.3486  0.9908  0.1127
   42MOL   C11010032   6.426   3.560   6.921  0.3648  0.4840 -0.3957
   42MOL   C11110033   6.397   3.439   7.014 -0.0826  0.1962  0.3949
   42MOL   O11210034   6.272   3.460   7.064 -0.2370 -0.6444 -0.1615
   42MOL   C11310035   6.259   3.528   7.185 -0.1463  0.2905  0.3074
   42MOL   C11410036   6.131   3.614   7.196 -0.0158 -0.0905  0.3150
   42MOL   O11510037   6.333   3.510   7.281  0.5096  0.4304 -0.3002
   42MOL   H11610038   6.339   3.571   6.856 -0.4241  0.6194  0.6669
   42MOL   H11710039   6.500   3.521   6.851 -0.1257  1.3735 -1.4290
   42MOL   H11810040   6.466   3.436   7.099  1.0188 -1.3778 -0.5240
   42MOL   H11910041   6.152   3.701   7.258 -0.2235 -0.8114  1.4225
   42MOL   H12010042   6.049   3.568   7.251 -0.2918 -0.3036 -0.2671
   42MOL   H12110043   6.087   3.650   7.103  0.7135  1.5411  0.5928
   42MOL   C12210044   6.393   3.299   6.940  0.5695  0.9169 -0.0268
   42MOL   C12310045   6.398   3.175   7.038 -0.4908 -0.3451 -0.1686
   42MOL   O12410046   6.506   3.195   7.124  0.6533 -0.5976  0.1980
   42MOL   C12510047   6.636   3.169   7.086  0.2644  0.9355  0.3936
   42MOL   C12610048   6.729   3.190   7.204 -0.5887  0.7068  0.0631
   42MOL   O12710049   6.674   3.149   6.972  0.3587 -0.2708  0.2969
   42MOL   H12810050   6.299   3.302   6.884  1.1262 -0.2494 -1.0579
   42MOL   H12910051   6.474   3.290   6.869 -1.9280 -0.3362 -2.8139
   42MOL   H13010052   6.423   3.086   6.979 -0.8801 -0.0064 -0.8549
   42MOL   H13110053   6.771   3.097   7.243  0.4327  0.8589 -0.6743
   42MOL   H13210054   6.686   3.242   7.290 -1.3557 -0.5911  0.4915
   42MOL   H13310055   6.817   3.249   7.180  0.0268  0.0108  0.5844
   42MOL   C13410056   6.271   3.141   7.119  0.1820  0.3125 -0.5245
   42MOL   C13510057   6.137   3.134   7.039 -0.3855  0.1090 -0.4922
   42MOL   O13610058   6.092   2.997   7.018 -0.6183 -0.1205  0.2473
   42MOL   C13710059   6.130   2.926   6.912  0.4678 -0.5504 -0.1771
   42MOL   C13810060   6.078   2.785   6.914  0.3208  0.0240  0.4232
   42MOL   O13910061   6.211   2.954   6.823 -0.1216 -0.2390 -0.5338
   42MOL   H14010062   6.289   3.043   7.163 -0.8655 -0.3078 -1.4429
   42MOL   H14110063   6.266   3.223   7.190  3.1157  1.2701 -1.3165
   42MOL   H14210064   6.160   3.173   6.939 -1.6235 -0.8206 -1.1506
   42MOL   H14310065   6.128   2.703   6.863 -3.5518 -2.2914  0.1202
   42MOL   H14410066   5.972   2.785   6.887  0.0413 -1.9046  1.4012
   42MOL   H14510067   6.074   2.753   7.018  1.6984  3.3325  1.5532
   42MOL   C14610068   6.015   3.221   7.066 -0.6303 -0.6115 -0.2862
   42MOL   C14710069   5.919   3.247   6.950 -0.0155 -0.0432  0.7918
   42MOL   O14810070   5.789   3.284   6.992 -0.4034  0.4717  0.1231
   42MOL   C14910071   5.693   3.192   6.996  0.2548  0.1452  0.3507
   42MOL   C15010072   5.558   3.237   7.039 -0.2537 -0.1229 -0.0396
   42MOL   O15110073   5.715   3.073   6.969 -0.0557  0.5026  0.3504
   42MOL   H15210074   5.965   3.175   7.152  2.1101 -1.6375  0.8256
   42MOL   H15310075   6.060   3.310   7.111 -0.5708 -0.9097  0.2577
   42MOL   H15410076   5.919   3.160   6.885 -0.4954  0.4847  0.0762
   42MOL   H15510077   5.481   3.162   7.054  0.0104 -0.4672 -0.3902
   42MOL   H15610078   5.520   3.308   6.965 -1.3447 -0.8676 -0.2129
   42MOL   H15710079   5.575   3.294   7.130  2.6544 -3.2654  1.5048
   42MOL   C15810080   5.959   3.371   6.869  0.4122 -0.2146  0.8101
   42MOL   C15910081   5.899   3.381   6.728 -0.2904 -0.1048  0.2906
   42MOL   O16010082   5.788   3.470   6.716  0.0466  0.0698  0.1796
   42MOL   C16110083   5.651   3.426   6.704  0.3283 -0.4080  0.6798
   42MOL   C16210084   5.560   3.535   6.657  0.1439  0.3326  0.4899
   42MOL   O16310085   5.602   3.317   6.725 -0.3146 -1.0655 -0.3346
   42MOL   H16410086   5.962   3.465   6.924 -0.2918 -1.0279  2.3042
   42MOL   H16510087   6.066   3.358   6.856  0.2968  0.6067 -0.9823
   42MOL   H16610088   5.872   3.279   6.701  2.3811 -1.4420  2.4016
   42MOL   H16710089   5.557   3.543   6.549 -0.3177  3.0886  0.6705
   42MOL   H16810090   5.584   3.627   6.709  1.6654  0.7537 -0.9330
   42MOL   H16910091   5.462   3.502   6.694 -0.3139  2.5311  1.3294
   42MOL   C17010092   6.020   3.422   6.637 -0.7109  0.0105  0.1869
   42MOL   C17110093   5.987   3.438   6.492 -0.5024 -0.6550  0.0936
   42MOL   O17210094   5.918   3.559   6.466 -0.3537 -0.0641  0.1188
   42MOL   C17310095   5.809   3.556   6.387  0.5637 -0.2929 -0.1987
   42MOL   C17410096   5.746   3.696   6.366 -0.5594  0.4956  0.2319
   42MOL   O17510097   5.759   3.448   6.346 -0.2593 -0.6757  0.3635
   42MOL   H17610098   6.070   3.511   6.674 -2.3077  0.9041  0.2304
   42MOL   H17710099   6.099   3.348   6.652  0.7536  0.6057 -3.9168
   42MOL   H17810100   5.923   3.350   6.479 -1.1653 -0.1818  0.1600
   42MOL   H17910101   5.687   3.705   6.275  0.1276  2.4953 -0.0510
   42MOL   H18010102   5.829   3.767   6.369 -0.5212  0.4031  1.8380
   42MOL   H18110103   5.678   3.721   6.447 -2.1544  2.8184 -1.7407
   42MOL   C18210104   6.112   3.434   6.402 -0.0768  0.3470 -0.1317
   42MOL   C18310105   6.142   3.293   6.340  0.1312 -0.0184  0.1364
   42MOL   O18410106   6.185   3.206   6.444 -0.0289 -0.1423 -0.1962
   42MOL   C18510107   6.280   3.112   6.424 -0.2056  0.2089 -0.5028
   42MOL   C18610108   6.305   3.021   6.542  0.3019  0.0192  0.2018
   42MOL   O18710109   6.337   3.106   6.314  0.4340  0.0150 -0.0633
   42MOL   H18810110   6.108   3.501   6.316 -0.3718  0.0910 -0.3198
   42MOL   H18910111   6.207   3.466   6.445  0.5535  0.1653 -1.3554
   42MOL   H19010112   6.221   3.313   6.268 -0.0174  0.2537  0.0471
   42MOL   H19110113   6.329   3.090   6.623  2.7165 -1.7770  1.0584
   42MOL   H19210114   6.383   2.946   6.528  0.5022 -0.0937  1.8255
   42MOL   H19310115   6.220   2.955   6.554  1.4882 -1.7765 -1.1050
   42MOL   C19410116   6.017   3.231   6.268  0.1416 -0.4638 -0.2033
   42MOL   C19510117   5.975   3.308   6.141  0.5551 -0.5951 -0.8429
   42MOL   O19610118   6.075   3.296   6.044 -0.9807  0.4730  0.2173
   42MOL   C19710119   6.154   3.400   5.995 -0.4433 -0.1094 -0.4851
   42MOL   C19810120   6.268   3.360   5.912  0.2694  0.1130 -0.5159
   42MOL   O19910121   6.135   3.519   6.025  0.1814 -0.0336  0.1558
   42MOL   H20010122   6.045   3.130   6.238  0.6585  0.4814 -3.0218
   42MOL   H20110123   5.931   3.229   6.336 -1.8006  2.2761 -2.4699
   42MOL   H20210124   5.978   3.410   6.179  0.9634 -0.9587  0.1373
   42MOL   H20310125   6.219   3.329   5.820  0.9353  1.3714 -1.3153
   42MOL   H20410126   6.330   3.279   5.950  1.6930  2.3107  2.1262
   42MOL   H20510127   6.328   3.449   5.892 -1.2964  0.6806 -2.7895
   42MOL   C20610128   5.834   3.275   6.080 -0.4802  0.2524 -0.9683
   42MOL   C20710129   5.794   3.357   5.955 -0.2190  0.4252 -0.4365
   42MOL   O20810130   5.679   3.306   5.887  0.2827  0.2390  0.2821
   42MOL   C20910131   5.694   3.235   5.775  0.0763  0.2302 -0.2229
   42MOL   C21010132   5.567   3.179   5.716  0.2493 -0.0235 -0.4619
   42MOL   O21110133   5.804   3.214   5.721 -0.3334 -0.1104  0.1389
   42MOL   H21210134   5.832   3.169   6.056  1.2759 -0.6382  2.3942
   42MOL   H21310135   5.756   3.278   6.156  1.5889 -0.4040  1.2575
   42MOL   H21410136   5.885   3.344   5.896  0.0585  1.0671 -0.1587
   42MOL   H21510137   5.470   3.215   5.749  0.0036 -1.6621  0.6969
   42MOL   H21610138   5.572   3.070   5.721  0.3724 -0.1079 -2.1903
   42MOL   H21710139   5.552   3.198   5.610  0.1390  0.7989 -0.2979
   42MOL   C21810140   5.769   3.498   6.005  0.3463  0.6337 -0.0454
   42MOL   C21910141   5.718   3.599   5.899 -0.4231 -0.5554 -0.4700
   42MOL   O22010142   5.707   3.729   5.962  0.7004 -0.0618  0.3654
   42MOL   C22110143   5.587   3.780   5.983 -1.0420 -0.1917 -0.2083
   42MOL   C22210144   5.584   3.900   6.077 -0.0395  0.2621  0.0663
   42MOL   O22310145   5.480   3.737   5.938 -0.4549 -0.1251 -0.0347
   42MOL   H22410146   5.698   3.498   6.088  1.9058  0.7469  1.3114
   42MOL   H22510147   5.857   3.548   6.045  0.9556 -0.3288 -0.1644
   42MOL   H22610148   5.622   3.555   5.871 -1.8220  1.7809  0.5703
   42MOL   H22710149   5.503   3.966   6.048 -0.7968 -1.3424 -1.5980
   42MOL   H22810150   5.677   3.956   6.081 -1.2065  2.2932 -0.5811
   42MOL   H22910151   5.583   3.871   6.182  0.3474 -3.7325 -0.9595
   42MOL   C23010152   5.798   3.605   5.764 -0.1598  0.5284  0.0874
   42MOL   C23110153   5.955   3.623   5.783  0.2700  0.1977 -0.3096
   42MOL   O23210154   6.006   3.624   5.650 -0.4592 -0.1038 -0.0013
   42MOL   C23310155   6.137   3.642   5.623 -0.0515  0.2054  0.2606
   42MOL   C23410156   6.172   3.616   5.483  0.2095 -0.0170 -0.3979
   42MOL   O23510157   6.226   3.675   5.703 -0.5622  0.0354  0.1719
   42MOL   H23610158   5.786   3.525   5.691  1.8386  0.4085 -0.1510
   42MOL   H23710159   5.756   3.692   5.713  2.3730  0.8422 -1.5650
   42MOL   H23810160   6.015   3.548   5.836  0.4983 -0.2794 -1.2427
   42MOL   H23910161   6.242   3.689   5.445 -0.4578  1.2728  0.8065
   42MOL   H24010162   6.077   3.627   5.430  0.2007  1.1585 -0.1414
   42MOL   H24110163   6.217   3.518   5.467 -0.4907 -0.2254 -1.1469
   42MOL   H24210164   5.979   3.718   5.831 -1.6052  0.5761 -0.1019
   43MOL     C110165   2.081   1.705   3.109 -0.5239  0.3442 -0.5605
   43MOL     C210166   1.984   1.694   3.231 -0.5933  0.1144 -0.3625
   43MOL     O310167   1.856   1.656   3.184  0.2276  0.1474  0.1576
   43MOL     C410168   1.755   1.746   3.178  0.0076 -0.4800 -0.0939
   43MOL     C510169   1.641   1.701   3.091  0.1836 -0.0489 -0.1596
   43MOL     O610170   1.761   1.857   3.234  0.6138 -0.0043  1.1115
   43MOL     H710171   2.096   1.620   3.043 -0.4949  0.9949 -1.4133
   43MOL     H810172   2.185   1.728   3.129 -0.6776 -0.7555  1.5805
   43MOL     H910173   1.976   1.783   3.294 -0.7251  0.4019 -0.7860
   43MOL    H1010174   1.623   1.593   3.094  0.6921 -0.1983 -2.3507
   43MOL    H1110175   1.652   1.731   2.987  0.4938  0.7307  0.0996
   43MOL    H1210176   1.558   1.760   3.132  0.0266  0.4388 -1.1770
   43MOL    H1310177   2.042   1.784   3.043 -0.6136  0.8595  0.1066
   43MOL    C1410178   2.034   1.577   3.327  0.2409  0.1570 -0.4881
   43MOL    C1510179   2.178   1.600   3.384 -0.1236 -0.1707 -0.6906
   43MOL    O1610180   2.162   1.708   3.475 -0.2675 -0.4776 -0.0987
   43MOL    C1710181   2.202   1.831   3.455  0.3713 -0.4331 -0.4202
   43MOL    C1810182   2.223   1.914   3.579  0.6009 -0.6277 -0.1015
   43MOL    O1910183   2.227   1.878   3.346  0.1469 -0.0570  0.2146
   43MOL    H2010184   1.963   1.552   3.406 -1.0889 -0.4453 -1.8696
   43MOL    H2110185   2.036   1.484   3.271  1.7092  1.6530 -3.0095
   43MOL    H2210186   2.250   1.629   3.307  1.8863  0.4148  1.3752
   43MOL    H2310187   2.310   1.873   3.629 -0.2315 -2.2043  0.1090
   43MOL    H2410188   2.129   1.909   3.635  0.1307 -1.2407 -0.9251
   43MOL    H2510189   2.223   2.018   3.545 -2.0468  0.3367  2.5724
   43MOL    C2610190   2.226   1.479   3.472 -0.9754 -0.1025 -0.0394
   43MOL    C2710191   2.357   1.498   3.549  0.1945 -0.4194  0.1927
   43MOL    O2810192   2.320   1.558   3.670  0.0333 -0.2215  0.2646
   43MOL    C2910193   2.394   1.648   3.745 -0.1875  0.2844 -0.7678
   43MOL    C3010194   2.319   1.698   3.865 -0.9485  0.9567 -0.7054
   43MOL    O3110195   2.502   1.697   3.717  0.6270 -0.1289 -0.0250
   43MOL    H3210196   2.144   1.445   3.535  0.1346  0.1444  1.5749
   43MOL    H3310197   2.229   1.392   3.405 -0.3282 -1.0444  1.1954
   43MOL    H3410198   2.423   1.567   3.496 -0.9973  0.9885  0.5148
   43MOL    H3510199   2.382   1.683   3.952  0.1731  0.9797 -1.5090
   43MOL    H3610200   2.227   1.639   3.865  0.1059 -0.7834  2.1518
   43MOL    H3710201   2.289   1.803   3.856 -0.9203  0.9704 -0.6417
   43MOL    C3810202   2.438   1.374   3.585  0.1718  0.2914 -0.4973
   43MOL    C3910203   2.474   1.291   3.457  0.2037  0.4092  0.1044
   43MOL    O4010204   2.600   1.331   3.406  0.1217  0.1386 -0.2275
   43MOL    C4110205   2.605   1.420   3.315 -0.6524  0.0377  0.2083
   43MOL    C4210206   2.745   1.447   3.272  0.0894 -0.3881  0.1923
   43MOL    O4310207   2.512   1.476   3.249 -0.2875 -0.0292  0.1254
   43MOL    H4410208   2.527   1.391   3.645 -0.6929  0.2562  0.8213
   43MOL    H4510209   2.356   1.319   3.633  1.5206 -1.1578  0.1708
   43MOL    H4610210   2.397   1.292   3.380  1.8690  2.6791 -1.5946
   43MOL    H4710211   2.770   1.549   3.303 -1.5705 -0.3944  1.6242
   43MOL    H4810212   2.769   1.432   3.167  0.4301 -0.3562  0.2664
   43MOL    H4910213   2.817   1.387   3.328  0.7623 -0.3339 -0.6034
   43MOL    C5010214   2.482   1.141   3.490  0.0564 -0.3959  0.1024
   43MOL    C5110215   2.494   1.044   3.366  0.0752  0.0791 -0.5462
   43MOL    O5210216   2.576   0.938   3.402  0.0832  0.2327 -0.4405
   43MOL    C5310217   2.708   0.955   3.379 -0.2738 -0.3727  0.1130
   43MOL    C5410218   2.791   0.845   3.441 -0.4547  0.3464  0.3391
   43MOL    O5510219   2.765   1.043   3.315 -0.4284  0.2009 -0.3001
   43MOL    H5610220   2.566   1.117   3.556 -0.8057 -2.7389  0.4097
   43MOL    H5710221   2.387   1.121   3.541 -0.0437 -0.1899 -0.0037
   43MOL    H5810222   2.537   1.102   3.284 -0.1701  0.9348 -0.0842
   43MOL    H5910223   2.736   0.776   3.505 -2.2390  2.0859  0.7203
   43MOL    H6010224   2.859   0.883   3.518 -2.0516  1.3476  1.2887
   43MOL    H6110225   2.849   0.801   3.360 -2.4269 -2.2349  0.2809
   43MOL    C6210226   2.362   0.985   3.327 -0.1318 -0.6375 -0.4472
   43MOL    C6310227   2.270   1.084   3.252  0.0093 -0.0049 -0.2286
   43MOL    O6410228   2.339   1.134   3.137  0.0938  0.5819  0.2675
   43MOL    C6510229   2.296   1.259   3.086  0.5829  0.7107 -0.4439
   43MOL    C6610230   2.380   1.301   2.969 -0.2264 -0.1875  0.4494
   43MOL    O6710231   2.196   1.322   3.121  1.0317 -0.6385 -0.4853
   43MOL    H6810232   2.385   0.906   3.256  0.9985 -0.1992 -0.5693
   43MOL    H6910233   2.312   0.937   3.412  0.6313  0.1556  0.4682
   43MOL    H7010234   2.248   1.159   3.327  0.3599 -0.5897  0.4603
   43MOL    H7110235   2.468   1.362   2.994 -0.1886 -0.0597  0.0147
   43MOL    H7210236   2.330   1.368   2.900  3.4296  0.8795 -1.3040
   43MOL    H7310237   2.398   1.210   2.913 -1.8783 -0.0417 -0.3148
   43MOL    C7410238   2.133   1.018   3.202  0.0732 -0.1998 -0.6264
   43MOL    C7510239   2.051   0.945   3.318 -0.4913  0.1953 -0.4868
   43MOL    O7610240   2.053   1.014   3.443  0.7521  0.9549 -0.2437
   43MOL    C7710241   2.077   0.959   3.572 -0.0656 -0.3826 -0.3843
   43MOL    C7810242   2.060   1.059   3.683 -0.1367 -0.5387 -0.2867
   43MOL    O7910243   2.126   0.848   3.595  0.0800 -0.6588  0.7212
   43MOL    H8010244   2.065   1.090   3.157  0.9604 -0.2223 -2.0292
   43MOL    H8110245   2.165   0.952   3.121  1.3711 -0.6004  0.1898
   43MOL    H8210246   2.108   0.854   3.333 -0.3957  0.6132  1.7463
   43MOL    H8310247   1.995   1.141   3.653  1.6228  0.8677 -0.3132
   43MOL    H8410248   2.155   1.109   3.696  0.3209 -1.1677 -1.1588
   43MOL    H8510249   2.035   1.004   3.774 -3.0423 -0.6574 -1.0862
   43MOL    C8610250   1.908   0.906   3.275 -0.3218  1.2375 -0.3307
   43MOL    C8710251   1.793   1.003   3.307 -0.0964 -0.3917 -0.0178
   43MOL    O8810252   1.792   1.108   3.207  0.7691  0.2416  0.2264
   43MOL    C8910253   1.845   1.235   3.221  0.1911  0.0944 -0.1987
   43MOL    C9010254   1.864   1.308   3.083 -1.1420 -0.4339  0.3655
   43MOL    O9110255   1.879   1.283   3.331 -0.3296  0.6807  0.3252
   43MOL    H9210256   1.904   0.892   3.167  4.1285 -0.4164 -0.3897
   43MOL    H9310257   1.880   0.813   3.324 -0.9000  2.0448  0.8884
   43MOL    H9410258   1.818   1.054   3.400 -0.8169 -0.3033  0.1318
   43MOL    H9510259   1.815   1.404   3.099 -1.5920 -0.7677  1.0078
   43MOL    H9610260   1.829   1.249   2.999 -2.7659  1.0034  0.0003
   43MOL    H9710261   1.970   1.325   3.066 -1.2083 -0.5317 -0.1418
   43MOL    C9810262   1.653   0.941   3.299 -0.9512  0.2778 -0.0479
   43MOL    C9910263   1.537   1.038   3.335 -0.2523 -0.6996  0.3286
   43MOL   O10010264   1.407   0.991   3.316  0.1370  0.6714  0.1937
   43MOL   C10110265   1.315   1.062   3.248  0.8157 -0.1939 -0.8129
   43MOL   C10210266   1.173   1.000   3.246 -0.7511 -0.1580  0.0593
   43MOL   O10310267   1.325   1.175   3.202 -0.5586  0.0432 -0.0975
   43MOL   H10410268   1.639   0.911   3.195 -0.9777 -0.1177  0.0686
   43MOL   H10510269   1.649   0.851   3.361 -2.4793  0.7503  0.5734
   43MOL   H10610270   1.546   1.135   3.285  1.4387  0.4398  2.7780
   43MOL   H10710271   1.125   1.022   3.341 -0.3404  0.9505  0.0161
   43MOL   H10810272   1.193   0.893   3.232  0.2567 -0.1858  1.5562
   43MOL   H10910273   1.124   1.039   3.157 -0.5136 -1.4183 -0.6347
   43MOL   C11010274   1.544   1.081   3.483 -0.2981  0.6048  0.8185
   43MOL   C11110275   1.480   1.215   3.507  0.0127 -0.0582 -0.1700
   43MOL   O11210276   1.422   1.221   3.643  0.3677 -0.1086 -0.1329
   43MOL   C11310277   1.287   1.260   3.659 -0.3362  0.3008  0.4563
   43MOL   C11410278   1.238   1.271   3.803  0.7696  0.0889  0.4786
   43MOL   O11510279   1.212   1.278   3.566  0.9600  0.0062  0.0973
   43MOL   H11610280   1.489   1.012   3.547 -1.0336 -0.6298 -1.0924
   43MOL   H11710281   1.648   1.085   3.514 -0.7626  0.1088  2.4722
   43MOL   H11810282   1.410   1.230   3.425 -0.7648  2.8373  0.9808
   43MOL   H11910283   1.266   1.185   3.863 -0.4660 -1.2419 -0.7949
   43MOL   H12010284   1.129   1.272   3.803  0.7702  1.6761 -0.0523
   43MOL   H12110285   1.268   1.362   3.855  0.3424  0.3250  0.3236
   43MOL   C12210286   1.591   1.327   3.495  0.5413 -0.1540 -0.2088
   43MOL   C12310287   1.532   1.467   3.479  0.3604 -1.0489  0.1055
   43MOL   O12410288   1.632   1.568   3.489 -0.2393  0.3126 -0.1124
   43MOL   C12510289   1.644   1.636   3.591 -0.6065 -0.5130  0.2045
   43MOL   C12610290   1.725   1.753   3.556  0.3767 -1.2923 -0.0986
   43MOL   O12710291   1.579   1.629   3.694 -0.5873  0.3608  0.2277
   43MOL   H12810292   1.648   1.332   3.587  0.5675 -0.5557 -0.2026
   43MOL   H12910293   1.659   1.307   3.412  2.0557  3.8171 -0.0531
   43MOL   H13010294   1.450   1.476   3.550 -2.2530  4.4291 -3.2594
   43MOL   H13110295   1.658   1.836   3.534  2.4141  0.5146  0.4010
   43MOL   H13210296   1.789   1.739   3.469 -0.4960 -2.0831 -0.6213
   43MOL   H13310297   1.782   1.775   3.646 -2.4501  1.9429  0.9969
   43MOL   C13410298   1.457   1.492   3.344 -0.5617  0.7522 -0.2094
   43MOL   C13510299   1.362   1.608   3.325 -0.0872 -0.1474  0.2312
   43MOL   O13610300   1.433   1.730   3.349  0.6221 -0.2520 -0.0443
   43MOL   C13710301   1.376   1.832   3.432 -0.4107  0.4260  0.3652
   43MOL   C13810302   1.456   1.963   3.448  0.2817  0.3683 -0.3706
   43MOL   O13910303   1.261   1.825   3.474 -0.2970  0.6634 -0.8518
   43MOL   H14010304   1.527   1.487   3.260  2.3283  1.6959  2.0459
   43MOL   H14110305   1.395   1.405   3.322  1.3811 -0.4696 -0.9807
   43MOL   H14210306   1.291   1.592   3.407 -1.6933 -1.6797 -1.4137
   43MOL   H14310307   1.398   2.055   3.447  0.1313  0.3094  1.4621
   43MOL   H14410308   1.515   1.968   3.356 -0.3722  0.6210 -0.7811
   43MOL   H14510309   1.503   1.958   3.546 -1.3166  0.3561  0.4241
   43MOL   C14610310   1.290   1.619   3.183 -0.2699  0.2053 -0.5084
   43MOL   C14710311   1.198   1.503   3.156  0.3999 -0.2547 -0.3724
   43MOL   O14810312   1.060   1.527   3.154 -0.5458 -0.1669  0.5656
   43MOL   C14910313   0.986   1.542   3.267 -0.3598  0.5070 -1.0901
   43MOL   C15010314   0.836   1.565   3.235 -0.2101 -0.1570  0.0883
   43MOL   O15110315   1.033   1.539   3.380  0.2567  0.0276  0.7425
   43MOL   H15210316   1.232   1.710   3.175  0.2563  0.6025  0.1533
   43MOL   H15310317   1.366   1.643   3.109  0.1888  0.8197  0.1617
   43MOL   H15410318   1.211   1.429   3.235 -1.7580 -2.6642 -2.2188
   43MOL   H15510319   0.787   1.512   3.316  1.1553 -0.6467  0.6057
   43MOL   H15610320   0.819   1.516   3.139  1.3768  0.7470 -0.6946
   43MOL   H15710321   0.794   1.665   3.227 -0.5977 -0.3402 -0.1552
   43MOL   C15810322   1.224   1.430   3.023 -0.3270  0.3405 -0.1663
   43MOL   C15910323   1.184   1.506   2.898  0.0559  0.5181 -0.0858
   43MOL   O16010324   1.277   1.611   2.878 -0.2950 -0.1128  0.0255
   43MOL   C16110325   1.249   1.715   2.799  0.0164  0.5014  0.6612
   43MOL   C16210326   1.351   1.825   2.812 -0.7818 -0.4981 -0.3422
   43MOL   O16310327   1.135   1.737   2.763  0.4733  0.3146 -0.1937
   43MOL   H16410328   1.329   1.405   3.011 -0.5634  0.0296 -1.7192
   43MOL   H16510329   1.171   1.335   3.036 -0.3808  0.4858  0.7368
   43MOL   H16610330   1.084   1.548   2.909 -0.1222  0.1250 -0.1746
   43MOL   H16710331   1.394   1.849   2.714  0.2596 -3.0094 -0.5425
   43MOL   H16810332   1.423   1.793   2.887 -0.6613 -1.2247 -0.7644
   43MOL   H16910333   1.313   1.915   2.861  0.3979 -1.1597  1.8775
   43MOL   C17010334   1.174   1.425   2.768 -0.0354  0.3486 -0.1689
   43MOL   C17110335   1.092   1.290   2.766  0.8609  0.3772  0.1300
   43MOL   O17210336   0.963   1.338   2.806  0.4528  0.2484  0.8612
   43MOL   C17310337   0.895   1.266   2.895  0.2776  0.1388  0.0977
   43MOL   C17410338   0.754   1.326   2.919 -0.4446  0.0098  0.5759
   43MOL   O17510339   0.932   1.169   2.956 -0.1855  0.3732 -0.4493
   43MOL   H17610340   1.136   1.485   2.685  0.6126 -0.1571 -0.8339
   43MOL   H17710341   1.275   1.387   2.754 -0.2428 -1.0588  1.8407
   43MOL   H17810342   1.138   1.223   2.838  1.2474 -2.4363 -2.6741
   43MOL   H17910343   0.675   1.267   2.873 -0.8269 -1.1891  2.6983
   43MOL   H18010344   0.759   1.431   2.891  0.8135  0.0563  0.9450
   43MOL   H18110345   0.752   1.322   3.027 -0.3217  0.6271  0.6037
   43MOL   C18210346   1.077   1.246   2.613  0.0573  0.0078  0.8408
   43MOL   C18310347   1.040   1.095   2.603  0.5009  0.1835 -0.1986
   43MOL   O18410348   0.922   1.087   2.518 -0.3776 -0.5760  0.5247
   43MOL   C18510349   0.806   1.032   2.569 -0.6989  0.1547 -0.4173
   43MOL   C18610350   0.695   1.046   2.470 -0.6182 -0.0308 -0.6407
   43MOL   O18710351   0.790   0.978   2.677  0.0906 -0.0716  0.9778
   43MOL   H18810352   1.002   1.316   2.578 -0.2485 -0.0749  1.3177
   43MOL   H18910353   1.164   1.277   2.556  0.1341  0.7136  1.3299
   43MOL   H19010354   1.025   1.067   2.707 -0.9587  0.7175 -0.2465
   43MOL   H19110355   0.741   1.024   2.373 -1.7257 -0.9265 -0.9747
   43MOL   H19210356   0.650   1.145   2.459  1.8842  0.8329 -4.0786
   43MOL   H19310357   0.614   0.976   2.491 -0.5342  0.1376  0.2696
   43MOL   C19410358   1.142   1.002   2.536 -0.2935 -0.1524 -0.1134
   43MOL   C19510359   1.241   0.949   2.640 -0.3703  0.0328  0.2934
   43MOL   O19610360   1.168   0.867   2.730  0.4043  0.1233  0.3257
   43MOL   C19710361   1.177   0.879   2.856 -0.2298 -0.0511 -0.3888
   43MOL   C19810362   1.082   0.785   2.926  0.2063 -1.2833  0.0195
   43MOL   O19910363   1.269   0.941   2.916  0.4402  0.2626  0.2048
   43MOL   H20010364   1.095   0.917   2.487 -2.0076  0.7476 -0.0720
   43MOL   H20110365   1.191   1.044   2.448 -0.5514  1.6858  0.5950
   43MOL   H20210366   1.285   1.041   2.679  0.4071  0.0878 -0.6883
   43MOL   H20310367   1.076   0.701   2.857 -1.3145 -1.6015  0.5320
   43MOL   H20410368   0.987   0.835   2.941  0.4965 -1.1963  1.6602
   43MOL   H20510369   1.122   0.757   3.024 -1.8436 -0.3748  1.1491
   43MOL   C20610370   1.363   0.873   2.580  0.7864  0.0436  0.0673
   43MOL   C20710371   1.494   0.863   2.664 -0.3119  0.5860  0.1076
   43MOL   O20810372   1.562   0.750   2.610  0.4358  0.6905 -0.3084
   43MOL   C20910373   1.621   0.653   2.690  0.6801 -0.4174 -0.0468
   43MOL   C21010374   1.690   0.545   2.609 -0.6678 -0.0391  0.1377
   43MOL   O21110375   1.622   0.660   2.816  0.0600  0.3523 -0.1778
   43MOL   H21210376   1.326   0.773   2.556  0.6459  0.4329 -1.3715
   43MOL   H21310377   1.388   0.929   2.491  2.6250  1.2660  1.3292
   43MOL   H21410378   1.463   0.836   2.765 -2.9818  1.9562 -0.2911
   43MOL   H21510379   1.654   0.449   2.648 -1.6134 -0.2475 -1.1900
   43MOL   H21610380   1.797   0.559   2.619 -1.1508  2.1883  2.5297
   43MOL   H21710381   1.651   0.543   2.507 -0.5449  1.4235  0.0583
   43MOL   C21810382   1.578   0.987   2.657 -0.3018 -0.0750  0.5736
   43MOL   C21910383   1.666   1.005   2.784 -0.0078  0.1992 -0.3694
   43MOL   O22010384   1.783   1.083   2.756 -0.3308  0.0700  0.1963
   43MOL   C22110385   1.906   1.047   2.825  0.3503 -0.0496 -0.9233
   43MOL   C22210386   2.015   1.159   2.800 -0.4658  0.3825 -0.0894
   43MOL   O22310387   1.929   0.947   2.893 -0.4511 -0.2805 -0.4759
   43MOL   H22410388   1.645   0.962   2.575 -0.7269 -2.1798  0.8393
   43MOL   H22510389   1.528   1.079   2.627  1.1304 -0.1542 -2.1776
   43MOL   H22610390   1.699   0.912   2.831  2.4375  1.2916  0.1365
   43MOL   H22710391   2.108   1.128   2.847  1.1158  1.5121 -2.3398
   43MOL   H22810392   1.995   1.255   2.848 -1.2207 -0.2196  0.8082
   43MOL   H22910393   2.022   1.188   2.695  0.9664  0.3482 -0.0174
   43MOL   C23010394   1.592   1.068   2.905  0.9190  0.2331 -0.9374
   43MOL   C23110395   1.508   1.192   2.881  0.2023 -1.4645 -0.1507
   43MOL   O23210396   1.586   1.306   2.873  0.4484 -0.1340 -0.2521
   43MOL   C23310397   1.587   1.382   2.763  0.0451  0.2032  1.1148
   43MOL   C23410398   1.694   1.490   2.763 -0.2102  0.0675 -0.6787
   43MOL   O23510399   1.517   1.369   2.663 -0.1893  0.2458  0.2751
   43MOL   H23610400   1.526   0.991   2.946  1.6470 -1.8243 -3.5299
   43MOL   H23710401   1.661   1.097   2.985  0.7098  0.6982 -0.9280
   43MOL   H23810402   1.442   1.219   2.964  1.4245  1.0676  0.0423
   43MOL   H23910403   1.765   1.454   2.837 -0.9793 -0.3808 -0.1494
   43MOL   H24010404   1.652   1.587   2.788 -0.8671  0.1217 -1.9422
   43MOL   H24110405   1.757   1.503   2.675  0.1987  0.7593 -0.2924
   43MOL   H24210406   1.430   1.174   2.807 -1.7279  0.0651  1.4482
   44MOL     C110407   0.197   1.854   5.917  0.0752 -0.1883  0.0875
   44MOL     C210408   0.156   1.764   6.032  0.0386 -0.4239  0.5643
   44MOL     O310409   0.012   1.802   6.058  0.0752  0.1291  0.1203
   44MOL     C410410   8.004   1.828   6.188  0.5050 -0.1015  0.2919
   44MOL     C510411   7.866   1.883   6.209 -0.2539 -0.6029 -0.0106
   44MOL     O610412   0.064   1.809   6.283  0.1563 -0.1683 -0.3218
   44MOL     H710413   0.187   1.962   5.920  2.9120  0.1515 -1.3094
   44MOL     H810414   0.142   1.823   5.828  0.8647 -0.0773 -0.4449
   44MOL     H910415   0.220   1.799   6.113 -0.0482  4.1389 -1.1997
   44MOL    H1010416   7.853   1.973   6.148  0.3761 -0.3990  0.1535
   44MOL    H1110417   7.845   1.886   6.316 -2.5936  0.5400 -0.4799
   44MOL    H1210418   7.805   1.801   6.172 -0.0147 -0.2899 -1.1185
   44MOL    H1310419   0.301   1.836   5.888  0.7213  3.2239  0.1120
   44MOL    C1410420   0.159   1.610   6.017  0.0108  0.1417  0.6011
   44MOL    C1510421   0.180   1.528   6.150  0.6460  0.6232  0.7296
   44MOL    O1610422   0.139   1.397   6.131  0.2517  0.0325 -0.0670
   44MOL    C1710423   0.024   1.355   6.177  0.2398  0.4015  0.9710
   44MOL    C1810424   8.020   1.207   6.154  0.8055  0.1271  0.9621
   44MOL    O1910425   7.961   1.424   6.236 -0.2165 -0.1129  0.1231
   44MOL    H2010426   0.068   1.586   5.962  0.7479 -3.1714  0.7395
   44MOL    H2110427   0.235   1.575   5.946  0.9565  1.8379  0.7322
   44MOL    H2210428   0.133   1.584   6.231 -1.0123  1.3845 -0.7242
   44MOL    H2310429   0.084   1.159   6.106 -0.8495 -2.3095  0.3398
   44MOL    H2410430   7.941   1.198   6.080  0.4785 -0.0840  1.3387
   44MOL    H2510431   7.994   1.156   6.246 -0.2655 -1.3690 -0.1426
   44MOL    C2610432   0.328   1.514   6.198  0.0885 -0.1647  0.2354
   44MOL    C2710433   0.339   1.466   6.337  0.3798  0.5882 -0.9537
   44MOL    O2810434   0.475   1.450   6.366  0.1309  0.0651 -0.2612
   44MOL    C2910435   0.543   1.330   6.344  1.4122 -0.3785  0.2438
   44MOL    C3010436   0.691   1.347   6.341  0.5905 -0.0835 -1.0603
   44MOL    O3110437   0.482   1.217   6.333 -0.0037 -0.6215 -0.4692
   44MOL    H3210438   0.373   1.442   6.129  1.3206  2.1323 -1.4495
   44MOL    H3310439   0.377   1.611   6.202 -1.1511  0.5591 -1.4273
   44MOL    H3410440   0.284   1.373   6.347  1.5372  0.0381  0.4515
   44MOL    H3510441   0.734   1.263   6.286  0.3269 -1.2775  0.5209
   44MOL    H3610442   0.738   1.364   6.438  0.7266 -0.5190 -1.0482
   44MOL    H3710443   0.707   1.439   6.285  0.4713 -0.9278 -2.5242
   44MOL    C3810444   0.295   1.558   6.446  0.7701 -0.2646  0.4846
   44MOL    C3910445   0.269   1.491   6.586  0.3945  0.1149  0.8866
   44MOL    O4010446   0.243   1.595   6.675  0.6104 -0.4102  0.6062
   44MOL    C4110447   0.340   1.623   6.770 -0.0902  0.2929  0.4614
   44MOL    C4210448   0.289   1.711   6.875  0.2937 -0.4804 -0.1420
   44MOL    O4310449   0.455   1.586   6.782  0.3411  0.3889  0.0291
   44MOL    H4410450   0.368   1.637   6.465  1.6795 -0.6056 -1.4039
   44MOL    H4510451   0.202   1.608   6.417  0.8223 -0.6256 -0.3292
   44MOL    H4610452   0.357   1.442   6.627  0.9110  2.4861  2.7206
   44MOL    H4710453   0.307   1.815   6.845 -2.3829  0.1131  0.1566
   44MOL    H4810454   0.341   1.686   6.968 -0.2996  0.3679  0.4337
   44MOL    H4910455   0.181   1.702   6.884  0.3785  0.1998  2.0354
   44MOL    C5010456   0.150   1.409   6.586 -0.1337  0.4198  0.1801
   44MOL    C5110457   0.144   1.324   6.714  0.4671  0.3704  0.4484
   44MOL    O5210458   0.004   1.317   6.739  0.0485 -0.3029 -0.4081
   44MOL    C5310459   7.971   1.379   6.839  0.5282 -0.2645 -0.3026
   44MOL    C5410460   7.829   1.341   6.868  0.3244  0.0648  0.3490
   44MOL    O5510461   8.021   1.475   6.900  0.2196 -0.1556 -0.3103
   44MOL    H5610462   0.066   1.479   6.586  1.1885  2.0447  1.3053
   44MOL    H5710463   0.132   1.364   6.488  0.5757  0.0435  0.2275
   44MOL    H5810464   0.189   1.378   6.797  2.6536 -0.7515  0.0328
   44MOL    H5910465   7.785   1.397   6.951  0.6467 -0.9086  1.1898
   44MOL    H6010466   7.818   1.235   6.891 -0.5350  0.4280  1.6642
   44MOL    H6110467   7.766   1.356   6.780  2.5794 -0.0454 -1.3325
   44MOL    C6210468   0.200   1.179   6.695  0.4171 -0.0276  0.7720
   44MOL    C6310469   0.352   1.159   6.665  0.8326  0.7944 -1.0657
   44MOL    O6410470   0.423   1.242   6.762  0.2352  0.1279 -0.1314
   44MOL    C6510471   0.550   1.279   6.752 -0.1287  0.2105 -0.0904
   44MOL    C6610472   0.607   1.328   6.880  0.2125 -0.7236 -0.5122
   44MOL    O6710473   0.617   1.269   6.651 -0.0424 -0.2953 -0.5025
   44MOL    H6810474   0.199   1.130   6.792 -0.5770 -1.5847 -0.0099
   44MOL    H6910475   0.125   1.130   6.633 -0.3334  1.4601  0.4819
   44MOL    H7010476   0.369   1.211   6.571  1.8970 -0.9582 -1.8708
   44MOL    H7110477   0.646   1.238   6.927 -1.5813 -0.2013  2.1004
   44MOL    H7210478   0.535   1.360   6.955  1.7628 -1.3073  1.2633
   44MOL    H7310479   0.691   1.398   6.871 -0.0443 -0.4517 -0.7969
   44MOL    C7410480   0.394   1.000   6.674  0.2467 -0.0236 -0.0849
   44MOL    C7510481   0.376   0.919   6.544  0.0332  0.6841  0.4176
   44MOL    O7610482   0.429   0.795   6.590 -0.0233 -0.1186 -0.3097
   44MOL    C7710483   0.526   0.729   6.524 -0.9107 -0.1066 -0.4337
   44MOL    C7810484   0.572   0.605   6.608 -0.0655  0.3013  0.0212
   44MOL    O7910485   0.587   0.766   6.422 -0.2684  0.3019  0.1827
   44MOL    H8010486   0.499   0.998   6.700  0.6701  0.5405 -1.7188
   44MOL    H8110487   0.335   0.956   6.755 -0.8244  0.4554 -0.5885
   44MOL    H8210488   0.437   0.958   6.462  1.3626 -0.0275  1.0538
   44MOL    H8310489   0.614   0.650   6.698  0.9231 -1.2999  0.3801
   44MOL    H8410490   0.657   0.554   6.562  0.0323 -0.2467  0.8021
   44MOL    H8510491   0.491   0.536   6.631 -1.2817  1.7533  0.2210
   44MOL    C8610492   0.226   0.922   6.496 -0.4441  0.4695  0.9656
   44MOL    C8710493   0.196   0.831   6.378  0.0268  0.3332 -0.2393
   44MOL    O8810494   0.049   0.806   6.376 -0.5874 -0.4814 -0.6166
   44MOL    C8910495   0.002   0.683   6.419 -0.3277 -0.6545 -0.7018
   44MOL    C9010496   7.876   0.687   6.416  0.1912 -0.0425  0.4286
   44MOL    O9110497   0.062   0.580   6.458 -0.1355 -0.0342  0.8532
   44MOL    H9210498   0.168   0.885   6.581 -0.5350 -1.3088  0.1500
   44MOL    H9310499   0.200   1.024   6.466  1.0338  0.0433 -1.9452
   44MOL    H9410500   0.260   0.746   6.401 -1.4881 -0.5152  0.9406
   44MOL    H9510501   7.839   0.758   6.490  0.7803  1.4621 -0.6943
   44MOL    H9610502   7.837   0.585   6.421  0.3690 -0.0766  1.1144
   44MOL    H9710503   7.841   0.727   6.321  0.5773  0.1209  0.3554
   44MOL    C9810504   0.241   0.894   6.243  0.0054 -0.1352  0.3183
   44MOL    C9910505   0.236   0.783   6.125 -0.5638  0.3098 -0.3054
   44MOL   O10010506   0.208   0.848   6.004  0.1850 -0.2493  0.4351
   44MOL   C10110507   0.084   0.854   5.942  0.1526  0.3751 -0.7776
   44MOL   C10210508   0.090   0.934   5.815 -0.0742 -0.1835 -0.7537
   44MOL   O10310509   8.002   0.795   5.974 -0.4553 -0.0315 -0.4476
   44MOL   H10410510   0.162   0.966   6.219 -0.1015 -0.6866 -0.9732
   44MOL   H10510511   0.342   0.935   6.250  0.0830 -0.2508 -0.1436
   44MOL   H10610512   0.160   0.713   6.158  0.1490 -1.4248 -2.2266
   44MOL   H10710513   0.174   0.999   5.837 -0.4346  0.4003 -1.0963
   44MOL   H10810514   8.020   0.993   5.815 -1.0843 -1.7202  0.0037
   44MOL   H10910515   0.095   0.882   5.719  0.2262  1.4020 -1.6123
   44MOL   C11010516   0.367   0.703   6.106  0.2506  0.7305 -0.6902
   44MOL   C11110517   0.368   0.562   6.038  0.1451 -0.1384 -0.1362
   44MOL   O11210518   0.325   0.588   5.907  0.4565  0.0744 -0.4127
   44MOL   C11310519   0.277   0.484   5.842  0.3298  0.4906 -0.1672
   44MOL   C11410520   0.245   0.514   5.698  0.3489  0.2064  0.7964
   44MOL   O11510521   0.264   0.370   5.889 -0.5729 -0.2412 -0.5247
   44MOL   H11610522   0.421   0.771   6.040 -0.4247 -0.9247 -2.9936
   44MOL   H11710523   0.427   0.705   6.197 -4.1639 -0.7050  2.4486
   44MOL   H11810524   0.289   0.505   6.089 -0.4910 -0.1419 -1.1237
   44MOL   H11910525   0.329   0.483   5.636 -0.5264  2.4026 -1.5672
   44MOL   H12010526   0.214   0.618   5.688 -0.0495 -0.0548 -0.8156
   44MOL   H12110527   0.168   0.447   5.660  0.0437  0.5543  0.7982
   44MOL   C12210528   0.506   0.499   6.055 -0.0207  1.1531  0.9567
   44MOL   C12310529   0.549   0.464   6.197  0.1469 -0.3348 -0.3035
   44MOL   O12410530   0.463   0.367   6.246 -0.0862 -0.3908 -0.6457
   44MOL   C12510531   0.368   0.401   6.334 -0.0530  0.2887  0.0308
   44MOL   C12610532   0.288   0.286   6.392  0.2980 -0.2622 -0.3960
   44MOL   O12710533   0.344   0.513   6.361 -0.1615  0.2188 -0.2110
   44MOL   H12810534   0.518   0.420   5.981 -2.0168  3.3482 -1.8307
   44MOL   H12910535   0.569   0.581   6.022  2.7178 -0.9907  0.6387
   44MOL   H13010536   0.553   0.553   6.260  0.3664  0.2273 -1.1004
   44MOL   H13110537   0.362   0.230   6.449 -1.1897 -0.1068  1.7184
   44MOL   H13210538   0.250   0.228   6.308 -1.6001 -2.4482  1.9050
   44MOL   H13310539   0.211   0.333   6.453 -0.9774  0.1298 -2.2856
   44MOL   C13410540   0.688   0.397   6.189 -0.5701  0.2127 -0.0306
   44MOL   C13510541   0.743   0.342   6.321 -0.7999 -0.5326  0.1332
   44MOL   O13610542   0.680   0.219   6.341  0.8740  0.1936 -0.3272
   44MOL   C13710543   0.636   0.179   6.461 -0.2439  0.3599  0.3559
   44MOL   C13810544   0.558   0.049   6.455 -0.1461 -0.2005  0.0255
   44MOL   O13910545   0.642   0.237   6.570  0.4835 -0.1884 -0.3259
   44MOL   H14010546   0.678   0.313   6.120  1.3275 -1.2030  1.3594
   44MOL   H14110547   0.761   0.462   6.140 -0.0272 -2.8103 -3.5242
   44MOL   H14210548   0.740   0.410   6.406  0.4540  1.8101 -1.6424
   44MOL   H14310549   0.525   0.023   6.354  0.9142 -0.8590 -0.1624
   44MOL   H14410550   0.487   0.041   6.537  0.0163  1.4212  0.3376
   44MOL   H14510551   0.627   7.988   6.471  1.0807  0.9135  0.5374
   44MOL   C14610552   0.888   0.309   6.296  0.3217  0.1086 -0.1028
   44MOL   C14710553   0.962   0.233   6.413 -0.0162  0.8928 -0.3174
   44MOL   O14810554   0.959   0.095   6.388 -0.0631 -0.2095  0.0735
   44MOL   C14910555   1.022   0.032   6.291 -0.1712 -0.7167  0.2031
   44MOL   C15010556   1.009   7.909   6.301  0.7793  0.4321  0.0935
   44MOL   O15110557   1.096   0.080   6.211 -1.0136 -0.0803 -1.1213
   44MOL   H15210558   0.900   0.260   6.200 -0.2949 -1.1399  0.4387
   44MOL   H15310559   0.946   0.401   6.294 -0.2813  0.4750 -1.4844
   44MOL   H15410560   0.890   0.242   6.495 -1.0746 -0.5090 -1.0574
   44MOL   H15510561   1.014   7.861   6.203  0.9137 -1.4360  1.0014
   44MOL   H15610562   0.914   7.874   6.343 -0.1001 -0.8313 -2.8093
   44MOL   H15710563   1.096   7.867   6.351  1.1409  1.8719  0.6983
   44MOL   C15810564   1.092   0.283   6.473  0.5815  0.1151  0.1526
   44MOL   C15910565   1.072   0.394   6.579 -0.7690 -0.6833 -0.5102
   44MOL   O16010566   0.991   0.332   6.684  0.3121 -0.0432  0.3407
   44MOL   C16110567   0.916   0.420   6.757 -0.2040 -0.6897 -0.0942
   44MOL   C16210568   0.818   0.347   6.848 -1.0356  0.0229  0.0633
   44MOL   O16310569   0.922   0.543   6.751 -0.1869  0.1685 -0.0306
   44MOL   H16410570   1.129   0.195   6.526  0.3926  1.1185  1.9550
   44MOL   H16510571   1.155   0.310   6.388 -0.2822 -0.4171 -0.6596
   44MOL   H16610572   1.018   0.476   6.531 -1.2288 -1.5281 -1.4576
   44MOL   H16710573   0.717   0.354   6.808 -2.0866  0.5378  2.6705
   44MOL   H16810574   0.818   0.393   6.947 -1.4926  0.0188  0.0663
   44MOL   H16910575   0.854   0.244   6.857 -0.6715  0.2435  1.1738
   44MOL   C17010576   1.204   0.449   6.642 -0.6065  0.0038 -0.5340
   44MOL   C17110577   1.301   0.524   6.546  0.0595 -0.8921  0.0804
   44MOL   O17210578   1.256   0.660   6.549  0.0200 -0.0928  0.4949
   44MOL   C17310579   1.160   0.712   6.460 -0.1546  1.0565  0.1641
   44MOL   C17410580   1.157   0.867   6.459  0.0624 -0.0062  0.3867
   44MOL   O17510581   1.085   0.643   6.388 -0.3710  0.1466  0.4883
   44MOL   H17610582   1.181   0.507   6.731 -0.5490 -0.4694 -0.2099
   44MOL   H17710583   1.263   0.369   6.688  1.0431  0.7947 -1.2321
   44MOL   H17810584   1.286   0.492   6.443  0.1326 -1.3212  0.2017
   44MOL   H17910585   1.245   0.919   6.496  0.2806  0.3746 -0.6652
   44MOL   H18010586   1.071   0.902   6.517  1.0500 -0.6778  2.3234
   44MOL   H18110587   1.158   0.899   6.355 -0.3411  1.1656  0.7324
   44MOL   C18210588   1.448   0.500   6.581 -0.6787 -0.0860 -0.0556
   44MOL   C18310589   1.505   0.359   6.560  0.3706 -0.0049 -0.5673
   44MOL   O18410590   1.471   0.326   6.429  0.1642  0.2100  0.0901
   44MOL   C18510591   1.437   0.203   6.390 -0.6968  0.3839 -0.3188
   44MOL   C18610592   1.456   0.177   6.245 -0.3871 -0.0339 -0.2451
   44MOL   O18710593   1.407   0.112   6.472 -0.1678 -0.1356  0.1555
   44MOL   H18810594   1.517   0.566   6.529  1.6801 -0.9926  1.8184
   44MOL   H18910595   1.460   0.532   6.684  0.1221  2.2880 -0.8458
   44MOL   H19010596   1.457   0.297   6.636  0.2538 -0.1352 -0.7463
   44MOL   H19110597   1.535   0.241   6.207 -0.8885  0.8389  0.1451
   44MOL   H19210598   1.360   0.209   6.203 -0.4718 -0.2970 -0.2544
   44MOL   H19310599   1.476   0.075   6.212  0.1624  0.8281 -2.6280
   44MOL   C19410600   1.654   0.341   6.584 -0.1701  0.1140  0.5904
   44MOL   C19510601   1.698   0.349   6.727 -0.4336  0.3897 -0.0629
   44MOL   O19610602   1.683   0.217   6.778  0.3815  0.1028 -0.1126
   44MOL   C19710603   1.574   0.202   6.859 -0.6037 -0.2560 -0.1373
   44MOL   C19810604   1.583   0.070   6.937 -0.4089 -0.1756 -0.0641
   44MOL   O19910605   1.492   0.287   6.878  1.2997  0.5053  0.3006
   44MOL   H20010606   1.676   0.246   6.535  1.4047  1.0177 -0.4976
   44MOL   H20110607   1.710   0.412   6.524  0.7944 -1.5460 -0.5257
   44MOL   H20210608   1.646   0.429   6.781 -0.8879  0.6109 -0.8248
   44MOL   H20310609   1.577   0.077   7.046 -1.8146 -0.9076 -0.0837
   44MOL   H20410610   1.681   0.023   6.926  0.9452  2.5967 -0.2948
   44MOL   H20510611   1.507   8.021   6.902 -0.6380 -0.8516  1.6917
   44MOL   C20610612   1.851   0.367   6.742  0.1016 -0.2975  0.1739
   44MOL   C20710613   1.872   0.524   6.731  0.7075  0.0345 -0.7143
   44MOL   O20810614   1.883   0.580   6.864 -0.7845 -0.3797  0.4829
   44MOL   C20910615   1.779   0.646   6.919  0.1204 -0.1852 -0.2027
   44MOL   C21010616   1.811   0.690   7.061  0.7056 -0.7330 -0.5264
   44MOL   O21110617   1.669   0.668   6.871 -0.2426 -0.7387 -0.0598
   44MOL   H21210618   1.886   0.327   6.838  0.8851 -1.1979 -0.4797
   44MOL   H21310619   1.910   0.314   6.668 -0.2458  0.2058 -0.4625
   44MOL   H21410620   1.785   0.569   6.682 -0.2163  0.0624  0.9095
   44MOL   H21510621   1.789   0.795   7.079  0.1684 -0.9958  0.4483
   44MOL   H21610622   1.915   0.670   7.085  0.2604 -1.5104  0.8233
   44MOL   H21710623   1.753   0.641   7.140  1.1193  0.5130  0.5565
   44MOL   C21810624   2.005   0.561   6.662 -0.4434  0.2230 -0.3998
   44MOL   C21910625   2.008   0.541   6.509  0.3440 -0.0919  0.3271
   44MOL   O22010626   1.924   0.635   6.433  0.5843 -0.1320  0.3749
   44MOL   C22110627   1.840   0.589   6.334 -0.4267 -0.4163 -0.2078
   44MOL   C22210628   1.758   0.704   6.290 -0.0719  0.0410  0.2781
   44MOL   O22310629   1.839   0.480   6.278 -0.2901 -0.2579  0.8499
   44MOL   H22410630   2.031   0.666   6.674 -0.2131  0.0605  0.5784
   44MOL   H22510631   2.092   0.505   6.695  1.2597  2.1476 -1.5806
   44MOL   H22610632   1.980   0.437   6.491  0.0490  0.2069 -1.0754
   44MOL   H22710633   1.807   0.800   6.311  1.5986  0.0136 -3.1671
   44MOL   H22810634   1.662   0.714   6.341 -0.3204 -0.6458 -0.0456
   44MOL   H22910635   1.749   0.702   6.181  0.2526  3.4969  0.1130
   44MOL   C23010636   2.150   0.562   6.460 -0.5807 -0.1457 -0.4003
   44MOL   C23110637   2.181   0.506   6.326  0.1239  0.2082 -0.5096
   44MOL   O23210638   2.183   0.362   6.344 -0.2433  0.3742  0.0265
   44MOL   C23310639   2.179   0.275   6.241  0.9322 -0.5085 -0.3220
   44MOL   C23410640   2.182   0.126   6.283 -0.0257 -0.0452 -0.5754
   44MOL   O23510641   2.181   0.303   6.118 -0.1055  0.1432 -0.1256
   44MOL   H23610642   2.186   0.665   6.459 -2.7948  0.6981  2.3829
   44MOL   H23710643   2.225   0.524   6.528 -0.8265 -0.3916 -0.2685
   44MOL   H23810644   2.281   0.529   6.290  0.8047 -0.7472  0.7339
   44MOL   H23910645   2.145   0.130   6.385 -2.7752  2.0379 -1.5708
   44MOL   H24010646   2.282   0.085   6.271 -0.4488 -0.6847 -2.0751
   44MOL   H24110647   2.116   0.069   6.217  0.0391 -0.8636  0.0675
   44MOL   H24210648   2.104   0.545   6.259 -0.3681  1.2602  0.6516
   45MOL     C110649   5.845   1.741   0.520  0.1475 -0.0361 -0.0309
   45MOL     C210650   5.873   1.867   0.597  0.2703  0.0414 -0.0682
   45MOL     O310651   6.012   1.875   0.605 -0.7866 -0.4542  0.0366
   45MOL     C410652   6.076   1.945   0.701 -0.4877  0.6458 -0.2306
   45MOL     C510653   6.224   1.925   0.690 -0.2137  1.5351 -0.2936
   45MOL     O610654   6.021   2.019   0.787 -0.0343  0.1275 -0.2056
   45MOL     H710655   5.883   1.745   0.418 -1.0615 -1.5833 -0.5480
   45MOL     H810656   5.738   1.722   0.515 -0.2144  2.1999 -1.6263
   45MOL     H910657   5.834   1.848   0.697  1.2242 -0.1390  0.2731
   45MOL    H1010658   6.289   2.009   0.713  2.5137 -0.0392 -2.0076
   45MOL    H1110659   6.256   1.884   0.594 -0.6864  1.0628 -0.2532
   45MOL    H1210660   6.244   1.859   0.775 -0.0890  0.4844 -1.1270
   45MOL    H1310661   5.895   1.656   0.565  0.1149 -0.5773 -1.0006
   45MOL    C1410662   5.812   1.997   0.525  0.1146  0.5011  0.0011
   45MOL    C1510663   5.673   2.039   0.578 -0.0916  0.4851 -0.1663
   45MOL    O1610664   5.666   2.123   0.694  0.3183 -0.1571  0.2108
   45MOL    C1710665   5.660   2.073   0.816 -0.1820 -0.3309 -0.0668
   45MOL    C1810666   5.654   2.188   0.916  0.3421  0.3162  0.2806
   45MOL    O1910667   5.661   1.954   0.840  0.1832  0.2666  0.5327
   45MOL    H2010668   5.890   2.073   0.525  0.2594  0.3714 -1.7532
   45MOL    H2110669   5.795   1.981   0.419  1.5488 -0.1791 -0.1455
   45MOL    H2210670   5.611   1.952   0.601 -0.0840 -0.4198 -3.3578
   45MOL    H2310671   5.620   2.279   0.868 -1.0536 -0.1754  0.3112
   45MOL    H2410672   5.751   2.203   0.964 -0.6973  1.3639  2.1224
   45MOL    H2510673   5.590   2.164   1.001 -0.6069  0.4127 -0.4101
   45MOL    C2610674   5.603   2.131   0.479  0.9061  0.8372  0.0747
   45MOL    C2710675   5.452   2.169   0.498  0.3716 -0.3788  0.3512
   45MOL    O2810676   5.429   2.283   0.414  0.0667  0.6176 -0.0323
   45MOL    C2910677   5.398   2.405   0.473 -0.2245 -0.5527 -0.4850
   45MOL    C3010678   5.345   2.508   0.376  0.5076 -0.5760 -0.0928
   45MOL    O3110679   5.407   2.430   0.591  0.8592 -0.1070  0.2495
   45MOL    H3210680   5.664   2.221   0.468 -1.3500  2.4440  0.3323
   45MOL    H3310681   5.607   2.087   0.379  1.4402 -2.2128  1.3959
   45MOL    H3410682   5.448   2.202   0.602 -0.5415 -0.6385  0.4091
   45MOL    H3510683   5.289   2.454   0.299 -2.3619  1.5919  0.3614
   45MOL    H3610684   5.426   2.548   0.316  0.9516  0.5736  1.2436
   45MOL    H3710685   5.288   2.587   0.425 -0.7226 -0.7703 -1.1924
   45MOL    C3810686   5.347   2.059   0.487 -0.4324  0.2541  0.1522
   45MOL    C3910687   5.215   2.079   0.561 -0.2809  0.9430  0.2287
   45MOL    O4010688   5.119   2.143   0.477  0.0827  0.5593  0.7450
   45MOL    C4110689   5.046   2.250   0.509 -0.2393 -0.2781 -0.3617
   45MOL    C4210690   4.943   2.290   0.402  0.5802  0.2297  0.4477
   45MOL    O4310691   5.053   2.311   0.617 -0.2852  0.5374  0.6048
   45MOL    H4410692   5.335   2.030   0.383  1.3576 -0.2435  0.0534
   45MOL    H4510693   5.393   1.963   0.513  0.0735  1.0061  2.1285
   45MOL    H4610694   5.235   2.155   0.637 -1.3450  0.1417  1.3291
   45MOL    H4710695   4.945   2.398   0.388 -0.0829  0.4311  1.7410
   45MOL    H4810696   4.848   2.267   0.450  0.2175  1.3601  0.2966
   45MOL    H4910697   4.954   2.233   0.311 -0.0576  0.9670 -0.1046
   45MOL    C5010698   5.164   1.947   0.619  0.5250  0.1889  1.0792
   45MOL    C5110699   5.024   1.951   0.676  0.4808  0.1817  0.2135
   45MOL    O5210700   4.993   1.813   0.711 -0.1155  0.0264 -0.1882
   45MOL    C5310701   4.873   1.758   0.697 -0.6906 -0.5512  0.7600
   45MOL    C5410702   4.856   1.627   0.766 -0.3605 -0.4323 -0.1739
   45MOL    O5510703   4.780   1.803   0.633  0.2011 -0.2613 -0.1868
   45MOL    H5610704   5.152   1.887   0.528 -1.9717  1.1052  0.7941
   45MOL    H5710705   5.225   1.904   0.699 -0.9229 -1.5720  1.2579
   45MOL    H5810706   4.944   1.972   0.605 -0.4018  1.3559  1.5140
   45MOL    H5910707   4.913   1.547   0.719  0.7897 -0.3794  1.1028
   45MOL    H6010708   4.751   1.599   0.767  0.0285 -2.1211 -1.7158
   45MOL    H6110709   4.901   1.631   0.865  1.7577 -1.8385 -1.0325
   45MOL    C6210710   5.012   2.044   0.800 -0.5502  0.0967 -0.2576
   45MOL    C6310711   4.875   2.080   0.852  1.0246 -0.2120  0.3723
   45MOL    O6410712   4.896   2.138   0.982  0.4662  0.2562 -0.1101
   45MOL    C6510713   4.908   2.048   1.088 -0.2146  0.4463  0.5000
   45MOL    C6610714   4.946   2.119   1.217 -0.7394  0.0942 -1.0507
   45MOL    O6710715   4.886   1.924   1.084 -0.8510  0.4942  0.1333
   45MOL    H6810716   5.073   1.982   0.866  1.5461  0.4330 -1.8205
   45MOL    H6910717   5.068   2.135   0.780 -1.9812  0.3479 -3.4365
   45MOL    H7010718   4.804   1.997   0.849  0.3298  0.3270  1.6199
   45MOL    H7110719   5.053   2.120   1.234 -0.8977  1.7318 -0.0146
   45MOL    H7210720   4.894   2.081   1.305  1.3952 -0.4429  0.0178
   45MOL    H7310721   4.920   2.225   1.214  1.2693  0.6524  0.5990
   45MOL    C7410722   4.805   2.189   0.762  0.0406  0.1345  0.2373
   45MOL    C7510723   4.671   2.245   0.806 -0.3007  0.7865 -0.4976
   45MOL    O7610724   4.689   2.311   0.933 -0.5362 -0.0709  0.2284
   45MOL    C7710725   4.616   2.287   1.034  0.0900 -0.5519 -0.2842
   45MOL    C7810726   4.648   2.383   1.144  0.4552  0.0642  0.3986
   45MOL    O7910727   4.527   2.199   1.043 -0.5618 -0.4379 -0.1380
   45MOL    H8010728   4.870   2.275   0.776 -2.4769  1.8926  1.5075
   45MOL    H8110729   4.801   2.153   0.659  2.9218  1.8887 -0.5417
   45MOL    H8210730   4.599   2.163   0.813 -0.2300  0.6768 -1.0817
   45MOL    H8310731   4.727   2.450   1.109  0.8982 -1.0865 -0.8638
   45MOL    H8410732   4.686   2.338   1.236  1.0828 -2.1766 -0.9310
   45MOL    H8510733   4.559   2.443   1.163  0.9173  0.4643  1.3231
   45MOL    C8610734   4.626   2.341   0.698  0.1223  0.2224 -0.4213
   45MOL    C8710735   4.496   2.407   0.728  0.2281 -0.3902  0.1517
   45MOL    O8810736   4.502   2.531   0.665 -0.1896 -0.4114  0.3879
   45MOL    C8910737   4.536   2.647   0.728  0.5260  0.0948  0.1461
   45MOL    C9010738   4.554   2.769   0.633 -0.0998  0.1891  0.2934
   45MOL    O9110739   4.541   2.655   0.849  0.0735  0.4535  0.0937
   45MOL    H9210740   4.709   2.412   0.697 -0.7053  1.2039 -0.3564
   45MOL    H9310741   4.630   2.286   0.605 -1.3646 -1.1746  0.3238
   45MOL    H9410742   4.491   2.419   0.836  1.3243  1.8132 -0.0096
   45MOL    H9510743   4.589   2.746   0.532  1.0626 -0.8739  0.9249
   45MOL    H9610744   4.622   2.842   0.676 -0.7196 -0.9252  3.2748
   45MOL    H9710745   4.457   2.818   0.626 -1.2368 -1.9625  0.6934
   45MOL    C9810746   4.379   2.326   0.681 -0.2182 -0.2776 -0.4783
   45MOL    C9910747   4.246   2.380   0.738  0.5048  0.3999 -0.3896
   45MOL   O10010748   4.144   2.325   0.656 -0.2368 -0.1953 -0.4856
   45MOL   C10110749   4.033   2.393   0.632 -0.1888  0.0362  0.7453
   45MOL   C10210750   3.930   2.310   0.559 -0.2290  0.1178  0.0564
   45MOL   O10310751   4.025   2.515   0.653  1.0078 -0.1127  0.6467
   45MOL   H10410752   4.371   2.326   0.572 -2.0225  0.0458 -0.3702
   45MOL   H10510753   4.379   2.220   0.708  3.1384 -0.1995 -0.0612
   45MOL   H10610754   4.247   2.489   0.743 -1.7053  0.4074  0.4947
   45MOL   H10710755   3.957   2.205   0.559 -0.4292  0.0136  3.0695
   45MOL   H10810756   3.912   2.346   0.458 -2.5701  0.6309  0.6413
   45MOL   H10910757   3.834   2.308   0.610 -0.6290 -1.0475 -0.7274
   45MOL   C11010758   4.228   2.336   0.888 -0.4211 -0.4314 -0.0063
   45MOL   C11110759   4.126   2.404   0.984  0.0348  0.6771 -0.7161
   45MOL   O11210760   3.989   2.413   0.949 -0.2037 -0.2764  0.2758
   45MOL   C11310761   3.907   2.512   1.004  0.0038 -0.4929 -0.3305
   45MOL   C11410762   3.759   2.507   0.958 -0.5177 -0.2390  0.0282
   45MOL   O11510763   3.946   2.610   1.070  0.1658  0.0042  0.1357
   45MOL   H11610764   4.190   2.234   0.884 -1.1541 -0.1303 -0.9577
   45MOL   H11710765   4.318   2.333   0.950 -1.0165  0.0882  0.9014
   45MOL   H11810766   4.162   2.507   0.991  1.9902 -0.1290  1.9515
   45MOL   H11910767   3.729   2.403   0.947  0.7873 -0.5936 -0.2843
   45MOL   H12010768   3.735   2.552   0.862 -0.0311  2.4098  1.1091
   45MOL   H12110769   3.697   2.539   1.043  1.2849  0.6689  1.0248
   45MOL   C12210770   4.135   2.335   1.126 -0.0970  0.1868  0.3942
   45MOL   C12310771   4.242   2.380   1.224  0.1510  0.7775 -0.8258
   45MOL   O12410772   4.218   2.519   1.261 -0.2256  0.2674 -0.0925
   45MOL   C12510773   4.284   2.619   1.197 -0.8247  0.6879 -0.0083
   45MOL   C12610774   4.250   2.762   1.237 -0.1001 -0.3110 -1.5916
   45MOL   O12710775   4.363   2.600   1.105 -0.0048  0.0772  0.1726
   45MOL   H12810776   4.038   2.358   1.171 -0.9740  0.5557 -1.6035
   45MOL   H12910777   4.135   2.227   1.117 -2.3583  0.0483  1.7607
   45MOL   H13010778   4.343   2.363   1.189 -0.0185 -1.0890 -0.4517
   45MOL   H13110779   4.162   2.750   1.301  1.3846  0.3851  0.6299
   45MOL   H13210780   4.219   2.823   1.152 -0.1382  0.6437 -0.8996
   45MOL   H13310781   4.335   2.805   1.290 -0.2280  0.1539 -1.7634
   45MOL   C13410782   4.213   2.301   1.358 -0.0126 -0.1971  0.5343
   45MOL   C13510783   4.325   2.307   1.462  0.1258  0.4377  0.0313
   45MOL   O13610784   4.316   2.422   1.549 -0.8984 -0.2530 -0.0957
   45MOL   C13710785   4.414   2.514   1.529 -0.2761 -0.6522  0.6695
   45MOL   C13810786   4.404   2.630   1.631 -0.6486 -0.4081 -0.6546
   45MOL   O13910787   4.507   2.506   1.455 -0.7488  0.6657  0.3422
   45MOL   H14010788   4.113   2.324   1.396 -0.7445  0.7965 -1.9338
   45MOL   H14110789   4.205   2.199   1.321  1.3547 -0.6852  1.5182
   45MOL   H14210790   4.423   2.290   1.418 -0.8555 -2.8412 -1.0382
   45MOL   H14310791   4.392   2.583   1.729 -0.3757  0.6946 -0.0809
   45MOL   H14410792   4.320   2.697   1.612  0.3364  0.9239 -0.3766
   45MOL   H14510793   4.492   2.693   1.622  0.8191 -1.8989  2.3567
   45MOL   C14610794   4.314   2.191   1.571 -0.4601  0.1553 -0.6491
   45MOL   C14710795   4.310   2.049   1.517 -0.2456  0.7454 -0.4313
   45MOL   O14810796   4.424   2.013   1.436 -0.3910 -0.5801  0.6296
   45MOL   C14910797   4.415   1.925   1.331  0.0315  0.0691 -0.6383
   45MOL   C15010798   4.545   1.901   1.260 -1.0854  1.3520  0.1016
   45MOL   O15110799   4.312   1.866   1.306 -0.2109  0.7412  0.4564
   45MOL   H15210800   4.401   2.198   1.635 -1.0799 -0.5028  0.2768
   45MOL   H15310801   4.221   2.201   1.627  0.0801 -1.2428  0.4959
   45MOL   H15410802   4.217   2.052   1.459 -2.2180  0.2946  2.5831
   45MOL   H15510803   4.553   1.793   1.246 -0.3717  1.5709 -1.2322
   45MOL   H15610804   4.628   1.938   1.320 -1.2488  2.9361 -0.6349
   45MOL   H15710805   4.549   1.934   1.156  1.6529  0.0178 -0.2580
   45MOL   C15810806   4.285   1.946   1.629  0.2610  0.4149 -0.3513
   45MOL   C15910807   4.179   1.971   1.733  0.3680 -0.3182  0.3832
   45MOL   O16010808   4.045   1.968   1.679 -0.6670 -0.5840  0.9996
   45MOL   C16110809   3.953   2.065   1.701  0.4256 -0.3368 -0.6912
   45MOL   C16210810   3.814   2.042   1.642  0.1787  0.3259 -0.3168
   45MOL   O16310811   3.968   2.170   1.769  0.2415 -0.2986  0.0791
   45MOL   H16410812   4.266   1.850   1.580  1.1366  0.3467 -0.5694
   45MOL   H16510813   4.378   1.930   1.683  0.1378 -0.5988 -0.4249
   45MOL   H16610814   4.199   2.066   1.783 -0.8860 -0.6576  1.5861
   45MOL   H16710815   3.743   2.024   1.723 -0.5946 -0.3499 -1.1322
   45MOL   H16810816   3.813   1.954   1.577  0.7874 -0.2295  0.4243
   45MOL   H16910817   3.783   2.129   1.584  0.4498  1.4068  1.1423
   45MOL   C17010818   4.191   1.855   1.838  0.2377 -0.4264  0.4750
   45MOL   C17110819   4.249   1.903   1.973 -0.2274 -0.3794  0.5423
   45MOL   O17210820   4.378   1.967   1.948  0.0452 -0.4847  0.1461
   45MOL   C17310821   4.482   1.932   2.029  0.1220 -0.2142 -0.0090
   45MOL   C17410822   4.613   1.995   1.982 -0.3809  0.0259  0.1070
   45MOL   O17510823   4.484   1.862   2.130 -0.1356  0.1881  0.0199
   45MOL   H17610824   4.089   1.819   1.855 -0.8020  2.5526  0.8912
   45MOL   H17710825   4.245   1.767   1.804 -2.4989 -1.2111 -2.1251
   45MOL   H17810826   4.257   1.818   2.040  0.5161 -2.4494 -2.0841
   45MOL   H17910827   4.632   2.095   2.020  4.6674 -0.5483 -0.5795
   45MOL   H18010828   4.626   2.005   1.874  0.2806  1.1225  0.2820
   45MOL   H18110829   4.694   1.940   2.030  0.0075 -1.4452 -2.1219
   45MOL   C18210830   4.157   2.014   2.043  0.1031 -0.5068  0.7979
   45MOL   C18310831   4.015   1.969   2.080 -0.5273  0.0438  0.4288
   45MOL   O18410832   4.038   1.890   2.194 -0.4135 -0.0352  0.2699
   45MOL   C18510833   3.983   1.770   2.207  0.4590 -0.2893  0.4776
   45MOL   C18610834   4.041   1.686   2.315  0.0235  0.2971 -0.0051
   45MOL   O18710835   3.897   1.728   2.134 -0.2407  0.0006  1.0690
   45MOL   H18810836   4.208   2.047   2.133  0.0419  1.0297  0.2871
   45MOL   H18910837   4.160   2.106   1.985 -3.4128 -2.0809 -2.0979
   45MOL   H19010838   3.972   1.916   1.994  0.3672 -0.5211  0.3198
   45MOL   H19110839   4.039   1.577   2.310  0.2780  0.2227  1.3031
   45MOL   H19210840   3.991   1.718   2.406 -1.6948 -0.9631 -0.4773
   45MOL   H19310841   4.142   1.723   2.327  0.3142  0.1610 -1.8287
   45MOL   C19410842   3.919   2.087   2.120  0.4994 -0.3639  0.4026
   45MOL   C19510843   3.765   2.052   2.126  0.1036 -0.2863 -1.2364
   45MOL   O19610844   3.698   2.174   2.168 -0.7407  0.9638 -0.2845
   45MOL   C19710845   3.663   2.189   2.292 -0.2004 -0.2321  0.6868
   45MOL   C19810846   3.634   2.334   2.323 -0.2833  0.5232  0.2147
   45MOL   O19910847   3.651   2.104   2.381 -0.0458 -0.3881 -0.4713
   45MOL   H20010848   3.949   2.126   2.217  0.7039 -1.5161  0.8180
   45MOL   H20110849   3.938   2.162   2.043  2.5748 -0.2660  0.9797
   45MOL   H20210850   3.745   1.970   2.194 -2.0695 -0.5145 -2.1012
   45MOL   H20310851   3.555   2.382   2.266  0.8579  0.4613 -1.4401
   45MOL   H20410852   3.725   2.393   2.320  0.8270 -1.1694 -0.4346
   45MOL   H20510853   3.601   2.337   2.427 -1.9532  0.7064 -0.3018
   45MOL   C20610854   3.713   2.013   1.995 -0.0131  0.5005  0.5980
   45MOL   C20710855   3.558   1.983   1.986  0.3762 -0.2412  0.2044
   45MOL   O20810856   3.517   2.017   1.854  0.1279  0.0711  0.2547
   45MOL   C20910857   3.485   2.144   1.823 -0.1247 -0.9890 -0.4716
   45MOL   C21010858   3.443   2.155   1.679  0.1746  0.3012  0.0152
   45MOL   O21110859   3.473   2.238   1.899 -0.0865 -0.4408 -0.0435
   45MOL   H21210860   3.721   2.106   1.938 -1.4547  0.7062  0.7118
   45MOL   H21310861   3.762   1.930   1.942  0.5366  0.4973  1.1152
   45MOL   H21410862   3.496   2.029   2.062  1.3764  1.8729 -0.2271
   45MOL   H21510863   3.384   2.067   1.653 -0.6511  1.1729 -1.0537
   45MOL   H21610864   3.527   2.150   1.610 -0.5602  0.9933 -0.9410
   45MOL   H21710865   3.394   2.250   1.661 -1.6063 -0.4977  0.5373
   45MOL   C21810866   3.532   1.827   1.988 -0.2058  0.2340  0.7521
   45MOL   C21910867   3.549   1.766   2.124  0.0724  0.7367 -0.1557
   45MOL   O22010868   3.461   1.820   2.215  0.9739 -0.3609 -0.2018
   45MOL   C22110869   3.494   1.838   2.347  0.3447  0.0883  0.3374
   45MOL   C22210870   3.380   1.899   2.426  0.3837 -0.8497  0.0286
   45MOL   O22310871   3.596   1.797   2.395  0.3741  0.4280  0.1008
   45MOL   H22410872   3.429   1.807   1.959 -0.6775  0.8972  1.9726
   45MOL   H22510873   3.594   1.773   1.915  0.4067 -0.5137  1.8050
   45MOL   H22610874   3.653   1.781   2.150  0.5816 -0.8925 -1.1679
   45MOL   H22710875   3.284   1.857   2.395 -0.7512  0.2880  1.8283
   45MOL   H22810876   3.367   2.007   2.429 -0.4165 -0.9781  1.7695
   45MOL   H22910877   3.381   1.878   2.533 -2.6388  0.3663  0.3551
   45MOL   C23010878   3.523   1.611   2.129 -0.0465  0.0678  0.1877
   45MOL   C23110879   3.376   1.570   2.103 -0.3064  0.4543 -0.0857
   45MOL   O23210880   3.337   1.436   2.126  0.3610 -0.0669 -0.2173
   45MOL   C23310881   3.315   1.391   2.253  0.1292  0.0022  0.3923
   45MOL   C23410882   3.263   1.243   2.262 -0.0602 -0.0055  0.2842
   45MOL   O23510883   3.339   1.457   2.352 -0.1128  0.2270 -0.3200
   45MOL   H23610884   3.593   1.551   2.071  1.3483  2.0357 -0.1942
   45MOL   H23710885   3.542   1.581   2.232  1.7400 -0.0418 -0.1529
   45MOL   H23810886   3.353   1.590   1.999 -2.4396  1.2161  0.5121
   45MOL   H23910887   3.346   1.174   2.275 -1.1757 -1.4439 -0.0872
   45MOL   H24010888   3.209   1.218   2.171 -0.9500 -0.3754  0.9000
   45MOL   H24110889   3.200   1.239   2.351 -0.4396  1.4716  0.0963
   45MOL   H24210890   3.304   1.637   2.149  1.2332  1.1987  1.3253
   46MOL     C110891   1.924   5.941   7.577  0.4661 -0.4793 -0.4483
   46MOL     C210892   2.006   6.068   7.564  0.1502 -0.0863  0.0354
   46MOL     O310893   2.136   6.013   7.577  0.1411  0.3986  0.1678
   46MOL     C410894   2.236   6.066   7.646  0.9876 -0.7825  0.1576
   46MOL     C510895   2.363   5.974   7.640  0.4680  0.1006 -0.5679
   46MOL     O610896   2.232   6.155   7.731 -0.0092 -0.2981  0.0835
   46MOL     H710897   1.955   5.895   7.671  2.2929  1.3669 -0.1184
   46MOL     H810898   1.934   5.876   7.490  0.8910 -2.4039  1.0189
   46MOL     H910899   1.977   6.130   7.649  2.7680  0.8752  0.2610
   46MOL    H1010900   2.452   6.026   7.604  0.4073  0.1282 -0.6786
   46MOL    H1110901   2.343   5.900   7.562 -0.1292  1.3469 -1.6167
   46MOL    H1210902   2.398   5.945   7.739 -0.9923  0.4043  0.0461
   46MOL    H1310903   1.817   5.962   7.578 -0.0656 -2.8898 -2.4552
   46MOL    C1410904   2.004   6.145   7.435  0.5794 -0.4131  0.2371
   46MOL    C1510905   1.870   6.186   7.375  0.3323  0.3135  0.1611
   46MOL    O1610906   1.799   6.075   7.323  0.3343 -0.2939 -0.5455
   46MOL    C1710907   1.825   6.022   7.203 -0.0374 -0.1274 -0.7580
   46MOL    C1810908   1.745   5.894   7.179 -0.2488 -0.1436  0.1615
   46MOL    O1910909   1.908   6.063   7.121  0.0103 -0.0414 -0.1772
   46MOL    H2010910   2.063   6.236   7.439 -0.4054  0.1567  2.4530
   46MOL    H2110911   2.057   6.098   7.353 -2.1646 -0.3232 -1.6575
   46MOL    H2210912   1.877   6.250   7.287 -0.3589 -0.6245 -0.5949
   46MOL    H2310913   1.685   5.888   7.270  0.2752  2.5239  0.7229
   46MOL    H2410914   1.813   5.809   7.171  1.6407  1.3576 -0.1072
   46MOL    H2510915   1.686   5.906   7.088 -1.1698 -0.4650  0.7016
   46MOL    C2610916   1.778   6.247   7.481 -0.8619 -0.3005  0.3152
   46MOL    C2710917   1.685   6.355   7.420  0.9136  0.0799  0.1055
   46MOL    O2810918   1.576   6.291   7.348  0.1388 -0.0732 -0.0404
   46MOL    C2910919   1.546   6.336   7.224 -0.0732  0.3196 -0.3759
   46MOL    C3010920   1.435   6.255   7.172 -0.2626 -0.5681  0.7599
   46MOL    O3110921   1.587   6.435   7.162 -0.0850  0.5278  0.0644
   46MOL    H3210922   1.723   6.171   7.537 -1.9680  1.5684  1.8114
   46MOL    H3310923   1.836   6.304   7.553 -0.8256 -0.0980  0.1253
   46MOL    H3410924   1.740   6.423   7.355 -1.1124  1.2741 -0.3984
   46MOL    H3510925   1.465   6.154   7.143 -0.2706 -0.6679  1.1065
   46MOL    H3610926   1.395   6.291   7.077 -1.6580 -0.4600  1.3699
   46MOL    H3710927   1.355   6.229   7.241 -0.1784 -1.5839  0.4902
   46MOL    C3810928   1.615   6.445   7.519  0.0276 -0.2554  0.0300
   46MOL    C3910929   1.708   6.550   7.585  0.2182 -0.3604  0.0826
   46MOL    O4010930   1.728   6.664   7.502 -0.1369 -0.2834  0.0590
   46MOL    C4110931   1.852   6.696   7.471  0.2112 -0.7485 -0.1716
   46MOL    C4210932   1.860   6.815   7.373  0.1121  0.3557 -0.6549
   46MOL    O4310933   1.954   6.643   7.514  0.0252 -0.5040  0.1943
   46MOL    H4410934   1.529   6.496   7.476  0.0684 -1.0214 -0.9733
   46MOL    H4510935   1.574   6.392   7.605  2.8540  1.4980  2.5896
   46MOL    H4610936   1.803   6.505   7.614 -1.0062 -1.2291  2.9681
   46MOL    H4710937   1.907   6.784   7.279  2.9169 -1.8849  1.4115
   46MOL    H4810938   1.917   6.898   7.414 -1.2307  0.6110  0.7400
   46MOL    H4910939   1.761   6.853   7.347  0.5296  2.2576  0.4482
   46MOL    C5010940   1.658   6.607   7.721 -0.5969  0.2364  0.0406
   46MOL    C5110941   1.681   6.504   7.831 -0.9639 -0.3388  0.8974
   46MOL    O5210942   1.826   6.491   7.852  0.6560 -1.6121  0.4966
   46MOL    C5310943   1.881   6.369   7.850 -0.2882 -0.6403  0.5452
   46MOL    C5410944   2.027   6.366   7.887  0.6658 -0.9639 -0.2033
   46MOL    O5510945   1.823   6.270   7.815 -0.1235  0.2172  0.6219
   46MOL    H5610946   1.713   6.700   7.735 -2.0284  1.6570 -3.2372
   46MOL    H5710947   1.551   6.626   7.708 -0.7172  0.0036  0.6704
   46MOL    H5810948   1.638   6.409   7.800  0.4458 -0.3619 -1.0998
   46MOL    H5910949   2.094   6.381   7.802 -2.0078 -0.9821 -2.3700
   46MOL    H6010950   2.041   6.268   7.932  1.0411  0.5752  3.2118
   46MOL    H6110951   2.043   6.445   7.961  2.2312 -1.3054 -0.1696
   46MOL    C6210952   1.616   6.551   7.960  0.1288 -0.2532  0.1486
   46MOL    C6310953   1.597   6.453   0.064  0.1330  0.5850  0.2142
   46MOL    O6410954   1.728   6.418   0.108 -0.0095  0.5942  0.3523
   46MOL    C6510955   1.762   6.292   0.141 -0.0328 -0.1693 -0.5677
   46MOL    C6610956   1.903   6.278   0.189  0.4001  0.3239  0.1760
   46MOL    O6710957   1.689   6.186   0.129  0.2844 -0.1939 -0.7969
   46MOL    H6810958   1.659   6.639   8.007  1.6527 -1.6017  1.3545
   46MOL    H6910959   1.522   6.590   7.920  0.0168 -2.1477 -1.4883
   46MOL    H7010960   1.539   6.363   0.044  1.6796 -0.2596 -0.5944
   46MOL    H7110961   1.904   6.239   0.291 -1.2660 -0.5846 -0.1293
   46MOL    H7210962   1.942   6.379   0.200  0.6544  0.1476  0.9203
   46MOL    H7310963   1.962   6.226   0.114  1.3603  1.5225  0.0886
   46MOL    C7410964   1.524   6.533   0.180  0.7065 -0.0421  0.1490
   46MOL    C7510965   1.379   6.575   0.153  1.0036 -0.1396 -0.0371
   46MOL    O7610966   1.293   6.530   0.245  0.1752 -0.5237 -0.0122
   46MOL    C7710967   1.246   6.401   0.242  0.1861 -0.1205  0.6123
   46MOL    C7810968   1.143   6.354   0.351  0.2234 -0.0007  0.2740
   46MOL    O7910969   1.283   6.320   0.155  0.8453 -0.5558  0.2472
   46MOL    H8010970   1.512   6.461   0.261 -2.1424  1.9481  1.5553
   46MOL    H8110971   1.582   6.611   0.229  1.7729 -1.3160  0.9512
   46MOL    H8210972   1.358   6.524   0.059  3.1150  0.3518 -0.8040
   46MOL    H8310973   1.160   6.407   0.445  2.8841 -1.1820  0.4768
   46MOL    H8410974   1.161   6.247   0.360  3.1695  0.5448  1.4213
   46MOL    H8510975   1.039   6.369   0.321  0.1119 -1.6664 -0.2080
   46MOL    C8610976   1.358   6.725   0.137  0.0439 -0.3545 -0.3086
   46MOL    C8710977   1.221   6.764   0.082  0.5212 -0.3772 -0.6833
   46MOL    O8810978   1.126   6.797   0.187 -0.3339  0.2281  0.3578
   46MOL    C8910979   1.026   6.716   0.223  0.3960  0.5611  0.4891
   46MOL    C9010980   0.950   6.765   0.347 -0.1190  0.0071 -0.2837
   46MOL    O9110981   0.988   6.609   0.172  0.2457 -0.1335  0.0308
   46MOL    H9210982   1.377   6.776   0.231  0.1269 -0.5495 -0.2186
   46MOL    H9310983   1.440   6.746   0.068  1.3203 -1.0538  0.9659
   46MOL    H9410984   1.177   6.685   0.021  0.3529 -1.2425  0.5378
   46MOL    H9510985   0.982   6.697   0.427 -1.6668  0.4281  0.7205
   46MOL    H9610986   0.841   6.765   0.337 -0.1910 -0.5923  0.4569
   46MOL    H9710987   0.981   6.862   0.387  1.3248 -1.0347  1.1812
   46MOL    C9810988   1.232   6.898   0.003  0.6068 -0.1254 -0.3003
   46MOL    C9910989   1.265   6.885   7.876 -0.3834  0.5947  0.2227
   46MOL   O10010990   1.151   6.824   7.824  0.3038  0.6142  0.4008
   46MOL   C10110991   1.170   6.710   7.757  0.3240 -0.6815 -0.7647
   46MOL   C10210992   1.038   6.659   7.688  0.2366 -0.0531 -0.5287
   46MOL   O10310993   1.274   6.640   7.754  0.8840 -0.1278 -0.1483
   46MOL   H10410994   1.139   6.954   0.012 -0.2833 -1.4543 -1.1270
   46MOL   H10510995   1.310   6.955   0.054  0.2339  0.0126  0.1229
   46MOL   H10610996   1.355   6.825   7.863 -0.0247  1.0473  0.5890
   46MOL   H10710997   0.945   6.708   7.718 -0.8392 -0.3543 -3.2953
   46MOL   H10810998   1.020   6.552   7.699 -1.0030  0.0154 -1.8809
   46MOL   H10910999   1.049   6.694   7.586  0.5311  3.2057  0.5592
   46MOL   C11011000   1.285   7.025   7.810  0.3771 -0.5493  0.0493
   46MOL   C11111001   1.403   7.112   7.861  0.1296  0.1538  0.4730
   46MOL   O11211002   1.502   7.109   7.759 -0.0754 -0.2905  0.2362
   46MOL   C11311003   1.586   7.007   7.755 -0.5722  0.6328 -0.6519
   46MOL   C11411004   1.688   7.029   7.647  0.0681 -0.1497 -1.1012
   46MOL   O11511005   1.589   6.908   7.831 -0.2429  0.1324  0.4493
   46MOL   H11611006   1.284   7.020   7.701 -1.2139  0.1865  0.0141
   46MOL   H11711007   1.195   7.086   7.822  1.3082  0.2549  3.3184
   46MOL   H11811008   1.440   7.064   7.952  0.5333 -1.3861 -0.4720
   46MOL   H11911009   1.663   7.106   7.575  0.6734  0.8833 -0.2261
   46MOL   H12011010   1.690   6.932   7.596  2.0068 -1.3011  1.0786
   46MOL   H12111011   1.790   7.044   7.684 -0.8183  2.1118  0.4673
   46MOL   C12211012   1.355   7.262   7.886  1.1050 -0.4945 -0.2910
   46MOL   C12311013   1.298   7.290   0.002 -0.1854  0.1206 -0.2220
   46MOL   O12411014   1.167   7.229   0.028 -0.6000 -0.0430 -0.2085
   46MOL   C12511015   1.056   7.276   7.991  0.4387  0.4481  0.1060
   46MOL   C12611016   0.936   7.195   0.018  0.0375 -0.3860  0.4107
   46MOL   O12711017   1.054   7.364   7.906  0.1057  0.0011  0.6064
   46MOL   H12811018   1.449   7.317   7.884 -0.0742  1.5354 -0.6805
   46MOL   H12911019   1.290   7.318   7.819  2.2227  0.6254 -0.4494
   46MOL   H13011020   1.278   7.397   0.006 -0.9157 -0.0056 -0.4774
   46MOL   H13111021   0.851   7.210   7.972 -0.4715 -1.7246  0.7571
   46MOL   H13211022   0.904   7.230   0.116 -0.1514  0.3253  0.1019
   46MOL   H13311023   0.959   7.089   0.024 -2.1526 -0.8334  1.5574
   46MOL   C13411024   1.397   7.247   0.117 -0.8581 -0.3001 -0.4439
   46MOL   C13511025   1.347   7.301   0.257  0.4473 -0.6251  0.5834
   46MOL   O13611026   1.288   7.197   0.328  0.4706 -0.3181 -0.0408
   46MOL   C13711027   1.156   7.195   0.349 -0.1672 -0.7591 -0.0094
   46MOL   C13811028   1.111   7.090   0.443 -0.6453  0.4409 -0.3938
   46MOL   O13911029   1.072   7.269   0.297 -0.3784 -0.3978 -0.2222
   46MOL   H14011030   1.417   7.140   0.120 -1.4081 -0.3919  0.2817
   46MOL   H14111031   1.497   7.283   0.094 -0.5179 -0.7247  0.3316
   46MOL   H14211032   1.271   7.376   0.237 -0.4807 -1.9809 -1.1727
   46MOL   H14311033   1.138   6.999   0.389 -1.2133 -0.8175  1.3740
   46MOL   H14411034   1.004   7.082   0.465 -0.9049  1.1803 -1.3490
   46MOL   H14511035   1.159   7.102   0.540 -1.7159 -1.4084  0.4011
   46MOL   C14611036   1.450   7.362   0.351  0.0059  0.9003 -0.4699
   46MOL   C14711037   1.505   7.491   0.282 -0.0093  0.0443 -0.1673
   46MOL   O14811038   1.396   7.587   0.294 -0.0024 -0.1695 -0.7940
   46MOL   C14911039   1.355   7.652   0.191  0.2794  0.1108  0.0320
   46MOL   C15011040   1.266   7.765   0.228 -0.4644 -0.2118  0.0424
   46MOL   O15111041   1.392   7.644   0.072  0.0201 -0.2067  0.2429
   46MOL   H15211042   1.426   7.382   0.455 -0.2099  0.1155 -0.3648
   46MOL   H15311043   1.531   7.290   0.348  0.2079  1.0503  1.0911
   46MOL   H15411044   1.530   7.468   0.179  1.3453  2.1006 -0.3420
   46MOL   H15511045   1.185   7.789   0.160 -0.1473  1.1897  0.1436
   46MOL   H15611046   1.320   7.860   0.231  1.8164 -1.4957  2.6118
   46MOL   H15711047   1.205   7.747   0.316  2.1325 -1.7643  1.5995
   46MOL   C15811048   1.627   7.557   0.346  0.2610  0.7125  0.9095
   46MOL   C15911049   1.764   7.487   0.297  0.6709 -0.3713 -0.1249
   46MOL   O16011050   1.785   7.508   0.158 -0.2631 -0.0691  0.0092
   46MOL   C16111051   1.756   7.411   0.059 -0.5243 -0.0313 -0.3708
   46MOL   C16211052   1.732   7.482   7.952 -0.4742  0.4703 -0.2717
   46MOL   O16311053   1.735   7.290   0.071  0.0783 -0.6727 -0.1849
   46MOL   H16411054   1.629   7.663   0.318  1.5191  0.8251  1.4060
   46MOL   H16511055   1.629   7.563   0.455 -1.9763  0.8121  0.9656
   46MOL   H16611056   1.746   7.384   0.329 -0.6924  0.1174  0.7398
   46MOL   H16711057   1.738   7.591   7.964 -0.1337  0.5427 -1.0905
   46MOL   H16811058   1.636   7.456   7.908 -0.6876 -0.2581  0.5985
   46MOL   H16911059   1.810   7.476   7.877  0.1114  0.1549  0.3585
   46MOL   C17011060   1.891   7.538   0.369 -0.8700  0.1982 -0.1261
   46MOL   C17111061   2.028   7.467   0.345 -0.3004 -0.1162 -0.2985
   46MOL   O17211062   2.011   7.325   0.329 -0.0533 -0.6957  0.8457
   46MOL   C17311063   2.004   7.241   0.433 -0.4707  0.7547  0.0716
   46MOL   C17411064   1.980   7.093   0.395  0.0372 -0.5312 -0.3322
   46MOL   O17511065   2.010   7.271   0.551  0.7825 -0.0295 -0.5459
   46MOL   H17611066   1.899   7.646   0.355 -0.8317 -0.1741 -3.3932
   46MOL   H17711067   1.865   7.542   0.475 -1.0151  2.3977 -0.2155
   46MOL   H17811068   2.086   7.464   0.438 -2.7019  0.4368  1.2474
   46MOL   H17911069   2.076   7.041   0.400  0.8931  0.8536 -1.8317
   46MOL   H18011070   1.938   7.082   0.295  0.2045 -2.2108 -0.2322
   46MOL   H18111071   1.920   7.049   0.474 -0.8852  2.4028  0.6655
   46MOL   C18211072   2.116   7.528   0.240  0.2340 -0.0391  0.2014
   46MOL   C18311073   2.242   7.602   0.295 -0.6487  0.5169 -0.2022
   46MOL   O18411074   2.334   7.500   0.338  0.3859 -0.0341 -1.0754
   46MOL   C18511075   2.433   7.531   0.427  0.0531 -0.6072  0.1389
   46MOL   C18611076   2.515   7.411   0.469 -0.6642  0.0274  0.5419
   46MOL   O18711077   2.449   7.638   0.486  0.1251 -0.3786 -0.0184
   46MOL   H18811078   2.155   7.461   0.162  2.2091  1.5354 -0.2261
   46MOL   H18911079   2.061   7.606   0.188  2.3035  1.5137  0.2946
   46MOL   H19011080   2.218   7.652   0.389  0.6712 -0.3695  0.6329
   46MOL   H19111081   2.616   7.440   0.443  0.1229 -2.0875  1.1223
   46MOL   H19211082   2.486   7.323   0.411  0.0996  0.1475 -0.0194
   46MOL   H19311083   2.499   7.387   0.574  0.6038  0.5466  0.8588
   46MOL   C19411084   2.296   7.708   0.190 -0.2948 -0.1578  0.3347
   46MOL   C19511085   2.224   7.843   0.199  0.5259  0.4896 -0.4270
   46MOL   O19611086   2.252   7.896   0.330  0.8416 -0.4564  0.1747
   46MOL   C19711087   2.158   7.892   0.434 -0.4744 -0.1960  0.2790
   46MOL   C19811088   2.215   7.968   0.555  0.1172 -0.3470  0.4451
   46MOL   O19911089   2.046   7.839   0.425  0.4416  0.4050  0.0641
   46MOL   H20011090   2.396   7.741   0.218 -0.8812  0.6309  1.5682
   46MOL   H20111091   2.295   7.679   0.085 -0.9254  0.3795  0.1885
   46MOL   H20211092   2.117   7.826   0.184  0.1450  2.3621  0.0176
   46MOL   H20311093   2.169   0.041   0.584 -0.2026  0.2899 -2.0488
   46MOL   H20411094   2.315   8.003   0.529 -0.0486 -0.0369  0.2300
   46MOL   H20511095   2.228   7.897   0.637  1.4067 -1.7198 -0.8929
   46MOL   C20611096   2.274   7.953   0.096 -0.5072  0.5799  0.4243
   46MOL   C20711097   2.173   0.045   0.079 -0.6771  0.4985  0.0215
   46MOL   O20811098   2.204   0.156   0.161  0.1512 -0.0793  0.4634
   46MOL   C20911099   2.130   0.180   0.268  0.1301 -0.5720  0.2033
   46MOL   C21011100   2.191   0.293   0.344  0.0357  0.0202 -0.0291
   46MOL   O21111101   2.035   0.118   0.317 -0.2952  0.4100 -0.1755
   46MOL   H21211102   2.378   7.976   0.118 -1.3611  3.9102  1.2544
   46MOL   H21311103   2.280   7.912   8.017 -1.8845  1.8430 -0.1890
   46MOL   H21411104   2.075   0.001   0.097 -0.8211  1.5387  1.9414
   46MOL   H21511105   2.257   0.252   0.420 -0.7656  0.6435  1.0185
   46MOL   H21611106   2.117   0.361   0.386  0.1207  1.0143 -1.4355
   46MOL   H21711107   2.252   0.349   0.273 -0.0986  0.1207 -0.0673
   46MOL   C21811108   2.163   0.093   7.958  0.6098 -0.1535 -0.3442
   46MOL   C21911109   2.295   0.135   7.892 -0.4157 -0.6379  0.4672
   46MOL   O22011110   2.276   0.150   7.747 -0.1693 -0.3364 -0.1842
   46MOL   C22111111   2.280   0.040   7.668  0.4335  0.1248  0.7289
   46MOL   C22211112   2.281   0.077   7.516 -0.1417  0.6208 -0.4581
   46MOL   O22311113   2.277   7.940   7.696 -0.4925 -0.0227  0.0107
   46MOL   H22411114   2.130   0.009   7.895  3.1362 -0.2264 -1.6116
   46MOL   H22511115   2.084   0.167   7.949 -0.8732 -1.5940  0.4469
   46MOL   H22611116   2.362   0.051   7.909  0.6597  0.3188  1.0042
   46MOL   H22711117   2.346   0.011   7.460  0.2486  0.2114  0.4579
   46MOL   H22811118   2.318   0.179   7.501 -0.2669  1.1531  2.4792
   46MOL   H22911119   2.181   0.063   7.475 -0.0265 -3.6020  0.5455
   46MOL   C23011120   2.371   0.261   7.936  0.2507  0.7347 -0.1229
   46MOL   C23111121   2.513   0.273   7.889  0.3209  0.3856  0.2056
   46MOL   O23211122   2.584   0.373   7.952 -0.1178 -0.1650 -0.1140
   46MOL   C23311123   2.621   0.484   7.886 -0.3561  0.5393  0.4596
   46MOL   C23411124   2.681   0.591   7.976  0.0442 -1.2224 -0.2537
   46MOL   O23511125   2.584   0.509   7.775  0.3799  0.0688 -0.2482
   46MOL   H23611126   2.317   0.346   7.894  0.7574 -0.5637 -3.5245
   46MOL   H23711127   2.383   0.273   0.022  0.4846  0.4978 -0.1210
   46MOL   H23811128   2.518   0.282   7.781 -1.9118  1.2035  0.1522
   46MOL   H23911129   2.718   0.547   0.047  0.1676  0.1668  0.3806
   46MOL   H24011130   2.599   0.656   8.007  1.6604  1.2722 -1.0773
   46MOL   H24111131   2.746   0.650   7.911 -0.6949 -0.4872 -0.3430
   46MOL   H24211132   2.556   0.179   7.924  0.5374  0.4701  0.1665
   47MOL     C111133   5.683   5.190   4.250  0.5321  0.9463  0.2130
   47MOL     C211134   5.690   5.074   4.139 -0.6470 -1.0352  0.4699
   47MOL     O311135   5.812   5.074   4.066 -0.5561  0.1389 -0.4074
   47MOL     C411136   5.819   5.140   3.956 -1.5303  1.0810 -0.7835
   47MOL     C511137   5.957   5.129   3.891  0.4390  0.2370  0.5576
   47MOL     O611138   5.728   5.209   3.907 -0.6849  0.1333  0.3049
   47MOL     H711139   5.718   5.274   4.190 -1.5970 -0.2450 -2.8103
   47MOL     H811140   5.736   5.169   4.343 -1.5477  1.2225  1.4882
   47MOL     H911141   5.611   5.089   4.066 -0.0419  1.5847  0.3125
   47MOL    H1011142   5.936   5.110   3.786 -0.8485  0.3554  0.7878
   47MOL    H1111143   5.998   5.037   3.932 -0.9939  0.0736  1.6488
   47MOL    H1211144   6.014   5.220   3.911 -1.1902  1.4435 -0.1952
   47MOL    H1311145   5.577   5.206   4.268  0.5656  0.5282  0.7980
   47MOL    C1411146   5.685   4.933   4.196 -0.0587  1.1706  0.2260
   47MOL    C1511147   5.556   4.904   4.275 -0.3452 -0.5418  0.2297
   47MOL    O1611148   5.442   4.911   4.192  0.3802  0.0533  0.0456
   47MOL    C1711149   5.310   4.948   4.233 -0.2778  0.2956  0.4125
   47MOL    C1811150   5.219   4.962   4.112 -0.0680 -0.2796 -0.1361
   47MOL    O1911151   5.269   4.964   4.342  0.4944 -0.2665 -0.0753
   47MOL    H2011152   5.694   4.872   4.106 -1.2434  0.4857  0.5734
   47MOL    H2111153   5.774   4.913   4.256 -0.4224 -2.2098 -0.2609
   47MOL    H2211154   5.551   4.968   4.363  0.3100  0.1568 -0.2340
   47MOL    H2311155   5.240   5.059   4.066 -0.3431 -1.1486 -2.1365
   47MOL    H2411156   5.115   4.974   4.143  0.0310 -0.6316  0.3247
   47MOL    H2511157   5.235   4.880   4.042  0.0599 -1.5778  1.3801
   47MOL    C2611158   5.551   4.765   4.325 -0.0224 -0.3215  0.5940
   47MOL    C2711159   5.664   4.721   4.414  0.0136 -0.2382 -0.1392
   47MOL    O2811160   5.658   4.797   4.533 -0.6696 -0.3525  0.1713
   47MOL    C2911161   5.755   4.876   4.572  0.1875 -0.6391 -0.2283
   47MOL    C3011162   5.728   4.950   4.707  0.4568  0.5187 -0.0450
   47MOL    O3111163   5.866   4.896   4.515 -0.2210  0.5133  0.0808
   47MOL    H3211164   5.458   4.739   4.376 -0.7166 -2.4279 -1.6415
   47MOL    H3311165   5.554   4.701   4.237  1.2975 -0.6395  0.8590
   47MOL    H3411166   5.761   4.738   4.366  0.2220 -2.7678 -0.6724
   47MOL    H3511167   5.824   4.947   4.759 -0.3431 -2.2435  1.3324
   47MOL    H3611168   5.649   4.900   4.762  0.5654  0.4519  0.0494
   47MOL    H3711169   5.698   5.054   4.694 -3.4166 -0.1391  2.6253
   47MOL    C3811170   5.645   4.576   4.458 -0.5524 -0.1074 -0.2772
   47MOL    C3911171   5.773   4.506   4.521  0.2712  0.1204  0.0400
   47MOL    O4011172   5.716   4.416   4.622  0.3151 -0.1041 -0.1756
   47MOL    C4111173   5.705   4.459   4.753 -0.2164  0.1343 -0.0571
   47MOL    C4211174   5.650   4.357   4.853  0.4009 -0.0968 -0.1875
   47MOL    O4311175   5.739   4.570   4.790  0.2395 -0.5851 -0.2629
   47MOL    H4411176   5.547   4.561   4.504  0.3976  2.9730  2.9418
   47MOL    H4511177   5.633   4.520   4.365 -0.6708 -2.7863  1.2932
   47MOL    H4611178   5.829   4.584   4.573 -2.3528  0.8767  1.8131
   47MOL    H4711179   5.668   4.380   4.958 -0.1696 -0.4965  0.0024
   47MOL    H4811180   5.684   4.258   4.824  1.2191  0.2646 -0.4719
   47MOL    H4911181   5.546   4.381   4.834  0.6698  0.7050 -0.6726
   47MOL    C5011182   5.850   4.410   4.428 -1.0425  0.2072 -0.4725
   47MOL    C5111183   5.907   4.484   4.304  0.3609  0.0123  0.2673
   47MOL    O5211184   5.983   4.602   4.341 -0.2369  0.1007  0.1333
   47MOL    C5311185   5.986   4.699   4.249 -0.2690 -0.0925 -0.9852
   47MOL    C5411186   6.093   4.810   4.283 -0.3867 -0.4790  0.3197
   47MOL    O5511187   5.912   4.707   4.150 -0.2663 -0.2949 -0.0696
   47MOL    H5611188   5.936   4.362   4.475 -0.6472  0.9584 -0.4250
   47MOL    H5711189   5.787   4.337   4.378 -1.1981  1.3974 -2.0448
   47MOL    H5811190   5.825   4.514   4.239  1.2668  0.3438 -0.7277
   47MOL    H5911191   6.168   4.777   4.354  1.3750  0.2732 -1.1312
   47MOL    H6011192   6.038   4.892   4.330 -1.2552  0.1349 -1.6960
   47MOL    H6111193   6.146   4.831   4.189 -0.6828 -0.1392  0.2269
   47MOL    C6211194   5.986   4.390   4.209  0.1448  0.2398  0.2019
   47MOL    C6311195   5.905   4.282   4.118  0.4522 -1.2397 -0.6467
   47MOL    O6411196   5.853   4.344   4.008 -0.1796 -0.0121 -0.6268
   47MOL    C6511197   5.719   4.376   4.002 -0.0186  0.8071 -0.0141
   47MOL    C6611198   5.676   4.394   3.857  0.0666 -0.4698  0.1767
   47MOL    O6711199   5.636   4.368   4.093 -0.0630 -0.0678 -0.6127
   47MOL    H6811200   6.033   4.444   4.127  0.0915 -0.1333 -0.0769
   47MOL    H6911201   6.067   4.344   4.265  1.7125 -0.1667 -2.3080
   47MOL    H7011202   5.829   4.236   4.182 -1.2441  3.9433  1.4049
   47MOL    H7111203   5.760   4.356   3.799  0.3301  0.9494 -0.3929
   47MOL    H7211204   5.665   4.500   3.834  0.8416  0.0818  2.2417
   47MOL    H7311205   5.591   4.333   3.826  0.1482 -0.2323 -0.5407
   47MOL    C7411206   6.000   4.175   4.078 -0.4648 -0.5275 -0.5794
   47MOL    C7511207   6.109   4.214   3.971  0.0099  0.2137  0.0962
   47MOL    O7611208   6.052   4.257   3.852  0.5627 -0.2581 -0.5218
   47MOL    C7711209   6.006   4.182   3.753  0.8832 -0.1834  0.0747
   47MOL    C7811210   5.972   4.258   3.620  0.2053 -0.4275 -0.2928
   47MOL    O7911211   6.000   4.059   3.760  0.1511  0.0103  0.5529
   47MOL    H8011212   6.050   4.147   4.171  0.7292 -0.5697 -1.2168
   47MOL    H8111213   5.940   4.091   4.041  0.1844 -2.8418  3.3182
   47MOL    H8211214   6.168   4.123   3.971  2.2207  1.5675  1.9197
   47MOL    H8311215   5.909   4.342   3.650  1.2126 -0.2656  1.4509
   47MOL    H8411216   5.919   4.192   3.550  0.2501  1.3557 -2.0679
   47MOL    H8511217   6.059   4.304   3.573  1.8204 -0.8644  2.2286
   47MOL    C8611218   6.231   4.311   4.002  0.3701  0.1449 -0.2788
   47MOL    C8711219   6.361   4.299   3.917  0.1796 -0.2427  0.0467
   47MOL    O8811220   6.431   4.178   3.939  0.1233  0.8237 -0.3366
   47MOL    C8911221   6.504   4.147   4.050 -0.0347 -0.4890  0.2221
   47MOL    C9011222   6.585   4.020   4.032  0.2468 -0.4823 -0.1828
   47MOL    O9111223   6.512   4.227   4.152 -0.6896 -0.3070  0.1245
   47MOL    H9211224   6.202   4.414   3.984 -1.5306 -0.2615  0.3745
   47MOL    H9311225   6.263   4.301   4.106  1.6465  2.1638 -0.4337
   47MOL    H9411226   6.424   4.382   3.946 -0.7604  0.4711  0.0732
   47MOL    H9511227   6.687   4.044   4.005  0.4346  0.0364  0.9624
   47MOL    H9611228   6.553   3.954   3.951 -1.4629 -0.4697  0.4512
   47MOL    H9711229   6.590   3.956   4.121  0.2616 -2.3766 -1.4998
   47MOL    C9811230   6.329   4.320   3.765  0.0622  0.3639 -0.3949
   47MOL    C9911231   6.450   4.341   3.676  0.0586  0.6801  0.5743
   47MOL   O10011232   6.416   4.291   3.539 -0.0600  0.3039 -0.2220
   47MOL   C10111233   6.481   4.193   3.487 -0.3116 -0.5953 -0.4519
   47MOL   C10211234   6.446   4.150   3.349  0.1655  0.2810  0.0707
   47MOL   O10311235   6.566   4.129   3.549  0.0629 -0.0669  0.1175
   47MOL   H10411236   6.290   4.224   3.732  1.1082 -0.7894  1.6070
   47MOL   H10511237   6.256   4.396   3.736  0.5674  0.3453 -1.7647
   47MOL   H10611238   6.521   4.270   3.718 -2.7817 -3.6213 -1.4975
   47MOL   H10711239   6.513   4.155   3.263  0.9542  0.0958  0.6684
   47MOL   H10811240   6.347   4.192   3.330  0.2762  0.9853  1.0375
   47MOL   H10911241   6.426   4.043   3.348  2.1516 -0.0944 -0.2676
   47MOL   C11011242   6.512   4.487   3.664  0.4136  0.1575  0.1945
   47MOL   C11111243   6.413   4.602   3.617  0.3414  0.2033 -0.1772
   47MOL   O11211244   6.353   4.643   3.734  0.3867  0.8282 -0.3252
   47MOL   C11311245   6.222   4.655   3.747  0.6385 -0.2557  0.1442
   47MOL   C11411246   6.182   4.682   3.888 -0.0933 -0.2789  0.7325
   47MOL   O11511247   6.132   4.644   3.660  0.2198  0.8817 -0.1264
   47MOL   H11611248   6.560   4.506   3.760  0.6242  0.8433 -0.0445
   47MOL   H11711249   6.596   4.487   3.595 -1.1493 -2.3212 -1.7717
   47MOL   H11811250   6.346   4.553   3.547 -0.7435 -0.0679  1.0248
   47MOL   H11911251   6.092   4.638   3.930  0.7692 -1.2399  1.6008
   47MOL   H12011252   6.184   4.791   3.901  1.3179 -0.2494  0.3180
   47MOL   H12111253   6.251   4.627   3.952  0.5246 -1.5250 -0.9777
   47MOL   C12211254   6.495   4.714   3.549 -0.1399  0.2695 -0.5268
   47MOL   C12311255   6.403   4.819   3.482  0.5248  0.2022 -0.3453
   47MOL   O12411256   6.323   4.898   3.573 -0.2180  0.3721 -0.1681
   47MOL   C12511257   6.204   4.949   3.539 -0.3636  0.1211  0.0660
   47MOL   C12611258   6.155   5.034   3.648  0.8254  0.7174 -0.8374
   47MOL   O12711259   6.159   4.962   3.429 -0.6766 -0.1188 -0.1666
   47MOL   H12811260   6.551   4.769   3.625  0.0072  1.0613 -1.1993
   47MOL   H12911261   6.563   4.688   3.468 -0.3332  2.1877 -1.3326
   47MOL   H13011262   6.342   4.767   3.409 -1.4692  2.6294 -0.5036
   47MOL   H13111263   6.123   5.134   3.619  1.4030  1.2234  0.2630
   47MOL   H13211264   6.231   5.050   3.724  0.1224  1.1289 -0.2261
   47MOL   H13311265   6.065   4.992   3.692 -0.5688  1.6991 -2.6758
   47MOL   C13411266   6.494   4.907   3.393 -0.3681  0.4193 -0.2155
   47MOL   C13511267   6.616   4.990   3.439  0.1146  0.1356 -0.0862
   47MOL   O13611268   6.679   5.060   3.333  0.1669 -0.1943 -0.4894
   47MOL   C13711269   6.810   5.058   3.329  0.2095 -0.5244  0.2558
   47MOL   C13811270   6.860   5.092   3.187 -0.8644 -0.5537 -0.0386
   47MOL   O13911271   6.889   5.039   3.428  0.0380 -0.1025 -0.3581
   47MOL   H14011272   6.529   4.834   3.319 -3.5599 -1.2039 -0.2331
   47MOL   H14111273   6.429   4.965   3.327 -0.0684 -0.5404 -1.3732
   47MOL   H14211274   6.683   4.914   3.478  0.9903  0.7054 -0.4634
   47MOL   H14311275   6.921   5.006   3.159  0.2767  0.5608 -1.0362
   47MOL   H14411276   6.923   5.181   3.192 -1.7408  0.1037 -0.5498
   47MOL   H14511277   6.784   5.108   3.111 -2.8605  0.1339  2.0208
   47MOL   C14611278   6.587   5.087   3.551  0.3485  0.3943  0.0501
   47MOL   C14711279   6.518   5.219   3.521  1.1074 -0.5984 -0.1616
   47MOL   O14811280   6.388   5.198   3.474  0.4653  0.3321  0.7403
   47MOL   C14911281   6.359   5.244   3.350  0.0356  1.0305  0.3059
   47MOL   C15011282   6.212   5.264   3.316 -0.3239  0.4035 -1.0288
   47MOL   O15111283   6.438   5.255   3.259 -0.3086 -0.0199  0.2865
   47MOL   H15211284   6.544   5.033   3.635 -1.4931  0.9825 -0.4776
   47MOL   H15311285   6.689   5.107   3.583  0.8500 -1.4929 -0.3075
   47MOL   H15411286   6.580   5.280   3.455 -1.5686  0.2694 -1.9462
   47MOL   H15511287   6.192   5.323   3.227 -2.3241 -1.4818 -1.8769
   47MOL   H15611288   6.161   5.303   3.405 -0.0919 -0.0963 -0.6755
   47MOL   H15711289   6.165   5.168   3.298  0.7669 -0.1061 -1.1709
   47MOL   C15811290   6.517   5.300   3.652  0.1213  0.3263  0.4675
   47MOL   C15911291   6.456   5.439   3.635 -0.1705 -0.1320  0.1614
   47MOL   O16011292   6.448   5.498   3.766  0.4502  0.1192 -0.1088
   47MOL   C16111293   6.350   5.461   3.849 -0.3463  0.1821 -0.7905
   47MOL   C16211294   6.367   5.530   3.984 -0.3506  0.4584 -0.5606
   47MOL   O16311295   6.252   5.392   3.821 -0.3933 -0.6085  0.2452
   47MOL   H16411296   6.463   5.238   3.724 -2.4226 -1.8288 -3.1212
   47MOL   H16511297   6.619   5.312   3.689  0.2150 -1.3137  0.8014
   47MOL   H16611298   6.356   5.430   3.591 -0.1705  0.4899  0.0180
   47MOL   H16711299   6.340   5.466   4.068  1.5405  0.0541 -0.2387
   47MOL   H16811300   6.294   5.611   3.985  0.0893  0.8886  1.8461
   47MOL   H16911301   6.469   5.569   3.989 -0.1654  0.0226 -0.9882
   47MOL   C17011302   6.543   5.530   3.546 -0.2837 -0.6861 -0.0375
   47MOL   C17111303   6.486   5.668   3.512  0.3550 -0.6579 -0.0774
   47MOL   O17211304   6.594   5.737   3.466 -0.7961  0.6369 -0.3882
   47MOL   C17311305   6.664   5.822   3.548  0.7062  0.4458 -0.4891
   47MOL   C17411306   6.773   5.881   3.461 -0.0306 -0.2697 -0.7312
   47MOL   O17511307   6.652   5.837   3.668 -0.0658 -0.1523 -0.6904
   47MOL   H17611308   6.636   5.549   3.601  1.2369 -0.4038 -2.6318
   47MOL   H17711309   6.574   5.486   3.452  0.9775 -1.2070  0.6039
   47MOL   H17811310   6.435   5.722   3.592 -3.5833  0.7693 -3.3875
   47MOL   H17911311   6.734   5.878   3.360  0.4259  4.1831 -1.1466
   47MOL   H18011312   6.868   5.830   3.480 -1.5371 -1.8393  3.0368
   47MOL   H18111313   6.790   5.987   3.480  1.1501 -0.6920  0.6763
   47MOL   C18211314   6.382   5.658   3.400  0.4300  0.3212 -0.1805
   47MOL   C18311315   6.333   5.799   3.356 -0.4200 -0.3839  0.3225
   47MOL   O18411316   6.417   5.829   3.244  0.1199  0.3736  0.3293
   47MOL   C18511317   6.446   5.957   3.210 -0.0654 -0.1973 -0.1708
   47MOL   C18611318   6.526   5.950   3.083 -0.1036  0.3965 -0.0403
   47MOL   O18711319   6.441   6.057   3.284  0.3947 -0.1976 -0.1533
   47MOL   H18811320   6.427   5.600   3.319 -1.0065  1.0918 -1.5327
   47MOL   H18911321   6.296   5.603   3.440  0.9904 -1.0283 -0.7731
   47MOL   H19011322   6.348   5.871   3.437  0.3766  0.1218 -0.2665
   47MOL   H19111323   6.459   5.933   2.999 -0.9360 -1.6418  1.0012
   47MOL   H19211324   6.602   5.873   3.097 -0.6465 -0.0180  0.6528
   47MOL   H19311325   6.570   6.047   3.060 -2.2540  1.5960  0.7030
   47MOL   C19411326   6.187   5.822   3.317  0.0284  0.5429  0.5566
   47MOL   C19511327   6.092   5.766   3.421  0.0957  0.6968 -0.6674
   47MOL   O19611328   6.093   5.848   3.539  0.3725 -0.2992 -0.1866
   47MOL   C19711329   6.147   5.797   3.650  0.1952  0.4383  0.1008
   47MOL   C19811330   6.128   5.893   3.772 -0.1409  0.7636 -0.4569
   47MOL   O19911331   6.192   5.679   3.666 -0.4105  0.1441 -0.2863
   47MOL   H20011332   6.155   5.926   3.308  1.5434  1.0818  1.2903
   47MOL   H20111333   6.174   5.790   3.213 -2.0919 -0.6618  1.1622
   47MOL   H20211334   6.117   5.664   3.449 -0.3147  0.6203 -0.5797
   47MOL   H20311335   6.023   5.893   3.803  0.2301  0.4273  0.8249
   47MOL   H20411336   6.138   5.995   3.735 -0.4829  1.5887  1.6711
   47MOL   H20511337   6.187   5.886   3.863  1.3856 -1.3232 -1.5712
   47MOL   C20611338   5.956   5.751   3.353  0.9452  0.0938  0.3157
   47MOL   C20711339   5.860   5.650   3.435  0.1972  0.0583 -0.4285
   47MOL   O20811340   5.731   5.683   3.389  0.6358  1.0962  0.5556
   47MOL   C20911341   5.642   5.736   3.475  0.3586  0.5494  0.2249
   47MOL   C21011342   5.514   5.789   3.410  0.4902  0.3403  0.0949
   47MOL   O21111343   5.654   5.738   3.592  0.0916 -0.4029  0.4676
   47MOL   H21211344   5.899   5.843   3.341 -1.0881 -1.2155 -0.2556
   47MOL   H21311345   5.958   5.723   3.248 -0.4116  0.3544  0.2130
   47MOL   H21411346   5.861   5.664   3.543 -4.1651 -0.5232 -0.2379
   47MOL   H21511347   5.507   5.895   3.431  2.9980  0.3650  0.8588
   47MOL   H21611348   5.423   5.742   3.448  1.0336  0.2289  1.2508
   47MOL   H21711349   5.525   5.773   3.302 -1.6128 -1.6869  0.1215
   47MOL   C21811350   5.883   5.503   3.419 -0.0374  0.4511  0.2603
   47MOL   C21911351   5.797   5.413   3.509 -0.5349  0.4432 -0.0500
   47MOL   O22011352   5.845   5.280   3.489 -0.2561 -0.5237  0.6116
   47MOL   C22111353   5.773   5.185   3.442  0.0676  0.5298 -0.5665
   47MOL   C22211354   5.833   5.053   3.454  0.2531 -0.4419  0.1489
   47MOL   O22311355   5.677   5.201   3.365  0.1597 -0.2350 -0.3459
   47MOL   H22411356   5.867   5.478   3.314 -1.0495 -0.7269  0.6941
   47MOL   H22511357   5.990   5.486   3.435  0.0723 -0.2966 -1.1416
   47MOL   H22611358   5.697   5.413   3.466 -1.3814  0.8507  1.8726
   47MOL   H22711359   5.799   4.992   3.371  0.9038  2.0730 -2.0151
   47MOL   H22811360   5.809   5.007   3.550 -2.1830  2.4573  1.0324
   47MOL   H22911361   5.941   5.060   3.448  0.3076 -1.4807 -0.2601
   47MOL   C23011362   5.793   5.439   3.660 -0.0240 -0.1584 -0.3038
   47MOL   C23111363   5.928   5.464   3.731 -0.2121 -0.0121 -0.4149
   47MOL   O23211364   5.897   5.451   3.864 -0.2772 -1.0297 -0.3056
   47MOL   C23311365   5.952   5.522   3.965 -0.2025  0.7458  0.8145
   47MOL   C23411366   5.913   5.462   4.100  0.0090  0.2750  0.1839
   47MOL   O23511367   6.021   5.622   3.948 -0.8515  0.0447  0.3858
   47MOL   H23611368   5.734   5.527   3.683  0.4577  0.2848 -0.7294
   47MOL   H23711369   5.753   5.349   3.706  1.2411 -0.3389  0.4771
   47MOL   H23811370   5.963   5.567   3.721  0.4162 -0.2525 -0.7467
   47MOL   H23911371   5.908   5.540   4.176 -0.0751 -0.6267  1.1349
   47MOL   H24011372   5.977   5.378   4.131 -0.6750 -0.7586 -1.1525
   47MOL   H24111373   5.812   5.422   4.097  0.2616 -0.5016  1.3992
   47MOL   H24211374   6.009   5.392   3.711  0.6291  0.8553 -0.1685
   48MOL     C111375   6.147   6.983   6.917 -0.1681 -0.1680  0.5576
   48MOL     C211376   6.157   6.844   6.988 -0.3125 -0.2229  0.1590
   48MOL     O311377   6.239   6.855   7.102  0.3486  0.6030  0.4529
   48MOL     C411378   6.328   6.755   7.118  0.1565  0.5539 -1.0011
   48MOL     C511379   6.419   6.795   7.237  0.1259 -0.2022  0.3577
   48MOL     O611380   6.337   6.648   7.061 -0.6914  0.1251 -0.3714
   48MOL     H711381   6.077   7.055   6.959 -2.1473 -0.9717 -1.3021
   48MOL     H811382   6.123   6.979   6.810  0.2184 -1.1202  0.5063
   48MOL     H911383   6.203   6.775   6.917 -0.2477 -0.3961  0.3714
   48MOL    H1011384   6.360   6.823   7.325  1.9215  1.5162  1.0548
   48MOL    H1111385   6.464   6.891   7.213 -0.0785 -0.3578 -0.6772
   48MOL    H1211386   6.494   6.717   7.246  0.4987  0.2314  1.1204
   48MOL    H1311387   6.244   7.033   6.910 -0.1331 -0.3401 -0.2462
   48MOL    C1411388   6.020   6.793   7.027  0.4291  0.0069 -0.1964
   48MOL    C1511389   6.000   6.644   7.047  0.4164 -0.4140  0.4422
   48MOL    O1611390   5.919   6.605   7.168 -0.0989  0.1020 -0.5252
   48MOL    C1711391   5.978   6.559   7.277 -0.5324  0.1135 -0.2777
   48MOL    C1811392   5.881   6.499   7.383  0.9169 -0.5170  0.1855
   48MOL    O1911393   6.099   6.569   7.303 -0.5304 -0.5395 -0.5158
   48MOL    H2011394   5.982   6.846   7.115 -1.8887 -1.1218 -0.4731
   48MOL    H2111395   5.956   6.837   6.951 -1.0155  2.2455  2.2113
   48MOL    H2211396   6.104   6.612   7.060  1.2007  1.4318 -1.0528
   48MOL    H2311397   5.798   6.568   7.397  2.0519  0.7283  0.8653
   48MOL    H2411398   5.935   6.486   7.477  0.5964  1.0046  0.5919
   48MOL    H2511399   5.841   6.406   7.342 -0.4497  0.7247 -1.3655
   48MOL    C2611400   5.949   6.565   6.932  0.0564 -0.5660 -0.0429
   48MOL    C2711401   5.976   6.418   6.943  0.7432  0.3264  0.0179
   48MOL    O2811402   5.872   6.336   6.881 -0.1207 -0.0799  0.2659
   48MOL    C2911403   5.774   6.289   6.955 -0.2705 -0.4510  0.7691
   48MOL    C3011404   5.660   6.249   6.859 -0.4833  0.5369  0.3595
   48MOL    O3111405   5.772   6.272   7.070 -0.1471 -0.1810  0.8313
   48MOL    H3211406   5.841   6.579   6.932 -0.0310 -1.2356  0.0003
   48MOL    H3311407   5.977   6.602   6.833 -0.5969 -2.0393 -0.7982
   48MOL    H3411408   5.979   6.394   7.049  1.2184 -0.2422 -0.1177
   48MOL    H3511409   5.666   6.287   6.757 -2.0922 -2.1414 -0.7934
   48MOL    H3611410   5.564   6.281   6.900  1.2149  2.2693  3.1537
   48MOL    H3711411   5.656   6.140   6.856 -2.9516  0.6285 -0.4399
   48MOL    C3811412   6.112   6.377   6.896  0.0471  0.0843 -0.4596
   48MOL    C3911413   6.180   6.267   6.979 -0.0497  0.0023  0.2760
   48MOL    O4011414   6.250   6.193   6.883 -0.3925 -0.6589  0.1326
   48MOL    C4111415   6.280   6.061   6.895  0.5751  0.6517 -0.0958
   48MOL    C4211416   6.401   6.019   6.813  0.1780  0.3883  0.1723
   48MOL    O4311417   6.221   5.984   6.975 -0.8643  0.7075  0.3367
   48MOL    H4411418   6.096   6.341   6.794 -0.8011  0.9161 -0.6349
   48MOL    H4511419   6.174   6.467   6.891 -0.4398  0.3965 -1.0154
   48MOL    H4611420   6.102   6.211   7.031 -0.9458 -1.4919 -2.5477
   48MOL    H4711421   6.489   6.052   6.868  0.8213  0.1860 -0.7420
   48MOL    H4811422   6.394   6.063   6.714  1.9686  0.6034  0.1300
   48MOL    H4911423   6.401   5.910   6.801  0.0297  0.3823  0.2239
   48MOL    C5011424   6.284   6.327   7.082  0.2563 -0.3435  0.2036
   48MOL    C5111425   6.313   6.241   7.202  0.2013  0.1243 -0.0259
   48MOL    O5211426   6.420   6.293   7.277 -0.5164 -0.3250 -0.1323
   48MOL    C5311427   6.543   6.269   7.229  0.5302  0.0859 -0.3592
   48MOL    C5411428   6.648   6.357   7.290 -0.0865 -0.9111  0.2812
   48MOL    O5511429   6.572   6.175   7.151  0.2423  0.0879 -0.2687
   48MOL    H5611430   6.368   6.348   7.016 -1.4386  0.7014 -1.6540
   48MOL    H5711431   6.246   6.416   7.132  0.4682 -1.4098  2.3453
   48MOL    H5811432   6.334   6.140   7.168  1.6281  0.3620  0.1110
   48MOL    H5911433   6.658   6.337   7.397  1.0140 -1.1281  0.1447
   48MOL    H6011434   6.611   6.458   7.278  0.7507 -0.5322  0.8238
   48MOL    H6111435   6.742   6.355   7.235  0.4694  0.1905  1.1650
   48MOL    C6211436   6.185   6.235   7.301 -0.1102 -0.3118 -0.0728
   48MOL    C6311437   6.209   6.136   7.422  0.9181  0.2198 -1.0494
   48MOL    O6411438   6.103   6.167   7.515  0.4338  0.2926 -0.1568
   48MOL    C6511439   6.127   6.177   7.646 -0.4416 -0.2983 -0.0528
   48MOL    C6611440   6.007   6.216   7.728  0.1520  0.2741 -0.2644
   48MOL    O6711441   6.229   6.146   7.705  0.2320  0.4475 -0.1985
   48MOL    H6811442   6.168   6.340   7.326 -1.7277 -0.1736 -1.6282
   48MOL    H6911443   6.089   6.201   7.260 -0.8619 -1.3451  2.4550
   48MOL    H7011444   6.306   6.157   7.465  0.2631 -1.1920  1.2213
   48MOL    H7111445   5.921   6.149   7.713  0.2325  0.9900 -4.5241
   48MOL    H7211446   5.972   6.316   7.705 -0.3623  0.7832  2.5445
   48MOL    H7311447   6.031   6.224   7.834 -0.9122 -1.5232  0.1423
   48MOL    C7411448   6.186   5.992   7.381  0.7260 -0.6278  0.2448
   48MOL    C7511449   6.191   5.886   7.492 -0.1254 -0.2268  0.7703
   48MOL    O7611450   6.129   5.768   7.450 -0.2028 -0.5580 -0.2679
   48MOL    C7711451   6.049   5.702   7.525  0.1391  0.5390  0.1283
   48MOL    C7811452   5.987   5.586   7.453 -0.0259  0.4699 -1.5633
   48MOL    O7911453   6.028   5.724   7.642  0.4422  0.3676 -0.4901
   48MOL    H8011454   6.080   5.993   7.356  1.0389 -2.3700 -1.2980
   48MOL    H8111455   6.244   5.965   7.292 -2.2252 -0.4715 -1.8220
   48MOL    H8211456   6.130   5.933   7.569 -0.0419 -0.7837  1.1797
   48MOL    H8311457   5.949   5.611   7.354 -2.5503 -0.9879 -1.0278
   48MOL    H8411458   5.903   5.564   7.520  3.4320 -2.9181  1.9237
   48MOL    H8511459   6.051   5.498   7.451 -0.0843  0.3874  0.0533
   48MOL    C8611460   6.339   5.854   7.529  0.8584 -0.9760  0.4744
   48MOL    C8711461   6.364   5.781   7.654  0.3414  0.2149  0.5458
   48MOL    O8811462   6.497   5.738   7.630 -0.2635  0.1266 -0.0495
   48MOL    C8911463   6.524   5.603   7.644 -0.3946 -0.0016 -0.2178
   48MOL    C9011464   6.657   5.562   7.605 -0.0822  0.1075  0.3294
   48MOL    O9111465   6.442   5.525   7.687 -0.2556  0.1231 -0.5948
   48MOL    H9211466   6.371   5.795   7.443  0.6068 -0.2841 -0.1015
   48MOL    H9311467   6.401   5.944   7.536  2.7326 -2.2600  0.7165
   48MOL    H9411468   6.293   5.698   7.658  0.3592  0.3073  3.9715
   48MOL    H9511469   6.728   5.569   7.688 -0.4267  0.4580  0.5974
   48MOL    H9611470   6.674   5.630   7.521 -1.1549  2.0066  1.6314
   48MOL    H9711471   6.648   5.459   7.571  1.0190  0.0910  0.0675
   48MOL    C9811472   6.341   5.858   7.787  0.3727  0.1202 -0.0069
   48MOL    C9911473   6.368   5.776   7.916  1.1877 -0.0481  0.2692
   48MOL   O10011474   6.385   5.869   8.017  0.1001  0.0425 -0.3919
   48MOL   C10111475   6.485   5.862   0.085 -0.1580  0.2443  0.2675
   48MOL   C10211476   6.510   5.993   0.166  0.0912  0.1545  1.2922
   48MOL   O10311477   6.553   5.762   0.104  0.0686  0.2178 -0.0163
   48MOL   H10411478   6.410   5.943   7.788  1.3268 -0.6253 -0.6636
   48MOL   H10511479   6.245   5.907   7.800  0.5674  1.7842 -4.0178
   48MOL   H10611480   6.463   5.724   7.902 -0.1510 -2.4621 -0.0653
   48MOL   H10711481   6.406   6.010   0.191 -0.6580 -0.8355 -1.0450
   48MOL   H10811482   6.558   6.076   0.114 -1.1189  1.4530  2.2203
   48MOL   H10911483   6.568   5.969   0.256  1.0809 -0.2695  0.5556
   48MOL   C11011484   6.261   5.679   7.953  0.4621 -0.0391  0.1947
   48MOL   C11111485   6.299   5.531   7.975 -0.3100 -0.4282  0.1267
   48MOL   O11211486   6.344   5.526   0.088 -0.1154 -0.2734 -0.0919
   48MOL   C11311487   6.458   5.460   0.114  0.2821 -0.2001  0.5163
   48MOL   C11411488   6.511   5.487   0.252 -0.6699  0.2435  0.6608
   48MOL   O11511489   6.510   5.383   0.032 -0.4911  0.8366 -0.0053
   48MOL   H11611490   6.212   5.714   0.023 -0.5244  0.2598 -0.4388
   48MOL   H11711491   6.186   5.684   7.874  0.2354  0.3484  0.4336
   48MOL   H11811492   6.385   5.504   7.913  1.2650  2.4159  0.9887
   48MOL   H11911493   6.482   5.405   0.317 -0.8348  0.2282  0.5683
   48MOL   H12011494   6.469   5.580   0.290  0.6543  0.2014  2.2527
   48MOL   H12111495   6.620   5.483   0.252 -0.6941 -3.7123 -2.7056
   48MOL   C12211496   6.188   5.422   7.939 -0.3302  0.4054 -0.2343
   48MOL   C12311497   6.241   5.281   7.937  0.7046  0.3054  0.1774
   48MOL   O12411498   6.270   5.222   0.042  0.6753  0.1016 -0.2315
   48MOL   C12511499   6.187   5.203   0.147 -0.4095  0.0302 -0.2326
   48MOL   C12611500   6.263   5.143   0.263  0.1021  0.3283 -0.4999
   48MOL   O12711501   6.065   5.223   0.150  0.0542 -0.3601 -0.6427
   48MOL   H12811502   6.094   5.423   7.993  0.3299 -0.1023  0.9453
   48MOL   H12911503   6.159   5.443   7.836 -1.1401 -2.2102 -0.5580
   48MOL   H13011504   6.334   5.293   7.881  1.0396  0.6475  0.8024
   48MOL   H13111505   6.225   5.163   0.363  0.2032 -0.2292 -0.3497
   48MOL   H13211506   6.367   5.176   0.268  0.5130 -1.3664  3.8524
   48MOL   H13311507   6.277   5.035   0.255  1.9146  0.5547 -0.7333
   48MOL   C13411508   6.157   5.181   7.850 -0.3913 -0.2662  0.3000
   48MOL   C13511509   6.190   5.173   7.703  0.2180 -0.0900  0.5007
   48MOL   O13611510   6.320   5.115   7.698  0.2950  0.8486 -0.3807
   48MOL   C13711511   6.420   5.165   7.621 -0.6034 -0.4593 -0.2917
   48MOL   C13811512   6.563   5.115   7.640 -0.1770  0.5192 -0.1464
   48MOL   O13911513   6.403   5.246   7.534 -0.7028  0.1921 -0.3461
   48MOL   H14011514   6.157   5.085   7.902  0.4707 -0.2864  0.2663
   48MOL   H14111515   6.049   5.198   7.852 -0.6102 -1.4509 -0.9284
   48MOL   H14211516   6.180   5.268   7.650  0.9217 -0.4875 -0.3528
   48MOL   H14311517   6.585   5.029   7.577 -3.5014 -0.4495 -0.0899
   48MOL   H14411518   6.577   5.090   7.745 -1.4715  2.3442  0.4905
   48MOL   H14511519   6.637   5.192   7.616 -0.9025  0.7502 -1.6764
   48MOL   C14611520   6.095   5.079   7.634  0.2095  0.1408 -0.8205
   48MOL   C14711521   6.122   5.044   7.483  0.2720  0.1023 -0.1715
   48MOL   O14811522   6.055   4.921   7.446  0.4857  0.0613  0.4909
   48MOL   C14911523   6.096   4.791   7.479 -0.7760 -0.6892  0.5331
   48MOL   C15011524   5.982   4.690   7.467 -0.2035  0.3850  0.0659
   48MOL   O15111525   6.212   4.755   7.492 -0.4533  0.1431 -0.2686
   48MOL   H15211526   6.096   4.983   7.686  1.8453  0.8927  0.5821
   48MOL   H15311527   5.989   5.102   7.643 -0.2293 -1.6794 -0.9990
   48MOL   H15411528   6.227   5.025   7.464  0.1762 -0.5793 -0.0227
   48MOL   H15511529   5.893   4.720   7.522 -0.0225  0.1074  0.5144
   48MOL   H15611530   6.011   4.597   7.515 -2.4034 -0.5303 -0.3485
   48MOL   H15711531   5.979   4.676   7.359  0.8321  0.4510  0.0204
   48MOL   C15811532   6.082   5.149   7.379  0.4649 -0.1461  0.6528
   48MOL   C15911533   6.118   5.103   7.233  0.1012  0.3157  0.2361
   48MOL   O16011534   6.052   5.185   7.137  0.1314  0.2793 -0.9934
   48MOL   C16111535   5.928   5.149   7.091 -0.0822 -0.3391 -0.1938
   48MOL   C16211536   5.866   5.263   7.007  0.1352  0.4235 -0.5192
   48MOL   O16311537   5.860   5.051   7.108 -0.1577  0.1850  0.2374
   48MOL   H16411538   5.973   5.155   7.376  0.4581  0.0921  1.3613
   48MOL   H16511539   6.132   5.243   7.403 -0.4466  0.1724  1.3618
   48MOL   H16611540   6.074   5.004   7.222  0.4869 -0.0449  1.8223
   48MOL   H16711541   5.886   5.367   7.035 -1.6750  0.7421 -0.3525
   48MOL   H16811542   5.758   5.249   7.010  0.2708 -0.4320  0.2234
   48MOL   H16911543   5.889   5.244   6.902 -0.8243 -2.9755 -0.1599
   48MOL   C17011544   6.262   5.099   7.185  0.1919 -0.1018  0.7336
   48MOL   C17111545   6.283   5.016   7.063  0.2806 -0.3286  0.1976
   48MOL   O17211546   6.293   5.087   6.937 -0.7245 -0.4835  0.4783
   48MOL   C17311547   6.218   5.061   6.837 -0.3678 -0.1554 -0.5006
   48MOL   C17411548   6.215   5.164   6.727 -0.4049  0.1419  0.9130
   48MOL   O17511549   6.148   4.958   6.824 -0.0508 -0.6677  0.4535
   48MOL   H17611550   6.302   5.200   7.176  0.2695 -0.1339  0.7173
   48MOL   H17711551   6.314   5.054   7.269 -0.7921 -0.4972  1.1397
   48MOL   H17811552   6.200   4.945   7.059 -1.7150  1.8724  1.6625
   48MOL   H17911553   6.308   5.221   6.725  0.1206 -0.7010  0.9276
   48MOL   H18011554   6.132   5.232   6.744 -2.0603 -1.4081 -0.7130
   48MOL   H18111555   6.207   5.123   6.626  1.0587  1.2189  0.3352
   48MOL   C18211556   6.420   4.944   7.070 -0.5491  0.3328 -0.5378
   48MOL   C18311557   6.419   4.810   7.150  0.0076  0.1395  0.4695
   48MOL   O18411558   6.353   4.712   7.079 -0.4072  0.3759  0.5604
   48MOL   C18511559   6.222   4.676   7.097 -0.0992 -0.2321 -0.3925
   48MOL   C18611560   6.178   4.559   7.016 -0.3304  0.0218  0.6767
   48MOL   O18711561   6.147   4.754   7.158  0.5572  0.0707  0.8463
   48MOL   H18811562   6.449   4.923   6.967 -0.7216 -2.1440 -0.1004
   48MOL   H18911563   6.493   5.009   7.117  0.0805 -1.1798  0.6107
   48MOL   H19011564   6.363   4.831   7.241 -2.4742 -2.1188 -0.4906
   48MOL   H19111565   6.075   4.536   7.044 -0.3388 -0.3897  0.3221
   48MOL   H19211566   6.246   4.474   7.031  2.0942  1.7865 -0.0658
   48MOL   H19311567   6.182   4.584   6.910 -1.7372 -2.8934 -0.1410
   48MOL   C19411568   6.554   4.745   7.180 -0.1985 -0.6926  0.2536
   48MOL   C19511569   6.624   4.779   7.314  0.0894 -0.6322 -0.3849
   48MOL   O19611570   6.617   4.918   7.341  0.0840  0.3103  0.3353
   48MOL   C19711571   6.708   5.002   7.290  0.4347 -0.1268  0.7370
   48MOL   C19811572   6.672   5.142   7.319  0.4726 -0.1400  0.9107
   48MOL   O19911573   6.806   4.972   7.226 -0.0839  0.0708 -0.1361
   48MOL   H20011574   6.542   4.637   7.165 -2.0909 -0.3769 -0.7043
   48MOL   H20111575   6.629   4.776   7.107  0.2739  0.5537  1.2523
   48MOL   H20211576   6.728   4.748   7.312  0.2551 -0.0849 -0.3533
   48MOL   H20311577   6.751   5.184   7.382  0.9161  0.4873 -0.0489
   48MOL   H20411578   6.576   5.141   7.371  0.1566 -0.8055  0.3250
   48MOL   H20511579   6.653   5.194   7.225 -2.7927 -1.5861  0.7288
   48MOL   C20611580   6.556   4.713   7.427 -0.1427  0.1704 -0.3080
   48MOL   C20711581   6.580   4.561   7.462 -0.2541 -0.7125 -0.3118
   48MOL   O20811582   6.720   4.554   7.466 -0.5842  0.0325  0.1960
   48MOL   C20911583   6.785   4.469   7.381  0.3735  0.2162 -0.1708
   48MOL   C21011584   6.932   4.515   7.355 -0.0334  0.2372  0.3702
   48MOL   O21111585   6.734   4.377   7.313 -0.2882 -0.1202  0.4968
   48MOL   H21211586   6.591   4.767   7.514  4.3137 -2.8289 -0.0456
   48MOL   H21311587   6.451   4.744   7.430  0.4498  2.0739  0.8836
   48MOL   H21411588   6.536   4.497   7.385  1.5608 -1.6022 -0.6449
   48MOL   H21511589   6.992   4.424   7.363 -0.7779 -0.3816 -1.0223
   48MOL   H21611590   6.968   4.578   7.436  1.0682 -0.4790  0.4636
   48MOL   H21711591   6.938   4.557   7.255  1.1589 -0.7307  0.0174
   48MOL   C21811592   6.517   4.514   7.593  0.3947 -0.3419  0.4360
   48MOL   C21911593   6.368   4.476   7.582  0.6647  0.2030 -0.1807
   48MOL   O22011594   6.364   4.356   7.499  0.1440 -0.0606 -0.3924
   48MOL   C22111595   6.271   4.363   7.394 -0.5650  0.5658 -0.4669
   48MOL   C22211596   6.246   4.226   7.335 -0.3694  0.4975  0.3949
   48MOL   O22311597   6.209   4.455   7.350 -0.1250  0.9649 -0.3430
   48MOL   H22411598   6.572   4.431   7.637  1.4183  1.0456  1.8119
   48MOL   H22511599   6.524   4.585   7.675 -0.9228 -1.3340  1.4540
   48MOL   H22611600   6.301   4.549   7.537  0.3977 -0.7181 -1.3211
   48MOL   H22711601   6.155   4.235   7.275  0.5449  0.1780 -1.0865
   48MOL   H22811602   6.221   4.144   7.403 -1.4569  0.0562 -0.5049
   48MOL   H22911603   6.325   4.194   7.267 -1.2956  2.4885 -1.6997
   48MOL   C23011604   6.307   4.455   7.722 -0.2255  0.0464 -0.0283
   48MOL   C23111605   6.269   4.592   7.779  0.2844 -0.0672  0.2998
   48MOL   O23211606   6.286   4.583   7.919  0.4945 -0.2899 -0.1728
   48MOL   C23311607   6.314   4.693   8.000 -0.3949 -0.1000  0.0172
   48MOL   C23411608   6.327   4.653   0.121 -0.1312  0.6061 -0.0554
   48MOL   O23511609   6.301   4.814   7.973 -0.3797  0.3694  0.1730
   48MOL   H23611610   6.221   4.389   7.726  0.5253 -0.8704  1.1239
   48MOL   H23711611   6.385   4.405   7.779 -0.7539  0.2635  0.8910
   48MOL   H23811612   6.164   4.615   7.757 -1.0888 -5.1828  0.9372
   48MOL   H23911613   6.246   4.691   0.183  2.0091 -0.9256  3.8426
   48MOL   H24011614   6.418   4.696   0.164 -0.5472  0.9926  0.4470
   48MOL   H24111615   6.323   4.544   0.131 -1.4566  0.7485  1.1322
   48MOL   H24211616   6.322   4.680   7.744 -0.5034 -0.0631 -0.9281
   49MOL     C111617   3.660   6.696   3.372  0.4944  0.1688 -0.1371
   49MOL     C211618   3.520   6.720   3.431 -0.0680  0.3851  0.6178
   49MOL     O311619   3.528   6.775   3.562  0.4726  0.0043  0.4735
   49MOL     C411620   3.523   6.694   3.676 -0.0040  0.5192  0.4061
   49MOL     C511621   3.554   6.777   3.800  0.5036 -0.2496  0.1322
   49MOL     O611622   3.495   6.572   3.679 -0.1844 -0.0988  0.6146
   49MOL     H711623   3.700   6.797   3.365 -2.8558  1.5282 -0.6670
   49MOL     H811624   3.661   6.659   3.270  0.3740  1.2232 -0.5306
   49MOL     H911625   3.470   6.623   3.435  0.6321 -0.0946 -1.9110
   49MOL    H1011626   3.516   6.713   3.880 -0.0064 -0.8458 -0.5839
   49MOL    H1111627   3.495   6.868   3.809 -0.3234 -0.8977  1.2823
   49MOL    H1211628   3.661   6.794   3.817  0.5974 -0.0455 -0.6532
   49MOL    H1311629   3.729   6.639   3.434  0.6297 -0.7729 -1.1466
   49MOL    C1411630   3.437   6.827   3.361  0.5395 -0.1306 -0.4663
   49MOL    C1511631   3.383   6.802   3.218  1.0784  0.3824 -0.2346
   49MOL    O1611632   3.322   6.674   3.218 -0.4947  0.4924  0.0008
   49MOL    C1711633   3.377   6.564   3.153 -0.7895 -0.0935  0.3127
   49MOL    C1811634   3.299   6.429   3.156  0.3152  0.4215  0.6711
   49MOL    O1911635   3.476   6.573   3.078  0.1993  0.0506  0.1339
   49MOL    H2011636   3.353   6.849   3.428  0.2040  0.8367 -1.2029
   49MOL    H2111637   3.499   6.915   3.346 -0.1263  0.1704 -1.5107
   49MOL    H2211638   3.473   6.809   3.156  0.6379  1.6082 -0.7514
   49MOL    H2311639   3.203   6.441   3.105  0.5134  1.7586  0.5723
   49MOL    H2411640   3.278   6.399   3.258  0.0199 -0.5985  0.3185
   49MOL    H2511641   3.351   6.349   3.104 -0.3637  1.0857 -1.0933
   49MOL    C2611642   3.283   6.909   3.179 -0.9564 -0.3689 -0.1338
   49MOL    C2711643   3.250   6.887   3.026 -0.4258 -0.4046  0.0367
   49MOL    O2811644   3.130   6.801   3.030 -0.0997 -0.5965 -0.7265
   49MOL    C2911645   3.117   6.690   2.961  0.8723  0.1767 -0.4575
   49MOL    C3011646   3.009   6.596   3.003 -0.4004  0.5409 -0.1076
   49MOL    O3111647   3.186   6.666   2.862 -0.2115 -0.1006  0.4828
   49MOL    H3211648   3.200   6.904   3.250  1.2911 -0.8976  2.5331
   49MOL    H3311649   3.318   7.011   3.198 -0.0971 -0.3492 -1.7884
   49MOL    H3411650   3.330   6.832   2.977  0.5727  1.2419 -0.2215
   49MOL    H3511651   3.038   6.493   2.984 -0.8862  0.3818  0.0182
   49MOL    H3611652   2.922   6.619   2.942  0.4397  0.5722 -1.3217
   49MOL    H3711653   2.992   6.611   3.110  1.5470 -0.5190  0.3828
   49MOL    C3811654   3.213   7.010   2.947  0.4575  0.1939 -0.2180
   49MOL    C3911655   3.318   7.126   2.944  0.3833  0.8083  0.3670
   49MOL    O4011656   3.446   7.069   2.918 -0.4365  0.0638 -0.7462
   49MOL    C4111657   3.547   7.080   3.000  0.1969 -0.1817 -0.5129
   49MOL    C4211658   3.677   7.041   2.940  0.0577 -0.0351  0.4545
   49MOL    O4311659   3.536   7.103   3.118 -0.5533 -0.1503 -0.0008
   49MOL    H4411660   3.197   6.983   2.843 -2.4922 -0.3308  0.3367
   49MOL    H4511661   3.117   7.045   2.986 -0.7689  0.2698 -3.2033
   49MOL    H4611662   3.317   7.177   3.040  0.2422  0.8506  0.3425
   49MOL    H4711663   3.730   6.956   2.982 -1.1387  0.2896  2.6612
   49MOL    H4811664   3.747   7.125   2.951  0.4150 -0.5235  2.0546
   49MOL    H4911665   3.666   7.029   2.832  2.4195  0.5472  0.1147
   49MOL    C5011666   3.290   7.217   2.830  0.0339 -0.3368  0.2784
   49MOL    C5111667   3.310   7.368   2.862 -0.0655  0.5965  0.5540
   49MOL    O5211668   3.450   7.394   2.886  0.6424 -0.2282  0.0869
   49MOL    C5311669   3.490   7.434   3.009 -0.6652  0.0350  0.2321
   49MOL    C5411670   3.637   7.466   3.018 -1.0149  0.4361 -0.2747
   49MOL    O5511671   3.418   7.439   3.110 -0.1864 -0.1440  0.4974
   49MOL    H5611672   3.352   7.197   2.742  0.3750  1.3411  0.1086
   49MOL    H5711673   3.188   7.210   2.792  0.7250 -0.0651 -1.7230
   49MOL    H5811674   3.237   7.387   2.942 -0.5465 -1.4477  0.6373
   49MOL    H5911675   3.687   7.430   2.928  0.7218 -0.0757  0.8742
   49MOL    H6011676   3.682   7.429   3.110 -0.9918  2.5843  0.5958
   49MOL    H6111677   3.633   7.574   3.011  1.2614  0.5386 -0.1996
   49MOL    C6211678   3.273   7.463   2.741 -0.9319  0.7070 -1.1187
   49MOL    C6311679   3.213   7.597   2.776 -0.1306  0.1821  0.0504
   49MOL    O6411680   3.281   7.667   2.875 -0.0533  0.3394 -0.2172
   49MOL    C6511681   3.213   7.730   2.969  0.3757 -0.8309 -0.0270
   49MOL    C6611682   3.305   7.818   3.063  0.3107 -0.1073  0.1975
   49MOL    O6711683   3.095   7.711   2.994 -0.0118 -0.4728  0.6365
   49MOL    H6811684   3.360   7.475   2.676 -1.7868 -2.8311 -3.0661
   49MOL    H6911685   3.193   7.417   2.683 -0.4821 -2.0293  0.3487
   49MOL    H7011686   3.118   7.562   2.814 -1.4137  0.4477 -2.7687
   49MOL    H7111687   3.404   7.833   3.020 -0.0006  0.6418 -0.2680
   49MOL    H7211688   3.312   7.763   3.157 -0.4682 -0.0101  0.3153
   49MOL    H7311689   3.266   7.917   3.087  0.8324  0.0461  0.4111
   49MOL    C7411690   3.205   7.684   2.656  0.4322 -0.2400  0.0822
   49MOL    C7511691   3.103   7.641   2.554 -0.6188 -0.4745 -0.0294
   49MOL    O7611692   2.983   7.709   2.588 -0.0088 -0.4254  0.3360
   49MOL    C7711693   2.879   7.649   2.662  0.0773 -0.1371 -0.1837
   49MOL    C7811694   2.764   7.742   2.697  0.2946  0.0113  0.8103
   49MOL    O7911695   2.873   7.530   2.698 -0.2802  0.6325  1.0159
   49MOL    H8011696   3.181   7.787   2.684 -2.4707 -0.3268 -1.9454
   49MOL    H8111697   3.302   7.685   2.606 -0.4530 -0.6662 -1.6630
   49MOL    H8211698   3.073   7.538   2.540  0.6691 -1.0173  1.1236
   49MOL    H8311699   2.808   7.827   2.750 -0.4375  0.3753  0.8398
   49MOL    H8411700   2.700   7.695   2.772  0.3090 -2.0898 -0.4362
   49MOL    H8511701   2.718   7.797   2.616  0.8594 -1.3799 -0.4819
   49MOL    C8611702   3.146   7.688   2.412 -0.1254 -0.9499 -1.4812
   49MOL    C8711703   3.248   7.605   2.336  0.6508  0.0162 -0.1721
   49MOL    O8811704   3.204   7.469   2.312 -0.9088 -0.0286 -0.0159
   49MOL    C8911705   3.279   7.359   2.341 -0.3389 -0.9410 -0.0029
   49MOL    C9011706   3.247   7.237   2.252 -0.9849  0.0330  0.0987
   49MOL    O9111707   3.375   7.354   2.417  0.2166 -0.4814 -0.2558
   49MOL    H9211708   3.057   7.687   2.349  0.3326  3.2876 -2.3384
   49MOL    H9311709   3.161   7.796   2.422 -0.8479 -1.0103  0.4548
   49MOL    H9411710   3.334   7.603   2.402  2.2170  0.9084 -2.1487
   49MOL    H9511711   3.190   7.269   2.166  0.5997 -1.2336 -1.4669
   49MOL    H9611712   3.200   7.152   2.301  2.8110 -1.5134  1.2732
   49MOL    H9711713   3.339   7.196   2.210  0.0007  1.4285  0.8591
   49MOL    C9811714   3.282   7.677   2.206  0.8859  0.6719  0.1620
   49MOL    C9911715   3.165   7.697   2.103 -0.1294  0.4888 -0.4216
   49MOL   O10011716   3.127   7.829   2.118 -0.4997 -0.1773 -0.5223
   49MOL   C10111717   3.000   7.865   2.096 -0.2544  0.4921 -0.1487
   49MOL   C10211718   2.959   8.002   2.156 -0.8395 -0.7673  0.0083
   49MOL   O10311719   2.931   7.802   2.013 -0.2856  0.0014 -0.1875
   49MOL   H10411720   3.323   7.777   2.222  2.6677 -0.1433  0.7493
   49MOL   H10511721   3.365   7.619   2.166  0.3522  0.4580 -0.6434
   49MOL   H10611722   3.083   7.632   2.134  0.4427  0.5188  1.1843
   49MOL   H10711723   2.989   0.004   2.259  0.2107  1.7716 -0.8267
   49MOL   H10811724   2.850   8.004   2.155 -0.8159  1.3628 -1.3404
   49MOL   H10911725   2.984   0.061   2.087  0.6000 -0.2150  1.1360
   49MOL   C11011726   3.204   7.648   1.962 -0.0132  0.4140  0.0862
   49MOL   C11111727   3.201   7.497   1.930  0.2028  0.2604  0.1602
   49MOL   O11211728   3.320   7.440   1.981 -0.8053 -0.0744  0.7341
   49MOL   C11311729   3.408   7.368   1.923 -0.0766  0.3859  0.7185
   49MOL   C11411730   3.516   7.325   2.025 -0.4816  0.3625 -0.2143
   49MOL   O11511731   3.403   7.332   1.807 -0.1314  0.4461  0.0413
   49MOL   H11611732   3.122   7.685   1.901 -1.8891 -0.2924  2.0691
   49MOL   H11711733   3.290   7.694   1.916  0.3098  0.0455  0.3169
   49MOL   H11811734   3.208   7.480   1.822 -2.2937  0.3651 -0.0399
   49MOL   H11911735   3.464   7.264   2.099 -0.2483 -1.3091 -1.4105
   49MOL   H12011736   3.561   7.417   2.063  1.1191  0.0893 -1.4188
   49MOL   H12111737   3.594   7.267   1.976 -1.6447 -1.3891 -0.0239
   49MOL   C12211738   3.073   7.429   1.983 -0.1885  0.8718  0.7146
   49MOL   C12311739   3.056   7.292   1.919 -0.2556 -0.4711 -0.0209
   49MOL   O12411740   2.968   7.222   2.008  0.3030  0.0047 -0.0963
   49MOL   C12511741   2.968   7.087   2.018  0.1899  0.9190  0.7972
   49MOL   C12611742   2.889   7.038   2.136 -0.1838  0.3684 -1.1816
   49MOL   O12711743   3.042   7.007   1.959  0.3095  0.6111  0.2139
   49MOL   H12811744   3.078   7.426   2.092 -0.8989  1.0444  0.7554
   49MOL   H12911745   2.986   7.494   1.979 -2.9161 -2.4456  3.6378
   49MOL   H13011746   3.151   7.239   1.924  0.7369  1.3750  1.1688
   49MOL   H13111747   2.788   7.016   2.103  0.0343 -0.1539 -1.5032
   49MOL   H13211748   2.902   7.096   2.227 -0.5372  0.0469 -0.9264
   49MOL   H13311749   2.937   6.945   2.166  0.0784  0.9993  0.3834
   49MOL   C13411750   3.009   7.295   1.773  0.1114 -0.2506 -0.4507
   49MOL   C13511751   2.887   7.376   1.743  0.4967 -0.1446 -0.2745
   49MOL   O13611752   2.874   7.406   1.607 -0.4623  0.0753 -1.0118
   49MOL   C13711753   2.888   7.533   1.568  0.0521  0.1779 -0.2101
   49MOL   C13811754   2.863   7.541   1.414  0.5935 -0.3303 -0.0709
   49MOL   O13911755   2.923   7.628   1.639 -0.4710  0.5240  0.0237
   49MOL   H14011756   3.093   7.338   1.718  0.7443 -0.1705  0.5743
   49MOL   H14111757   2.993   7.196   1.730  1.7914  0.5792 -3.1434
   49MOL   H14211758   2.891   7.469   1.801 -3.3777 -0.0841  0.0191
   49MOL   H14311759   2.911   7.457   1.364  0.1639 -0.1324 -0.8080
   49MOL   H14411760   2.878   7.637   1.366  0.7440  1.1064  2.7190
   49MOL   H14511761   2.758   7.518   1.398  0.6001  0.2956 -1.0092
   49MOL   C14611762   2.749   7.321   1.788 -0.4922  0.6587  0.8441
   49MOL   C14711763   2.641   7.424   1.782  0.2171  0.2425 -0.4322
   49MOL   O14811764   2.516   7.358   1.790 -0.4068  0.4081 -0.1751
   49MOL   C14911765   2.414   7.395   1.713 -0.1568  0.0012 -0.2887
   49MOL   C15011766   2.292   7.306   1.717  0.1013 -0.0520 -0.2573
   49MOL   O15111767   2.417   7.492   1.636  0.1585  0.0968 -0.2059
   49MOL   H15211768   2.726   7.244   1.714  0.3484  2.2173 -1.0796
   49MOL   H15311769   2.747   7.279   1.889  3.4912  0.2374  0.8261
   49MOL   H15411770   2.639   7.469   1.683  1.3639 -1.9811 -1.4914
   49MOL   H15511771   2.255   7.270   1.813 -0.0097  0.6329 -0.0445
   49MOL   H15611772   2.316   7.213   1.665 -1.8691  0.3502 -1.9362
   49MOL   H15711773   2.197   7.353   1.691 -1.5023 -1.7751  2.2847
   49MOL   C15811774   2.657   7.536   1.896 -0.0747  0.2343 -0.1733
   49MOL   C15911775   2.664   7.484   2.036  0.9172 -0.1085  0.7471
   49MOL   O16011776   2.681   7.601   2.109  0.2896  0.3525 -0.6939
   49MOL   C16111777   2.763   7.604   2.217  0.4438 -0.3689 -0.2313
   49MOL   C16211778   2.749   7.736   2.292 -0.1535 -0.5031 -0.2803
   49MOL   O16311779   2.847   7.521   2.261 -0.3565  0.2573  0.3689
   49MOL   H16411780   2.742   7.601   1.873  0.1486 -0.4776 -1.4475
   49MOL   H16511781   2.574   7.606   1.891  0.0711  0.4637  0.6509
   49MOL   H16611782   2.743   7.412   2.054 -0.1185 -2.2468 -2.9007
   49MOL   H16711783   2.731   7.812   2.216 -1.4346 -2.7809 -2.3518
   49MOL   H16811784   2.838   7.765   2.347 -0.4738  0.3249 -0.1891
   49MOL   H16911785   2.663   7.736   2.360  0.5620 -0.5390  0.6280
   49MOL   C17011786   2.534   7.409   2.069 -0.4117 -0.1142  0.0640
   49MOL   C17111787   2.515   7.365   2.214 -0.2904  0.1597  0.4172
   49MOL   O17211788   2.380   7.318   2.212  0.3578  0.3416 -0.0345
   49MOL   C17311789   2.274   7.383   2.274 -1.0412 -0.1785  0.6989
   49MOL   C17411790   2.140   7.311   2.258 -0.3765  0.3825  0.2826
   49MOL   O17511791   2.292   7.485   2.343  0.2718 -0.5366 -0.1670
   49MOL   H17611792   2.447   7.466   2.035  0.4089  0.9806 -0.2153
   49MOL   H17711793   2.523   7.317   2.011 -1.0361  0.9096 -1.4511
   49MOL   H17811794   2.520   7.448   2.285  1.2665  0.3128  0.1453
   49MOL   H17911795   2.068   7.374   2.310  0.9789  1.4209  0.9270
   49MOL   H18011796   2.136   7.213   2.306 -3.1333 -0.2168 -1.0556
   49MOL   H18111797   2.101   7.298   2.157  1.2970  0.6813 -0.4240
   49MOL   C18211798   2.612   7.252   2.242  0.6802 -0.1138  0.3074
   49MOL   C18311799   2.587   7.186   2.378  0.4062 -0.0683  0.3178
   49MOL   O18411800   2.679   7.078   2.388  0.4907 -0.0512  0.7980
   49MOL   C18511801   2.638   6.953   2.440  0.6878 -0.6278 -0.3545
   49MOL   C18611802   2.747   6.857   2.474 -0.2795 -0.3213  0.5918
   49MOL   O18711803   2.522   6.923   2.460  0.1367 -0.2463 -0.4959
   49MOL   H18811804   2.614   7.177   2.163 -0.3480  1.3380 -1.1413
   49MOL   H18911805   2.710   7.298   2.233  1.2341 -1.8190 -3.1157
   49MOL   H19011806   2.482   7.157   2.385  0.0920  0.9340 -0.0865
   49MOL   H19111807   2.836   6.911   2.441  1.7789 -2.2253  2.8316
   49MOL   H19211808   2.737   6.761   2.423  1.8967 -0.2353 -0.0627
   49MOL   H19311809   2.750   6.856   2.583  1.1125  3.8080  0.6759
   49MOL   C19411810   2.623   7.272   2.505  0.2046  0.7563 -0.0713
   49MOL   C19511811   2.502   7.324   2.579 -0.3997  1.0154 -0.5378
   49MOL   O19611812   2.442   7.219   2.647 -0.1098  0.1808 -0.2914
   49MOL   C19711813   2.309   7.182   2.629  0.5145 -0.5677  0.1746
   49MOL   C19811814   2.256   7.076   2.722  0.4389 -0.1087  0.3480
   49MOL   O19911815   2.239   7.214   2.537 -0.4317  0.2980  0.3284
   49MOL   H20011816   2.672   7.207   2.578  1.2488 -0.9247 -2.2170
   49MOL   H20111817   2.689   7.354   2.477 -1.1362  1.6040 -0.7966
   49MOL   H20211818   2.427   7.370   2.516 -0.2361  0.9779 -0.7612
   49MOL   H20311819   2.314   7.062   2.813  1.4836 -2.2649 -0.5905
   49MOL   H20411820   2.247   6.982   2.667 -0.7532 -0.5174  1.2062
   49MOL   H20511821   2.160   7.124   2.738  0.3154  0.0732 -0.8998
   49MOL   C20611822   2.556   7.429   2.676 -0.0122 -0.3647 -0.3401
   49MOL   C20711823   2.453   7.490   2.772  0.2185 -0.3088  0.0763
   49MOL   O20811824   2.517   7.565   2.874  0.3077 -0.1140  0.6848
   49MOL   C20911825   2.531   7.508   2.994  0.1636  0.2501 -0.4998
   49MOL   C21011826   2.581   7.608   3.092 -0.3325 -0.2040  0.2201
   49MOL   O21111827   2.497   7.390   3.021 -0.7685 -0.6169  0.0380
   49MOL   H21211828   2.633   7.381   2.736  1.3042  0.3251 -1.4469
   49MOL   H21311829   2.609   7.502   2.615 -2.1039 -0.8669 -2.8214
   49MOL   H21411830   2.397   7.411   2.821 -0.3768  0.3130  0.4166
   49MOL   H21511831   2.688   7.596   3.112  0.1425  0.8660 -1.5881
   49MOL   H21611832   2.511   7.591   3.174  0.6646 -2.6257  0.6376
   49MOL   H21711833   2.561   7.700   3.038 -0.6982 -0.4243 -0.0140
   49MOL   C21811834   2.357   7.587   2.698 -0.4921 -0.1334  0.1862
   49MOL   C21911835   2.223   7.598   2.780 -0.3951 -0.3404 -0.2367
   49MOL   O22011836   2.173   7.733   2.765  0.6676 -0.6512 -0.0044
   49MOL   C22111837   2.223   7.845   2.828  0.9153 -0.5348  0.0216
   49MOL   C22211838   2.147   7.971   2.774  0.2056  0.2570 -0.5294
   49MOL   O22311839   2.314   7.856   2.906  0.5764  0.1398  0.1242
   49MOL   H22411840   2.406   7.684   2.705 -1.5947  0.2982  2.2624
   49MOL   H22511841   2.343   7.556   2.595 -2.3657  0.1962  0.3134
   49MOL   H22611842   2.253   7.589   2.885  3.5298  0.5949 -1.1862
   49MOL   H22711843   2.222   8.011   2.706  2.7617 -1.9370  0.8857
   49MOL   H22811844   2.154   0.031   2.847  1.1000 -1.0576  0.8710
   49MOL   H22911845   2.054   7.973   2.718 -1.7700  1.1927  2.6134
   49MOL   C23011846   2.106   7.499   2.739  0.0871  0.1733 -0.0203
   49MOL   C23111847   1.994   7.506   2.852  0.0717 -0.0930 -0.1073
   49MOL   O23211848   1.888   7.414   2.827 -0.8020  0.3549  0.0996
   49MOL   C23311849   1.891   7.285   2.869  0.5516  0.8869 -0.0051
   49MOL   C23411850   1.768   7.212   2.831  0.1329  0.1874  0.1429
   49MOL   O23511851   1.989   7.225   2.914 -0.0899  0.1229 -0.2402
   49MOL   H23611852   2.056   7.510   2.642 -0.9262 -0.2345  0.4425
   49MOL   H23711853   2.145   7.397   2.739 -2.9523 -1.0725 -0.9630
   49MOL   H23811854   1.944   7.603   2.856  0.2681  0.0032 -0.0177
   49MOL   H23911855   1.754   7.115   2.877  0.4939  1.7349  3.6630
   49MOL   H24011856   1.760   7.195   2.724  1.6023 -0.9251  0.1962
   49MOL   H24111857   1.692   7.283   2.865 -1.1738 -0.8233 -0.6215
   49MOL   H24211858   2.028   7.487   2.954 -3.3400 -3.1517  0.5894
   50MOL     C111859   2.366   7.747   2.085 -0.7516 -0.1616  0.6556
   50MOL     C211860   2.250   7.784   2.185 -0.2184  0.5172  0.8263
   50MOL     O311861   2.276   7.909   2.246 -0.0181  0.1025 -0.2921
   50MOL     C411862   2.346   7.910   2.359  0.6928  0.7083 -0.6136
   50MOL     C511863   2.362   0.033   2.409 -0.4345 -0.0522 -0.1265
   50MOL     O611864   2.398   7.815   2.421  0.2733  0.1559 -0.5176
   50MOL     H711865   2.341   7.648   2.047 -1.6719  0.4223 -0.3099
   50MOL     H811866   2.469   7.742   2.120  0.1089 -0.4611 -1.7784
   50MOL     H911867   2.236   7.704   2.258  0.8827  0.0737  0.5565
   50MOL    H1011868   2.414   0.092   2.334 -0.6595 -0.6722 -0.7793
   50MOL    H1111869   2.416   0.039   2.503  0.2686 -2.5258 -0.3237
   50MOL    H1211870   2.265   0.081   2.424 -0.1410  0.5823 -0.2488
   50MOL    H1311871   2.377   7.820   2.004 -1.0157 -0.7655  0.0657
   50MOL    C1411872   2.115   7.792   2.103  0.7218  0.2475  0.5952
   50MOL    C1511873   1.993   7.821   2.196  0.2529  0.8222  0.3976
   50MOL    O1611874   1.871   7.808   2.123  0.0898  0.2716  0.0089
   50MOL    C1711875   1.789   7.923   2.111  0.7315 -0.1731 -0.4132
   50MOL    C1811876   1.674   7.894   2.012  0.0012  0.2039 -0.1737
   50MOL    O1911877   1.817   0.015   2.150 -0.9094 -0.5048 -0.5717
   50MOL    H2011878   2.120   7.858   2.016 -0.3655 -0.9503 -0.3909
   50MOL    H2111879   2.105   7.693   2.059 -0.7440  0.5034  0.3248
   50MOL    H2211880   2.007   7.923   2.230  1.6814  1.3892 -1.8100
   50MOL    H2311881   1.616   7.985   2.000 -0.3445 -0.1326 -1.1110
   50MOL    H2411882   1.612   7.808   2.036 -1.8305  1.3416 -0.7797
   50MOL    H2511883   1.719   7.861   1.919  0.0572  0.4604 -0.2379
   50MOL    C2611884   1.976   7.741   2.318 -0.2614  0.3967 -0.4490
   50MOL    C2711885   1.859   7.779   2.408  0.4194 -0.2899 -0.6916
   50MOL    O2811886   1.811   7.655   2.471  0.0676 -0.0277 -0.3122
   50MOL    C2911887   1.700   7.588   2.419 -0.1447 -0.3619  0.2412
   50MOL    C3011888   1.688   7.455   2.474  0.0684 -0.3549  0.3967
   50MOL    O3111889   1.613   7.633   2.335 -0.2276 -0.1503  0.3172
   50MOL    H3211890   1.961   7.635   2.299  0.3478  0.0217  1.0496
   50MOL    H3311891   2.065   7.736   2.381 -0.3553  0.8071 -0.2787
   50MOL    H3411892   1.775   7.825   2.357  1.1524 -0.0091 -1.6451
   50MOL    H3511893   1.676   7.374   2.401  0.9605 -1.2528  1.2280
   50MOL    H3611894   1.610   7.453   2.549 -1.5893 -1.9656 -1.3186
   50MOL    H3711895   1.776   7.414   2.523  1.5535  1.7614 -0.4043
   50MOL    C3811896   1.889   7.874   2.525  0.4084 -0.0197 -0.2276
   50MOL    C3911897   1.809   8.007   2.513  0.2829 -0.0701  0.0882
   50MOL    O4011898   1.671   7.975   2.507  0.2978 -0.1349  0.3883
   50MOL    C4111899   1.588   0.025   2.432 -0.9648 -0.6512  0.8559
   50MOL    C4211900   1.451   7.976   2.403  1.0157 -0.2213  0.1227
   50MOL    O4311901   1.614   0.137   2.394 -0.1930  0.2052  0.0805
   50MOL    H4411902   1.878   7.828   2.624  1.5358  1.6926  0.7330
   50MOL    H4511903   1.996   7.896   2.533  0.3158 -0.2389  2.2504
   50MOL    H4611904   1.851   0.040   2.429  2.9452  1.5023  2.3270
   50MOL    H4711905   1.448   7.902   2.483 -0.4657  0.4834  0.7342
   50MOL    H4811906   1.446   7.946   2.298  3.1982 -1.1008  0.2404
   50MOL    H4911907   1.369   0.023   2.425  1.7254  0.9684 -0.9013
   50MOL    C5011908   1.824   0.079   2.636 -0.2069  0.2245  0.3576
   50MOL    C5111909   1.938   0.181   2.607  0.0936 -0.0497  0.5989
   50MOL    O5211910   1.894   0.259   2.491  0.3157  0.2783  0.2378
   50MOL    C5311911   1.958   0.282   2.386  0.2145  0.5041 -0.0877
   50MOL    C5411912   1.882   0.363   2.284 -1.1704 -0.7967  0.0068
   50MOL    O5511913   2.067   0.240   2.361 -0.5316 -0.2127  0.3422
   50MOL    H5611914   1.730   0.130   2.657  0.6987  1.3631  1.7428
   50MOL    H5711915   1.851   0.020   2.724  2.4115  0.2672 -0.4014
   50MOL    H5811916   2.027   0.131   2.571  0.2389  0.6426 -0.0344
   50MOL    H5911917   1.777   0.371   2.312 -0.8625 -2.0784  1.5723
   50MOL    H6011918   1.891   0.320   2.184 -1.6719 -0.3857 -0.2155
   50MOL    H6111919   1.920   0.465   2.275  0.0607 -1.3043 -0.7643
   50MOL    C6211920   1.975   0.277   2.730  0.1018 -0.3406 -0.1770
   50MOL    C6311921   2.088   0.381   2.712 -0.9529  0.5688 -0.2880
   50MOL    O6411922   2.092   0.447   2.833  0.0405  0.0344  0.0819
   50MOL    C6511923   2.123   0.576   2.845  0.2491 -0.2059 -0.1494
   50MOL    C6611924   2.088   0.636   2.982 -0.3199 -0.0757  0.4575
   50MOL    O6711925   2.178   0.647   2.757  0.0530 -0.1785 -0.2006
   50MOL    H6811926   1.884   0.332   2.753 -0.5271 -0.1703 -2.8935
   50MOL    H6911927   1.992   0.217   2.819 -2.6141  1.4965  1.6694
   50MOL    H7011928   2.075   0.453   2.631  0.7684  1.1491 -0.0560
   50MOL    H7111929   2.159   0.716   2.999  0.3464 -0.6148  0.2280
   50MOL    H7211930   2.094   0.556   3.056 -0.1283 -1.2983 -0.8474
   50MOL    H7311931   1.994   0.690   2.970 -0.7901 -1.3802 -2.3527
   50MOL    C7411932   2.221   0.308   2.699  0.6134 -0.0780 -0.9479
   50MOL    C7511933   2.329   0.399   2.640 -0.0305 -0.2630  0.2466
   50MOL    O7611934   2.463   0.327   2.641 -0.0652 -0.4342  0.4666
   50MOL    C7711935   2.552   0.342   2.733  0.1782 -0.8357 -0.1183
   50MOL    C7811936   2.674   0.267   2.706 -0.7929  0.0664  0.2289
   50MOL    O7911937   2.539   0.414   2.835  0.3526  0.6472 -0.2902
   50MOL    H8011938   2.250   0.247   2.785 -3.1027  0.9824  1.1952
   50MOL    H8111939   2.212   0.222   2.633 -3.2530 -1.6157  1.3819
   50MOL    H8211940   2.345   0.488   2.700  0.1615 -0.2968  0.2453
   50MOL    H8311941   2.718   0.236   2.801 -0.0742  2.8252  0.8323
   50MOL    H8411942   2.749   0.335   2.666 -0.5489 -0.8139 -0.8239
   50MOL    H8511943   2.653   0.178   2.647  0.3001 -0.9692  1.3550
   50MOL    C8611944   2.298   0.435   2.490 -0.2956  0.3065  0.6754
   50MOL    C8711945   2.401   0.534   2.426 -0.0662 -0.6967  0.5604
   50MOL    O8811946   2.354   0.507   2.293 -0.1951 -0.9708 -0.1169
   50MOL    C8911947   2.440   0.502   2.189  0.6966 -0.0893  0.5252
   50MOL    C9011948   2.357   0.491   2.057  0.2609 -0.3636  0.0888
   50MOL    O9111949   2.559   0.510   2.188  0.6178  1.0195  0.2327
   50MOL    H9211950   2.309   0.344   2.430  0.1070  1.3470 -0.8462
   50MOL    H9311951   2.196   0.466   2.469  0.4966  1.0213 -2.2269
   50MOL    H9411952   2.503   0.505   2.453 -0.3459 -4.3469 -1.9905
   50MOL    H9511953   2.254   0.523   2.068  0.1852 -0.4775 -0.2739
   50MOL    H9611954   2.341   0.388   2.025  1.9324 -0.3118 -0.9771
   50MOL    H9711955   2.390   0.532   1.961 -1.7361  0.2334 -0.3554
   50MOL    C9811956   2.369   0.680   2.473  0.1031 -0.4443 -0.4806
   50MOL    C9911957   2.438   0.798   2.405  0.2025  0.2237  0.3007
   50MOL   O10011958   2.387   0.915   2.464 -0.2673 -0.6164 -0.2186
   50MOL   C10111959   2.299   0.989   2.395 -0.1870  0.2815 -0.5096
   50MOL   C10211960   2.289   1.116   2.479  0.0108 -0.1710 -0.1322
   50MOL   O10311961   2.247   0.970   2.288 -0.4301  0.2503  0.3192
   50MOL   H10411962   2.262   0.698   2.465 -0.1066 -1.5278 -0.2412
   50MOL   H10511963   2.388   0.687   2.580 -2.2772  0.3115 -0.0673
   50MOL   H10611964   2.411   0.788   2.300  1.0941 -1.8385  0.2574
   50MOL   H10711965   2.215   1.178   2.428 -1.1491 -2.6796 -1.5726
   50MOL   H10811966   2.386   1.166   2.484 -0.3550  0.7849 -2.3645
   50MOL   H10911967   2.258   1.113   2.584  0.9747  2.4558  0.2617
   50MOL   C11011968   2.593   0.811   2.426 -0.6204  0.0447 -0.1934
   50MOL   C11111969   2.655   0.905   2.313 -0.0035  0.6279 -0.6869
   50MOL   O11211970   2.793   0.938   2.354  0.2402  0.2580 -0.1418
   50MOL   C11311971   2.828   1.053   2.403  0.5017 -0.3880 -0.6562
   50MOL   C11411972   2.977   1.064   2.415  0.1942 -0.8083  0.2675
   50MOL   O11511973   2.752   1.144   2.441  0.5209 -0.7943  0.1895
   50MOL   H11611974   2.610   0.848   2.527  1.1538 -0.8589 -0.1352
   50MOL   H11711975   2.635   0.711   2.412  0.4734  0.6588 -1.4248
   50MOL   H11811976   2.593   0.995   2.308 -1.0844  0.0096  1.0005
   50MOL   H11911977   3.020   1.071   2.515 -0.5445  0.5492  0.5072
   50MOL   H12011978   3.014   1.155   2.368  2.1987 -1.4894  0.4762
   50MOL   H12111979   3.024   0.982   2.361  0.6647 -0.7390  0.5682
   50MOL   C12211980   2.680   0.844   2.171 -0.5426 -0.4062  0.6572
   50MOL   C12311981   2.747   0.948   2.076  0.1125 -0.5327  0.2883
   50MOL   O12411982   2.881   0.902   2.047 -0.3263  0.2166 -0.0902
   50MOL   C12511983   2.976   0.994   2.020 -0.1054  0.0087 -0.3238
   50MOL   C12611984   3.111   0.928   1.986  0.0708 -0.7411 -0.3500
   50MOL   O12711985   2.964   1.121   2.023 -0.0040  0.1850 -0.0029
   50MOL   H12811986   2.742   0.754   2.174 -0.3935 -0.3352 -0.2224
   50MOL   H12911987   2.582   0.807   2.142 -0.1283 -1.4102  0.5054
   50MOL   H13011988   2.748   1.046   2.125 -1.5856 -0.5087  0.2742
   50MOL   H13111989   3.164   0.879   2.068 -1.6435 -0.1512  1.1331
   50MOL   H13211990   3.183   0.997   1.942  0.7132 -0.7797  0.6212
   50MOL   H13311991   3.090   0.854   1.909  0.7421 -0.7965 -0.4825
   50MOL   C13411992   2.663   0.974   1.945  0.4628  0.0571 -0.0659
   50MOL   C13511993   2.554   1.079   1.963  0.0310  0.9480  0.5166
   50MOL   O13611994   2.611   1.202   2.021 -0.0407  0.2242  0.3938
   50MOL   C13711995   2.563   1.257   2.137  0.1474  0.3853  0.9730
   50MOL   C13811996   2.626   1.395   2.166  0.3372  0.1440  0.2567
   50MOL   O13911997   2.466   1.216   2.200 -0.0557  0.5012  0.0537
   50MOL   H14011998   2.737   1.022   1.880  0.6787  0.7890  0.7090
   50MOL   H14111999   2.647   0.875   1.901  1.4624 -0.1800  0.0857
   50MOL   H14212000   2.489   1.033   2.038  0.7278  0.3175  0.7341
   50MOL   H14312001   2.719   1.408   2.110 -0.7544  0.6276 -1.4655
   50MOL   H14412002   2.642   1.413   2.273 -0.0166  0.6577  0.2234
   50MOL   H14512003   2.556   1.470   2.133 -1.3350 -0.8290  1.5068
   50MOL   C14612004   2.469   1.117   1.841  0.5192 -0.2798 -0.0212
   50MOL   C14712005   2.388   1.004   1.779 -0.1588  0.4119  0.6491
   50MOL   O14812006   2.286   0.972   1.877  0.4751  0.2180  0.5624
   50MOL   C14912007   2.271   0.846   1.908  0.0650 -0.1412  0.1814
   50MOL   C15012008   2.152   0.810   2.004  0.0939  0.1809 -0.1188
   50MOL   O15112009   2.338   0.755   1.864 -0.3295 -0.2398  0.0685
   50MOL   H15212010   2.409   1.204   1.865 -0.5991  0.0643 -3.6952
   50MOL   H15312011   2.540   1.156   1.768  2.3661  1.6523  2.6890
   50MOL   H15412012   2.446   0.917   1.748 -1.3763 -0.6441  1.2180
   50MOL   H15512013   2.128   0.908   2.046  0.8653 -0.2421  1.3447
   50MOL   H15612014   2.186   0.745   2.085  0.0667  0.7084  0.3223
   50MOL   H15712015   2.059   0.775   1.959 -0.7482  0.2271  1.5545
   50MOL   C15812016   2.308   1.053   1.651  0.1238  0.1687 -0.1129
   50MOL   C15912017   2.380   1.001   1.523  0.0014 -0.1709 -0.0934
   50MOL   O16012018   2.367   0.856   1.517 -0.1953 -0.0398  0.1391
   50MOL   C16112019   2.479   0.787   1.481 -0.1363 -0.0009  1.3311
   50MOL   C16212020   2.443   0.641   1.466  0.7404  0.0276  0.3029
   50MOL   O16312021   2.595   0.823   1.480  0.1049 -0.0406  0.6652
   50MOL   H16412022   2.213   1.001   1.659 -0.4293  1.2642  0.5485
   50MOL   H16512023   2.280   1.158   1.645 -1.3106  0.0122  2.7668
   50MOL   H16612024   2.483   1.034   1.518 -0.0539 -0.2320 -2.2296
   50MOL   H16712025   2.526   0.580   1.502  0.5111  0.7272  2.0428
   50MOL   H16812026   2.404   0.613   1.368 -0.7448 -3.7810  1.8843
   50MOL   H16912027   2.354   0.616   1.524 -0.0648  0.0684 -0.8880
   50MOL   C17012028   2.308   1.062   1.400 -0.6950  0.2713  0.3713
   50MOL   C17112029   2.332   1.215   1.388  0.4908 -0.1829  0.0750
   50MOL   O17212030   2.469   1.243   1.371  0.4758 -0.3830 -0.1509
   50MOL   C17312031   2.540   1.305   1.474 -0.7547  0.9471 -0.0783
   50MOL   C17412032   2.668   1.354   1.419 -0.0020  0.0587 -0.1339
   50MOL   O17512033   2.504   1.304   1.595 -0.0856 -0.1204  0.3694
   50MOL   H17612034   2.359   1.026   1.311 -1.5291 -1.4930  0.5880
   50MOL   H17712035   2.201   1.045   1.406 -0.4073 -1.4463  0.8784
   50MOL   H17812036   2.299   1.274   1.474 -1.4575 -0.9996 -0.0782
   50MOL   H17912037   2.665   1.460   1.395  0.4189  0.5563  1.8710
   50MOL   H18012038   2.704   1.287   1.341  0.8477 -0.1787  0.4437
   50MOL   H18112039   2.737   1.341   1.503 -2.2343  0.8329  1.8993
   50MOL   C18212040   2.275   1.276   1.258  0.5275  0.2844 -0.2522
   50MOL   C18312041   2.269   1.429   1.267 -0.2319  0.5515 -0.3194
   50MOL   O18412042   2.260   1.465   1.131 -0.7736  0.2750  0.4717
   50MOL   C18512043   2.370   1.510   1.061  0.4777 -0.8341 -0.1955
   50MOL   C18612044   2.342   1.536   0.917  0.2231  0.0791  0.1977
   50MOL   O18712045   2.485   1.536   1.106 -0.3517 -0.2083  0.6320
   50MOL   H18812046   2.323   1.237   1.168 -1.0105  1.5638 -1.6726
   50MOL   H18912047   2.171   1.248   1.245  0.3184  0.9621 -0.0413
   50MOL   H19012048   2.365   1.460   1.307 -1.1504  0.4162  2.0912
   50MOL   H19112049   2.431   1.537   0.855  0.3830 -0.1896  0.4214
   50MOL   H19212050   2.277   1.622   0.900 -0.8962 -0.5993  0.9260
   50MOL   H19312051   2.277   1.454   0.887 -0.4277  0.2918  1.0060
   50MOL   C19412052   2.150   1.495   1.343  0.0326 -0.1750 -0.1346
   50MOL   C19512053   2.158   1.650   1.347 -0.3037 -0.2348  0.1717
   50MOL   O19612054   2.034   1.690   1.405 -0.2350  0.5494 -0.5727
   50MOL   C19712055   1.929   1.744   1.330 -0.0866 -0.0799 -0.9470
   50MOL   C19812056   1.803   1.761   1.421  0.0291  0.1586 -0.1464
   50MOL   O19912057   1.927   1.782   1.216 -0.1636 -0.1149  0.0837
   50MOL   H20012058   2.058   1.453   1.303 -0.4108  0.6807 -0.0102
   50MOL   H20112059   2.147   1.453   1.444  1.5532 -0.2166 -0.0935
   50MOL   H20212060   2.159   1.692   1.247 -0.8040  1.7282  0.9653
   50MOL   H20312061   1.750   1.675   1.463 -1.2386  1.6977  1.4851
   50MOL   H20412062   1.727   1.814   1.363 -1.3965 -0.6610  0.9139
   50MOL   H20512063   1.831   1.829   1.501 -0.1086  1.8882 -1.5476
   50MOL   C20612064   2.281   1.719   1.426  0.4691  0.9330 -0.5245
   50MOL   C20712065   2.256   1.873   1.410 -0.6457  0.0870 -0.2716
   50MOL   O20812066   2.203   1.928   1.531 -0.0855  0.1971  0.3547
   50MOL   C20912067   2.097   2.013   1.547  0.1230 -0.9010  0.0165
   50MOL   C21012068   2.075   2.050   1.690 -0.5058 -0.2235 -0.3179
   50MOL   O21112069   2.025   2.063   1.456 -0.0689  0.2247 -0.4795
   50MOL   H21212070   2.273   1.706   1.534  3.8410 -0.7533 -0.4070
   50MOL   H21312071   2.379   1.685   1.392 -0.4645 -1.5072 -0.8603
   50MOL   H21412072   2.190   1.889   1.325  1.1291 -0.3602 -1.7725
   50MOL   H21512073   1.994   2.120   1.711 -1.1898 -0.2375 -2.7925
   50MOL   H21612074   2.170   2.085   1.730 -1.7499  1.2013  1.4641
   50MOL   H21712075   2.053   1.956   1.740 -1.1168 -0.2233 -0.5806
   50MOL   C21812076   2.389   1.946   1.379  0.5728 -0.3473 -0.4561
   50MOL   C21912077   2.439   1.937   1.230 -0.4264 -0.3850  0.3266
   50MOL   O22012078   2.317   1.969   1.159 -0.3943  0.0477 -0.0228
   50MOL   C22112079   2.279   1.913   1.038 -0.2447 -0.8241 -0.2635
   50MOL   C22212080   2.131   1.937   1.002 -0.1403 -0.0583 -0.4541
   50MOL   O22312081   2.356   1.865   0.955  0.0981  0.0125 -0.1808
   50MOL   H22412082   2.371   2.053   1.392 -0.4378 -0.3713 -1.5834
   50MOL   H22512083   2.471   1.923   1.447 -1.3730  1.5292  2.6421
   50MOL   H22612084   2.468   1.835   1.204  0.9517  0.4871 -1.6806
   50MOL   H22712085   2.095   1.845   0.956 -1.2161  0.2037 -0.1500
   50MOL   H22812086   2.120   2.016   0.928 -1.9970 -0.3586 -0.5316
   50MOL   H22912087   2.075   1.955   1.094 -1.2543  2.4742 -1.5751
   50MOL   C23012088   2.551   2.038   1.193  0.0520 -0.1208 -0.4959
   50MOL   C23112089   2.679   1.993   1.259  0.0670 -0.5326 -0.8233
   50MOL   O23212090   2.733   1.881   1.196 -0.1726 -0.8359  0.3838
   50MOL   C23312091   2.791   1.889   1.081 -0.9371  0.0846  0.3289
   50MOL   C23412092   2.843   1.756   1.038 -0.0417 -0.5309  0.8308
   50MOL   O23512093   2.793   1.986   1.005  0.3400  0.5854  0.4013
   50MOL   H23612094   2.569   2.044   1.086 -0.5432  2.2950 -0.5003
   50MOL   H23712095   2.523   2.140   1.218  1.2511  0.5329 -1.7590
   50MOL   H23812096   2.670   1.965   1.364 -0.7260  0.2671 -0.6716
   50MOL   H23912097   2.764   1.682   1.048  2.1787 -2.7891  2.1407
   50MOL   H24012098   2.927   1.712   1.091 -1.8788 -2.8745  1.8840
   50MOL   H24112099   2.869   1.769   0.933 -0.8375  1.2347  0.8234
   50MOL   H24212100   2.742   2.082   1.260  1.1313 -1.2782  0.6009
   51MOL     C112101   0.117   6.967   0.043 -0.5669 -0.9606 -1.0555
   51MOL     C212102   0.016   6.892   7.992 -0.0227  0.5302 -0.2495
   51MOL     O312103   0.062   6.855   7.859  0.2252 -0.2758  0.4908
   51MOL     C412104   8.000   6.801   7.764  0.0488 -0.4725  0.2772
   51MOL     C512105   0.053   6.756   7.641 -0.0995  0.0259  0.2742
   51MOL     O612106   7.882   6.783   7.776  0.0987  0.1995  0.2875
   51MOL     H712107   0.175   7.044   8.013  0.7069 -0.6899  0.7227
   51MOL     H812108   0.196   6.898   0.075 -0.4704  1.1907  3.7994
   51MOL     H912109   7.947   6.950   7.973 -0.4620  0.1839  0.7466
   51MOL    H1012110   0.158   6.778   7.659  0.2908 -0.5847 -1.2001
   51MOL    H1112111   0.020   6.801   7.547  1.5636 -0.2427 -0.4611
   51MOL    H1212112   0.041   6.648   7.641 -0.2115  0.0384  0.6013
   51MOL    H1312113   0.084   7.000   0.142  1.7441 -2.4322  0.2494
   51MOL    C1412114   7.990   6.768   0.059  0.3628 -0.4524  0.0059
   51MOL    C1512115   0.083   6.662   0.083 -0.4504  1.0190 -1.6457
   51MOL    O1612116   0.016   6.562   0.166 -0.4179  0.6089  0.0557
   51MOL    C1712117   0.034   6.543   0.296  0.1488 -0.5314  0.2014
   51MOL    C1812118   7.973   6.434   0.361 -0.1978  0.9716  0.5995
   51MOL    O1912119   0.125   6.604   0.356  0.0494  0.8351  0.1100
   51MOL    H2012120   7.960   6.806   0.157 -0.4243 -2.2185  0.4629
   51MOL    H2112121   7.903   6.723   0.010 -0.0816  2.0855 -1.6092
   51MOL    H2212122   0.161   6.704   0.146 -1.4625 -0.2538  0.4816
   51MOL    H2312123   7.948   6.361   0.285  1.5505  0.3900  0.5739
   51MOL    H2412124   7.884   6.476   0.410 -1.1406  1.2830 -1.3258
   51MOL    H2512125   0.018   6.380   0.427  0.1314  0.8757  0.1903
   51MOL    C2612126   0.152   6.594   7.984  0.7022  0.3763  0.1343
   51MOL    C2712127   0.303   6.617   7.951 -0.0513 -0.2958 -0.1190
   51MOL    O2812128   0.370   6.583   0.047  0.8726 -0.2723 -0.6625
   51MOL    C2912129   0.444   6.671   0.119 -0.3425 -0.4274  0.2985
   51MOL    C3012130   0.497   6.601   0.243 -0.4446  0.1240 -0.7474
   51MOL    O3112131   0.474   6.789   0.087 -0.3359  0.6180  0.1499
   51MOL    H3212132   0.146   6.491   8.018 -2.3150  1.6566  3.8026
   51MOL    H3312133   0.092   6.599   7.893  0.9452 -0.4046 -0.0665
   51MOL    H3412134   0.314   6.722   7.922  0.7976 -0.3056  0.1415
   51MOL    H3512135   0.464   6.652   0.334  2.5647  0.7590  0.0316
   51MOL    H3612136   0.604   6.618   0.255 -0.1301 -1.2291 -1.4851
   51MOL    H3712137   0.487   6.493   0.254  3.5773 -0.2376  0.2383
   51MOL    C3812138   0.355   6.530   7.823 -0.3568  0.3142 -0.6946
   51MOL    C3912139   0.357   6.378   7.836 -0.4351  0.6189 -0.2418
   51MOL    O4012140   0.381   6.317   7.705  0.5669  0.1379 -0.0819
   51MOL    C4112141   0.324   6.200   7.670 -0.3946  0.5461  0.1368
   51MOL    C4212142   0.367   6.154   7.536  0.4738  0.1788 -0.8822
   51MOL    O4312143   0.251   6.132   7.740 -0.3496 -0.0336 -0.2408
   51MOL    H4412144   0.291   6.553   7.738 -1.0178 -0.9099 -0.5396
   51MOL    H4512145   0.451   6.568   7.788 -0.3637 -2.2151 -3.6419
   51MOL    H4612146   0.256   6.356   7.870 -0.4896  0.0062 -0.7808
   51MOL    H4712147   0.276   6.118   7.489 -2.1647  1.4559  2.9631
   51MOL    H4812148   0.436   6.070   7.546 -1.2927 -1.2236 -0.2935
   51MOL    H4912149   0.406   6.237   7.478 -1.5105  1.5009 -0.3904
   51MOL    C5012150   0.450   6.310   7.940 -0.4869  0.2121  0.4050
   51MOL    C5112151   0.391   6.260   0.050  0.3134 -0.7773 -0.3419
   51MOL    O5212152   0.299   6.157   0.019  0.4198  0.0790  0.7161
   51MOL    C5312153   0.169   6.170   0.069 -0.2862  0.0018  0.0218
   51MOL    C5412154   0.072   6.055   0.022 -0.2085 -1.0167  0.5618
   51MOL    O5512155   0.130   6.264   0.138  0.1400 -0.0483 -0.1448
   51MOL    H5612156   0.514   6.238   7.889 -0.1493  0.7213  0.1018
   51MOL    H5712157   0.515   6.392   7.972  2.4623 -1.5626 -0.8255
   51MOL    H5812158   0.340   6.343   0.099  0.3237  0.8524 -3.0335
   51MOL    H5912159   0.121   5.958   0.017 -0.3040 -1.0381 -0.0671
   51MOL    H6012160   0.018   6.077   7.951  1.7885 -0.2778 -0.4715
   51MOL    H6112161   0.006   6.047   0.108 -0.0343  2.4875  1.1153
   51MOL    C6212162   0.502   6.208   0.145  0.3514  0.0115  0.4563
   51MOL    C6312163   0.456   6.151   0.280  0.5254  0.0749 -0.5309
   51MOL    O6412164   0.563   6.076   0.341 -0.6398  0.1413 -0.4002
   51MOL    C6512165   0.568   5.940   0.349  0.7301 -0.4752 -0.6147
   51MOL    C6612166   0.706   5.897   0.388  0.4488 -0.0255  0.0251
   51MOL    O6712167   0.479   5.859   0.316 -0.1311 -0.0897 -0.2365
   51MOL    H6812168   0.560   6.137   0.087 -2.0780 -0.8387 -0.9794
   51MOL    H6912169   0.582   6.281   0.162  1.0664 -1.1563  2.2666
   51MOL    H7012170   0.374   6.082   0.260  1.5417 -1.4313  0.3934
   51MOL    H7112171   0.719   5.794   0.354 -1.9872 -0.3546 -0.0193
   51MOL    H7212172   0.719   5.900   0.496 -1.7169  1.1249  0.2805
   51MOL    H7312173   0.785   5.955   0.339 -0.4634  0.8337 -0.4571
   51MOL    C7412174   0.420   6.260   0.381  0.4372  0.1635 -1.0435
   51MOL    C7512175   0.341   6.225   0.518  0.2210 -0.5744  0.2688
   51MOL    O7612176   0.407   6.121   0.588 -0.0049 -0.2563 -0.1479
   51MOL    C7712177   0.355   6.024   0.661  0.3609  0.2777  0.1865
   51MOL    C7812178   0.459   5.947   0.743 -0.4103 -0.1730  0.3029
   51MOL    O7912179   0.232   6.018   0.678 -0.3335  0.1446 -0.5601
   51MOL    H8012180   0.501   6.325   0.412  1.0073 -1.0137 -0.0070
   51MOL    H8112181   0.351   6.327   0.331  0.4316  0.0198 -1.2292
   51MOL    H8212182   0.240   6.192   0.493  0.3073 -0.9297  0.3856
   51MOL    H8312183   0.549   6.002   0.771 -0.1706  0.6499 -1.9738
   51MOL    H8412184   0.479   5.861   0.679 -2.4544 -1.7061  1.6584
   51MOL    H8512185   0.415   5.921   0.839  1.7232  0.8091  1.5744
   51MOL    C8612186   0.341   6.352   0.612 -0.5112 -0.0496 -0.7855
   51MOL    C8712187   0.243   6.351   0.739  0.2075 -0.4780 -0.3063
   51MOL    O8812188   0.274   6.457   0.830 -0.2554 -0.0454 -0.2966
   51MOL    C8912189   0.354   6.431   0.927 -0.2845 -0.6558  0.2968
   51MOL    C9012190   0.360   6.537   1.025 -0.2145 -0.2256 -0.8437
   51MOL    O9112191   0.419   6.325   0.937  0.7972 -0.1113 -0.4747
   51MOL    H9212192   0.438   6.377   0.654 -0.5969 -1.9654  0.6256
   51MOL    H9312193   0.315   6.437   0.549 -1.7594  0.0660 -0.1291
   51MOL    H9412194   0.238   6.249   0.779 -1.3436 -0.4677 -0.4664
   51MOL    H9512195   0.465   6.568   1.032  0.6328 -2.9728 -0.7030
   51MOL    H9612196   0.347   6.504   1.129  1.9196  1.3838 -0.0175
   51MOL    H9712197   0.305   6.625   0.993  1.2306  0.5009 -1.3971
   51MOL    C9812198   0.096   6.368   0.699  0.4121  0.2005 -0.0856
   51MOL    C9912199   0.001   6.338   0.814  0.4249  0.0114 -0.3699
   51MOL   O10012200   7.896   6.399   0.780 -0.6692 -0.3217  0.3350
   51MOL   C10112201   7.826   6.463   0.876  0.0719 -0.2832  0.2827
   51MOL   C10212202   7.729   6.564   0.824  0.3376 -0.8184  0.5696
   51MOL   O10312203   7.841   6.444   0.996 -0.3410  0.2841  0.3109
   51MOL   H10412204   0.093   6.470   0.663 -1.9061 -0.1288 -0.9262
   51MOL   H10512205   0.063   6.301   0.619 -2.4500  0.8051  0.5393
   51MOL   H10612206   0.040   6.386   0.904 -2.5386  0.6245  0.6413
   51MOL   H10712207   7.722   6.556   0.716 -2.2769  1.2495  0.5262
   51MOL   H10812208   7.778   6.661   0.832 -1.1497 -0.0866  0.9868
   51MOL   H10912209   7.632   6.567   0.875 -1.3571 -0.0255 -2.6006
   51MOL   C11012210   7.998   6.187   0.848 -0.6544  0.2872 -0.2488
   51MOL   C11112211   0.044   6.148   0.982  0.1391 -0.4769  0.3616
   51MOL   O11212212   7.971   6.163   1.084 -0.0182 -0.0682 -0.3959
   51MOL   C11312213   7.999   6.242   1.190  0.4904  0.6427 -0.8103
   51MOL   C11412214   7.887   6.247   1.295  0.3439 -0.0235  0.0104
   51MOL   O11512215   0.081   6.316   1.195  0.0501  0.1689  0.5247
   51MOL   H11612216   7.894   6.160   0.867 -1.7701  3.7173 -0.9857
   51MOL   H11712217   8.018   6.123   0.763  1.7367  0.2301  0.3119
   51MOL   H11812218   0.128   6.217   0.996 -1.5304  1.1398  2.8296
   51MOL   H11912219   7.935   6.284   1.386 -0.2299  1.3738 -0.2423
   51MOL   H12012220   7.842   6.151   1.320  0.0946  0.1116  0.0746
   51MOL   H12112221   7.809   6.321   1.281 -0.1704 -0.8958 -1.7967
   51MOL   C12212222   0.092   6.008   0.990  0.8251  0.2520  0.2642
   51MOL   C12312223   0.167   5.966   1.114  0.0326  0.6177 -0.5081
   51MOL   O12412224   0.193   5.821   1.114 -0.2351  0.1586  0.2591
   51MOL   C12512225   0.121   5.732   1.186 -0.0373 -0.5931 -0.5048
   51MOL   C12612226   0.168   5.586   1.167 -0.1597 -0.8368  0.2844
   51MOL   O12712227   0.024   5.761   1.255  0.3298  0.5161  0.0474
   51MOL   H12812228   0.005   5.942   0.995  0.3977  0.4424 -3.2852
   51MOL   H12912229   0.143   5.986   0.895  1.0032  0.3454  0.3377
   51MOL   H13012230   0.095   5.984   1.194 -1.1729  0.3648 -1.5282
   51MOL   H13112231   0.270   5.574   1.206 -0.3163 -0.7147  0.7325
   51MOL   H13212232   0.163   5.550   1.064  2.2063  2.7250 -1.2157
   51MOL   H13312233   0.103   5.522   1.226 -2.3015  1.9839  1.0591
   51MOL   C13412234   0.304   6.039   1.118  0.2601  1.2046  0.8654
   51MOL   C13512235   0.378   6.023   1.243 -0.2626  1.1626 -0.4663
   51MOL   O13612236   0.467   6.134   1.273 -0.4731 -0.5886  0.2331
   51MOL   C13712237   0.594   6.130   1.232  0.7760 -0.2610 -0.0406
   51MOL   C13812238   0.649   6.266   1.216  0.1001  0.0163 -0.7368
   51MOL   O13912239   0.655   6.033   1.199  0.1556  0.0375 -0.7968
   51MOL   H14012240   0.357   6.012   1.027 -1.9268 -1.2714  0.2732
   51MOL   H14112241   0.300   6.147   1.102 -0.0441  1.1179  0.3530
   51MOL   H14212242   0.451   5.947   1.215 -0.7128  1.4788 -2.6316
   51MOL   H14312243   0.605   6.343   1.279  1.1241  0.7962 -0.9762
   51MOL   H14412244   0.633   6.299   1.113 -0.9744 -1.9358 -1.2443
   51MOL   H14512245   0.756   6.263   1.235 -0.4000  0.9466  2.5112
   51MOL   C14612246   0.300   5.995   1.375  0.4165  0.0621  0.2932
   51MOL   C14712247   0.381   5.978   1.513  0.0954 -0.1329  0.2546
   51MOL   O14812248   0.292   5.929   1.616  0.3551 -0.4504  0.5442
   51MOL   C14912249   0.258   6.006   1.725  0.0601 -0.6128 -0.6569
   51MOL   C15012250   0.154   5.935   1.806 -0.2092 -0.0945 -0.1682
   51MOL   O15112251   0.301   6.114   1.759  0.1089 -0.5663  0.0901
   51MOL   H15212252   0.234   6.078   1.402  3.2015  2.3720  0.3098
   51MOL   H15312253   0.237   5.908   1.360  0.3511  0.2588 -0.6593
   51MOL   H15412254   0.423   6.074   1.541  2.7416 -1.7104  1.9109
   51MOL   H15512255   0.082   5.883   1.743 -3.1902  0.4641  2.6522
   51MOL   H15612256   0.104   6.011   1.867 -1.1629 -0.0446 -0.9964
   51MOL   H15712257   0.206   5.873   1.878  0.0662 -0.2048 -0.4624
   51MOL   C15812258   0.493   5.876   1.502  1.0606  0.4519 -0.4554
   51MOL   C15912259   0.613   5.893   1.598 -0.1486 -0.1699  0.1657
   51MOL   O16012260   0.567   5.890   1.734 -0.1486 -0.0671 -0.1941
   51MOL   C16112261   0.638   5.971   1.823  0.5728  0.0970 -0.4193
   51MOL   C16212262   0.599   5.930   1.967  0.2373 -0.5239  0.6035
   51MOL   O16312263   0.727   6.052   1.801  0.2812  0.1103  0.1232
   51MOL   H16412264   0.449   5.778   1.519  0.3034  0.4883 -2.0775
   51MOL   H16512265   0.540   5.880   1.404 -0.2700  0.5656 -1.1088
   51MOL   H16612266   0.637   5.994   1.566 -0.4902  0.2129  1.0746
   51MOL   H16712267   0.685   5.954   2.030  0.0126 -3.6661  2.2459
   51MOL   H16812268   0.583   5.822   1.974  0.8096 -0.7726 -1.6081
   51MOL   H16912269   0.498   5.962   1.995 -0.0221 -1.6268  0.9422
   51MOL   C17012270   0.727   5.789   1.562 -1.3290 -0.2328 -0.8838
   51MOL   C17112271   0.842   5.844   1.467 -0.2585  0.2154 -0.2055
   51MOL   O17212272   0.925   5.914   1.555 -0.8187 -0.0904 -0.0460
   51MOL   C17312273   0.954   6.045   1.533 -0.4575 -0.0048  0.0613
   51MOL   C17412274   1.018   6.105   1.653 -0.1553 -0.3973  0.1908
   51MOL   O17512275   0.934   6.110   1.430 -0.0161  0.3673 -0.5897
   51MOL   H17612276   0.778   5.752   1.651 -3.1809 -0.5119  0.0994
   51MOL   H17712277   0.683   5.700   1.519 -0.5963 -0.4373 -1.2179
   51MOL   H17812278   0.797   5.922   1.406 -3.4385  1.6483  3.7423
   51MOL   H17912279   1.106   6.050   1.687 -0.6457 -1.6912 -0.5950
   51MOL   H18012280   0.968   6.111   1.750  0.3824 -0.5955  0.4831
   51MOL   H18112281   1.049   6.206   1.625  1.2280 -0.9887 -0.4762
   51MOL   C18212282   0.920   5.734   1.388 -0.4253  0.1807  0.2590
   51MOL   C18312283   1.018   5.798   1.283  0.6415 -0.9566  0.4730
   51MOL   O18412284   1.097   5.695   1.235  0.2521  0.0900  0.0409
   51MOL   C18512285   1.227   5.689   1.256 -0.2249  0.7786  0.2560
   51MOL   C18612286   1.296   5.583   1.172 -0.2314 -0.0612  0.5623
   51MOL   O18712287   1.293   5.740   1.348 -0.4030  0.1339  0.5494
   51MOL   H18812288   0.973   5.682   1.467  2.1051  3.2110  0.6673
   51MOL   H18912289   0.854   5.661   1.341  1.0729 -2.0669  1.5819
   51MOL   H19012290   1.080   5.875   1.329  0.3334 -0.1249 -0.4908
   51MOL   H19112291   1.355   5.511   1.228 -1.7123 -1.3996  0.4306
   51MOL   H19212292   1.364   5.631   1.101  0.6016  1.1234  2.1218
   51MOL   H19312293   1.223   5.528   1.112  0.2421 -2.0408  1.7730
   51MOL   C19412294   0.962   5.876   1.166  0.1351  0.6753  0.0961
   51MOL   C19512295   0.874   5.795   1.066  0.2309 -0.1986  0.0740
   51MOL   O19612296   0.762   5.751   1.133  0.1489  0.4487 -0.3165
   51MOL   C19712297   0.733   5.623   1.129 -0.3777 -0.0316 -0.7273
   51MOL   C19812298   0.601   5.598   1.181  0.7729  0.0730 -0.5872
   51MOL   O19912299   0.805   5.532   1.094  0.1307  0.3679  0.2158
   51MOL   H20012300   0.903   5.963   1.196 -0.3534  0.1561  0.6542
   51MOL   H20112301   1.045   5.924   1.115  1.1570  0.5230  1.6039
   51MOL   H20212302   0.938   5.713   1.032  0.3367 -1.0192  2.1356
   51MOL   H20312303   0.526   5.560   1.112 -2.0130  0.5194  2.0879
   51MOL   H20412304   0.553   5.683   1.229 -0.1574 -0.6574 -0.2086
   51MOL   H20512305   0.609   5.520   1.257  0.7261 -0.0095 -0.6661
   51MOL   C20612306   0.819   5.879   0.947  0.3403 -0.0340  0.1340
   51MOL   C20712307   0.923   5.915   0.842 -0.3317  0.5395 -0.4682
   51MOL   O20812308   0.992   5.806   0.777 -0.3952 -0.6807  0.8020
   51MOL   C20912309   0.923   5.722   0.693 -0.1837 -0.4215  0.0169
   51MOL   C21012310   1.023   5.621   0.645  0.0999  0.6966 -0.3522
   51MOL   O21112311   0.802   5.723   0.660 -0.0141  0.8034  0.3412
   51MOL   H21212312   0.750   5.817   0.889 -0.1470 -2.5448  3.2471
   51MOL   H21312313   0.767   5.962   0.994 -1.0992 -0.8050 -0.0576
   51MOL   H21412314   1.009   5.962   0.890 -0.3762  0.8983 -0.7414
   51MOL   H21512315   1.024   5.536   0.713  0.7666  0.3122 -0.8377
   51MOL   H21612316   1.127   5.652   0.634  0.6167 -0.6737  0.4809
   51MOL   H21712317   0.991   5.584   0.548 -0.9473  1.1288 -0.1787
   51MOL   C21812318   0.867   6.027   0.746 -0.0811 -0.3574 -0.0404
   51MOL   C21912319   0.961   6.103   0.649 -0.2744  0.2360  0.0928
   51MOL   O22012320   1.014   6.005   0.557  0.7025 -0.0525  0.3312
   51MOL   C22112321   1.140   6.010   0.512 -0.7576 -0.2909 -0.0123
   51MOL   C22212322   1.173   5.901   0.410 -0.2042 -0.3758 -0.1906
   51MOL   O22312323   1.226   6.087   0.558  0.0435  0.3850  0.3594
   51MOL   H22412324   0.789   5.994   0.678  0.5347 -0.4309 -0.7200
   51MOL   H22512325   0.822   6.096   0.818  0.0999  1.6626 -1.8138
   51MOL   H22612326   1.035   6.151   0.714 -0.4138 -0.4301  0.7502
   51MOL   H22712327   1.267   5.850   0.430 -1.0546 -0.7545  3.1059
   51MOL   H22812328   1.180   5.947   0.311  0.4304  0.1775  0.1105
   51MOL   H22912329   1.084   5.838   0.409 -0.8793  0.5414  0.5910
   51MOL   C23012330   0.880   6.207   0.580 -0.1720 -0.5313  0.2119
   51MOL   C23112331   0.791   6.297   0.664 -0.2385 -0.5069  0.1954
   51MOL   O23212332   0.721   6.411   0.602 -0.8954 -0.8834 -0.3266
   51MOL   C23312333   0.678   6.505   0.681 -0.0958 -0.2665  0.4381
   51MOL   C23412334   0.615   6.620   0.602  0.0667 -0.1720 -1.0192
   51MOL   O23512335   0.672   6.503   0.800  0.5560 -0.6623  0.2047
   51MOL   H23612336   0.954   6.267   0.527  0.6334 -1.3466  0.3977
   51MOL   H23712337   0.820   6.151   0.509  0.8040 -0.1312 -0.9504
   51MOL   H23812338   0.851   6.344   0.742 -1.0032  0.5495  0.1653
   51MOL   H23912339   0.586   6.709   0.659  0.4909 -0.1897 -0.7670
   51MOL   H24012340   0.542   6.573   0.538  0.2764  0.1485 -1.4951
   51MOL   H24112341   0.695   6.661   0.540 -1.9307 -0.5128 -3.9016
   51MOL   H24212342   0.709   6.242   0.710  0.0127 -1.0556 -0.0181
   52MOL     C112343   5.372   2.649   6.404 -0.4981  0.0125  0.2640
   52MOL     C212344   5.299   2.741   6.309 -0.2307  0.0148 -0.5275
   52MOL     O312345   5.159   2.747   6.339 -0.5065  0.5150  0.0293
   52MOL     C412346   5.065   2.679   6.270 -0.4270 -0.3309  0.0311
   52MOL     C512347   4.920   2.699   6.322 -0.4303 -0.5178  0.5018
   52MOL     O612348   5.085   2.614   6.165  0.4436  0.1645  0.4070
   52MOL     H712349   5.316   2.556   6.405 -0.8998  0.2188 -1.5407
   52MOL     H812350   5.360   2.691   6.504 -0.2123  1.2685 -0.2164
   52MOL     H912351   5.316   2.712   6.205 -1.8298  0.2865 -0.8820
   52MOL    H1012352   4.892   2.799   6.353 -1.6501  0.1002 -2.4053
   52MOL    H1112353   4.895   2.635   6.407  0.1960 -0.5735  0.6464
   52MOL    H1212354   4.848   2.677   6.243 -0.0444  0.8732 -0.2400
   52MOL    H1312355   5.475   2.633   6.371 -0.1630  0.9691  0.8237
   52MOL    C1412356   5.363   2.884   6.318 -0.3550 -0.1276 -0.5837
   52MOL    C1512357   5.281   2.997   6.241 -0.2108 -0.4262  0.3477
   52MOL    O1612358   5.330   3.122   6.301 -0.5322  0.3912  0.6588
   52MOL    C1712359   5.255   3.191   6.388 -0.0340  0.1096  0.0946
   52MOL    C1812360   5.313   3.316   6.442 -0.4066 -1.0892  0.0658
   52MOL    O1912361   5.145   3.155   6.428 -0.1988 -0.2999 -0.0781
   52MOL    H2012362   5.351   2.914   6.422  0.0418  0.4958 -0.7135
   52MOL    H2112363   5.469   2.878   6.295  0.1432  0.9705  1.3379
   52MOL    H2212364   5.174   2.984   6.255 -0.4330  1.2703  0.3293
   52MOL    H2312365   5.306   3.311   6.551 -3.1141  0.0919 -0.0100
   52MOL    H2412366   5.251   3.398   6.405 -2.2267 -2.2676  0.4387
   52MOL    H2512367   5.417   3.329   6.412 -0.9271 -0.6491 -1.5863
   52MOL    C2612368   5.290   2.989   6.087  0.5759 -0.0941  0.1121
   52MOL    C2712369   5.243   3.122   6.015  0.1700 -0.2550 -0.3245
   52MOL    O2812370   5.336   3.225   6.021 -0.5065  0.0716 -0.3846
   52MOL    C2912371   5.310   3.345   6.071 -0.6759 -0.3416 -0.0579
   52MOL    C3012372   5.441   3.438   6.083 -0.1600  0.4974 -0.7932
   52MOL    O3112373   5.203   3.389   6.088  0.6900  0.4476  0.1964
   52MOL    H3212374   5.398   2.993   6.072  1.2259  2.9653  4.5872
   52MOL    H3312375   5.245   2.900   6.043 -0.3398  0.0152  0.8111
   52MOL    H3412376   5.154   3.156   6.068 -0.8156 -0.3273 -1.9243
   52MOL    H3512377   5.466   3.492   5.991 -1.7073  1.6052 -0.5851
   52MOL    H3612378   5.531   3.385   6.114 -0.4815  0.3650 -0.0693
   52MOL    H3712379   5.430   3.517   6.158  0.0678 -0.5786  0.3855
   52MOL    C3812380   5.225   3.101   5.864 -0.5971 -0.0032  0.0589
   52MOL    C3912381   5.112   3.003   5.824 -0.1024  0.5603  0.5517
   52MOL    O4012382   4.990   3.057   5.883  0.0083 -0.3782 -0.3805
   52MOL    C4112383   4.931   2.987   5.981  0.7291 -0.4727  0.7040
   52MOL    C4212384   4.819   3.065   6.036  0.4067  0.0243  0.1697
   52MOL    O4312385   4.967   2.880   6.027  0.1082  0.7568  0.1750
   52MOL    H4412386   5.211   3.197   5.814  0.4116  0.0736 -0.0789
   52MOL    H4512387   5.314   3.053   5.825 -1.5351 -0.1045 -2.0317
   52MOL    H4612388   5.135   2.907   5.869  1.1610  0.6681  0.1546
   52MOL    H4712389   4.845   3.126   6.123 -0.8631 -1.8303  1.8961
   52MOL    H4812390   4.745   2.994   6.071  1.3622 -1.0699 -0.0127
   52MOL    H4912391   4.782   3.142   5.968 -0.0029 -1.1739 -0.9718
   52MOL    C5012392   5.076   2.992   5.672 -0.0304 -0.4096 -0.0837
   52MOL    C5112393   5.188   2.924   5.591  0.4695  0.3665  0.2014
   52MOL    O5212394   5.211   2.791   5.642 -0.7684 -0.2109  0.2975
   52MOL    C5312395   5.340   2.750   5.676  0.4781 -0.7565 -0.2167
   52MOL    C5412396   5.333   2.618   5.744 -0.4113  0.1039  0.5440
   52MOL    O5512397   5.448   2.812   5.663 -0.1193  0.2830 -0.4294
   52MOL    H5612398   4.991   2.925   5.665  0.7116 -1.2271 -1.7192
   52MOL    H5712399   5.046   3.082   5.618  0.9771  0.9700  1.6200
   52MOL    H5812400   5.279   2.984   5.600  0.2355  0.7606 -0.0573
   52MOL    H5912401   5.385   2.543   5.685  0.2063  0.4132  0.6902
   52MOL    H6012402   5.227   2.598   5.763 -0.8821  2.3914  0.4655
   52MOL    H6112403   5.379   2.630   5.842  2.1469 -0.0915 -0.6016
   52MOL    C6212404   5.144   2.901   5.441 -0.2208  0.1802 -0.3827
   52MOL    C6312405   5.162   3.025   5.344 -0.1747  0.0617 -0.0208
   52MOL    O6412406   5.301   3.038   5.329  0.1367 -0.3457  0.2041
   52MOL    C6512407   5.377   3.131   5.382 -0.1337  0.0540 -0.2417
   52MOL    C6612408   5.515   3.136   5.321 -1.1604 -0.6899 -0.2107
   52MOL    O6712409   5.341   3.220   5.458  0.1477  0.6937  0.4031
   52MOL    H6812410   5.192   2.818   5.387  0.7357 -0.7724  1.8686
   52MOL    H6912411   5.041   2.866   5.447 -0.2233  0.4319  1.2075
   52MOL    H7012412   5.119   3.115   5.389  1.6579  0.9544  0.0227
   52MOL    H7112413   5.578   3.202   5.380  0.0266 -3.6717  1.9756
   52MOL    H7212414   5.506   3.173   5.219  0.2864  0.8474  0.1958
   52MOL    H7312415   5.561   3.037   5.321  0.9875  0.2612  2.3738
   52MOL    C7412416   5.092   2.989   5.209 -0.3010 -0.8664 -0.9436
   52MOL    C7512417   4.939   2.972   5.215 -0.3010  0.3196 -0.8942
   52MOL    O7612418   4.881   3.098   5.229 -0.2292  0.9592  0.6091
   52MOL    C7712419   4.848   3.150   5.345  0.5949 -0.2921 -0.9337
   52MOL    C7812420   4.795   3.294   5.326 -0.1947 -0.2696 -0.3095
   52MOL    O7912421   4.839   3.086   5.452  0.1412  0.1481  0.0791
   52MOL    H8012422   5.120   3.059   5.130  2.8907  1.1091  1.7947
   52MOL    H8112423   5.131   2.898   5.162  3.1322  0.2764 -0.4373
   52MOL    H8212424   4.905   2.906   5.296  0.1440  1.5645  0.3113
   52MOL    H8312425   4.806   3.318   5.221 -1.7374  2.0499  0.0248
   52MOL    H8412426   4.856   3.361   5.387 -0.0862  0.0963 -0.8154
   52MOL    H8512427   4.692   3.290   5.361  0.1922 -0.3726  0.8530
   52MOL    C8612428   4.877   2.921   5.087 -0.2695  0.1550  0.4914
   52MOL    C8712429   4.910   2.778   5.049 -0.1714 -0.3931 -0.6619
   52MOL    O8812430   4.837   2.674   5.118  0.3013  0.2532 -0.1508
   52MOL    C8912431   4.901   2.598   5.205 -0.3698 -0.7068  0.0611
   52MOL    C9012432   4.835   2.465   5.240 -0.1889 -0.6166 -0.3347
   52MOL    O9112433   5.012   2.626   5.246  0.0459 -0.0393 -0.7692
   52MOL    H9212434   4.769   2.936   5.084 -0.1697  0.8115 -0.1458
   52MOL    H9312435   4.908   2.982   5.002 -1.1857 -2.2241 -1.6251
   52MOL    H9412436   5.018   2.766   5.046 -0.1907 -0.0740 -3.3520
   52MOL    H9512437   4.735   2.495   5.272  0.0485  0.8886 -0.9605
   52MOL    H9612438   4.880   2.428   5.332 -2.7994 -0.5117  1.0121
   52MOL    H9712439   4.842   2.393   5.159 -1.6125  1.0360 -1.9872
   52MOL    C9812440   4.880   2.750   4.899 -1.0256  0.2112  0.3633
   52MOL    C9912441   4.901   2.604   4.852 -0.0417 -0.1210  0.2517
   52MOL   O10012442   4.854   2.605   4.712  0.3790 -0.0799 -0.4759
   52MOL   C10112443   4.728   2.604   4.666 -1.0305  0.1780  0.0492
   52MOL   C10212444   4.720   2.651   4.520  0.6861 -0.0950 -0.1625
   52MOL   O10312445   4.628   2.592   4.738  0.7972 -0.0753 -0.3652
   52MOL   H10412446   4.776   2.782   4.886 -0.9581 -0.3813 -1.9238
   52MOL   H10512447   4.927   2.824   4.834 -0.7109  0.6273  1.0554
   52MOL   H10612448   4.845   2.526   4.903  1.0120 -1.6779 -0.9188
   52MOL   H10712449   4.615   2.661   4.492  0.4642  1.1065  1.0340
   52MOL   H10812450   4.766   2.567   4.468 -1.1968  0.5955 -3.0552
   52MOL   H10912451   4.781   2.736   4.489 -1.0023  1.5855  1.0205
   52MOL   C11012452   5.050   2.558   4.856  0.0861 -0.8427  0.9918
   52MOL   C11112453   5.076   2.414   4.829  0.1136  0.3519 -0.8166
   52MOL   O11212454   5.070   2.381   4.690 -0.0325  0.0558 -0.2205
   52MOL   C11312455   4.988   2.292   4.640 -0.6997  0.3144 -0.0466
   52MOL   C11412456   5.015   2.285   4.489 -0.3346 -0.5963 -0.1414
   52MOL   O11512457   4.896   2.226   4.694  0.0244 -0.0917  0.4114
   52MOL   H11612458   5.105   2.630   4.796 -0.1358 -0.3834  1.3340
   52MOL   H11712459   5.088   2.576   4.956  1.3360  1.4067  0.1310
   52MOL   H11812460   5.009   2.355   4.891  0.7999  0.9614  0.5341
   52MOL   H11912461   5.065   2.378   4.460 -0.2237 -0.2585  1.0892
   52MOL   H12012462   4.927   2.279   4.425 -0.5657 -1.0279  0.2154
   52MOL   H12112463   5.082   2.202   4.468  1.3415  1.2522 -2.4165
   52MOL   C12212464   5.214   2.373   4.876  0.0079 -0.1603  0.4397
   52MOL   C12312465   5.215   2.334   5.023 -0.2953 -0.3629 -0.4174
   52MOL   O12412466   5.172   2.195   5.036 -0.3750  0.1748  0.3947
   52MOL   C12512467   5.076   2.170   5.122  0.0805  0.1162  0.1601
   52MOL   C12612468   5.008   2.036   5.099  0.7315  0.2867 -0.9646
   52MOL   O12712469   5.050   2.245   5.216  0.3624  0.4919  0.2838
   52MOL   H12812470   5.243   2.287   4.816  2.0880  1.4451 -0.9011
   52MOL   H12912471   5.285   2.445   4.838  0.8504 -0.4368  1.4670
   52MOL   H13012472   5.149   2.409   5.066 -0.1790 -0.8076  0.5420
   52MOL   H13112473   4.965   2.028   5.000 -2.4428  1.1619  0.2708
   52MOL   H13212474   4.928   2.014   5.170 -0.7515  2.4023 -1.8941
   52MOL   H13312475   5.081   1.957   5.110  0.1114 -0.1206  0.3302
   52MOL   C13412476   5.353   2.359   5.084  0.0632  0.3816  0.3184
   52MOL   C13512477   5.371   2.492   5.164  0.1737  0.2718  0.5602
   52MOL   O13612478   5.337   2.603   5.079 -0.0559  0.2551  0.4711
   52MOL   C13712479   5.389   2.725   5.089 -0.6094 -0.0781  0.3071
   52MOL   C13812480   5.340   2.809   4.973 -0.2124 -0.3672 -1.0428
   52MOL   O13912481   5.454   2.772   5.179  0.2092 -0.2270 -0.0583
   52MOL   H14012482   5.372   2.267   5.139 -2.2542 -0.4644 -0.2319
   52MOL   H14112483   5.435   2.358   5.012  1.1224 -0.7927  1.5362
   52MOL   H14212484   5.476   2.503   5.192  0.0643 -2.9203  2.4662
   52MOL   H14312485   5.377   2.775   4.877 -1.0693 -0.6170 -1.2835
   52MOL   H14412486   5.369   2.913   4.992 -0.2426 -0.4404 -0.5754
   52MOL   H14512487   5.233   2.806   4.992  0.3125  0.7201  2.4890
   52MOL   C14612488   5.285   2.503   5.282  0.9506  0.1364  0.4052
   52MOL   C14712489   5.330   2.403   5.387  0.1982 -0.0281 -0.6049
   52MOL   O14812490   5.439   2.466   5.457  0.4322 -0.1654  0.4388
   52MOL   C14912491   5.563   2.416   5.458 -0.0535 -1.2340  0.0232
   52MOL   C15012492   5.647   2.499   5.560  0.6229 -0.7846  0.6972
   52MOL   O15112493   5.612   2.323   5.397  0.0742  0.1194 -0.2872
   52MOL   H15212494   5.278   2.604   5.325 -0.9902 -0.6355  2.0226
   52MOL   H15312495   5.182   2.470   5.263  0.7028  0.4191  1.2250
   52MOL   H15412496   5.371   2.313   5.341  1.2134 -0.7114  1.6079
   52MOL   H15512497   5.633   2.603   5.530 -0.8466 -1.4156 -0.9019
   52MOL   H15612498   5.753   2.477   5.543  1.0188  1.6827 -0.2139
   52MOL   H15712499   5.614   2.473   5.660  0.8922  0.0822  1.0121
   52MOL   C15812500   5.211   2.381   5.487 -0.0116 -0.0843 -0.4414
   52MOL   C15912501   5.243   2.261   5.580  0.1942 -0.4757  0.1268
   52MOL   O16012502   5.141   2.285   5.681 -0.0884  0.5845 -0.0994
   52MOL   C16112503   5.168   2.304   5.806 -0.5341 -0.1590 -0.7166
   52MOL   C16212504   5.043   2.341   5.883  0.2507 -0.2444  0.3268
   52MOL   O16312505   5.279   2.297   5.858 -0.5249  0.2266  0.2766
   52MOL   H16412506   5.178   2.476   5.527 -0.9214 -1.7411  2.8881
   52MOL   H16512507   5.118   2.360   5.434 -0.4560 -2.6565  1.2474
   52MOL   H16612508   5.343   2.271   5.623  0.4147  0.1397 -0.5114
   52MOL   H16712509   4.962   2.278   5.847  0.4771 -1.8399  2.4902
   52MOL   H16812510   5.022   2.447   5.872  1.5203 -0.0118  0.0252
   52MOL   H16912511   5.065   2.337   5.989  0.0585 -2.6911  0.3032
   52MOL   C17012512   5.220   2.124   5.528  0.0679  0.4750  0.6622
   52MOL   C17112513   5.350   2.030   5.510  0.2554 -0.1531  0.1395
   52MOL   O17212514   5.428   2.076   5.399  0.9907 -0.0731  0.2570
   52MOL   C17312515   5.419   2.028   5.275  0.0524  1.2475  0.4605
   52MOL   C17412516   5.526   2.085   5.182  0.1817 -0.2114  0.4737
   52MOL   O17512517   5.328   1.966   5.222  0.0867 -0.6863 -0.1615
   52MOL   H17612518   5.153   2.064   5.589 -0.6426  0.6856  0.1097
   52MOL   H17712519   5.158   2.131   5.438  0.9199  0.9052  0.1061
   52MOL   H17812520   5.316   1.928   5.493  3.3726 -1.0864 -0.8687
   52MOL   H17912521   5.495   2.096   5.078 -0.5436  1.4203  0.8487
   52MOL   H18012522   5.602   2.007   5.186 -0.5482 -0.9932 -0.9105
   52MOL   H18112523   5.577   2.177   5.211  2.0796 -0.0841 -2.9492
   52MOL   C18212524   5.442   2.014   5.634  0.8091  1.0150  0.1378
   52MOL   C18312525   5.537   1.892   5.634 -0.4163 -0.0996  1.0554
   52MOL   O18412526   5.626   1.888   5.522 -0.1328 -0.4228 -0.0542
   52MOL   C18512527   5.606   1.795   5.420 -0.0134 -0.2632 -0.2023
   52MOL   C18612528   5.724   1.784   5.330  0.4477 -0.4328  0.3850
   52MOL   O18712529   5.509   1.725   5.406  0.2653  0.1794  0.6248
   52MOL   H18812530   5.500   2.104   5.659  1.4795  1.0815 -1.5662
   52MOL   H18912531   5.367   2.004   5.712 -2.8650 -0.0346 -3.3982
   52MOL   H19012532   5.474   1.804   5.650 -2.5500  0.6617 -2.4228
   52MOL   H19112533   5.715   1.823   5.228  1.8452 -3.4760 -0.9842
   52MOL   H19212534   5.745   1.680   5.305 -0.5781 -0.7316  0.7352
   52MOL   H19312535   5.812   1.833   5.374  1.3277 -1.0559 -0.6515
   52MOL   C19412536   5.635   1.897   5.739  0.9075 -0.2642 -0.2133
   52MOL   C19512537   5.720   1.767   5.747  0.0303 -0.6968  0.0750
   52MOL   O19612538   5.835   1.799   5.823 -0.5069 -0.2053 -0.5332
   52MOL   C19712539   5.958   1.811   5.766 -0.6389 -0.7495  0.2293
   52MOL   C19812540   6.055   1.888   5.856  0.1451  0.8189  0.2737
   52MOL   O19912541   5.994   1.767   5.658 -0.7197 -1.0155  0.4795
   52MOL   H20012542   5.693   1.987   5.721 -1.5599  1.9666  2.4483
   52MOL   H20112543   5.585   1.910   5.835 -1.8281 -2.1215 -1.3038
   52MOL   H20212544   5.749   1.734   5.647  1.3797  1.4195 -0.2663
   52MOL   H20312545   6.144   1.924   5.804  1.9991 -1.5635  1.6472
   52MOL   H20412546   6.083   1.829   5.943 -0.6043 -0.9668 -0.6637
   52MOL   H20512547   6.014   1.978   5.901  1.2880  0.8086  1.3807
   52MOL   C20612548   5.639   1.648   5.811 -0.5566 -0.5531 -0.4116
   52MOL   C20712549   5.661   1.511   5.744 -0.2247  0.9942  0.6397
   52MOL   O20812550   5.799   1.472   5.740  0.3255  0.5463  0.5791
   52MOL   C20912551   5.843   1.382   5.640 -0.4745  0.8595 -0.5067
   52MOL   C21012552   5.997   1.378   5.631  0.6341 -0.2271  0.3381
   52MOL   O21112553   5.773   1.318   5.560 -0.1348 -0.6032 -0.1219
   52MOL   H21212554   5.671   1.638   5.915  0.2249  1.3262 -0.4537
   52MOL   H21312555   5.536   1.679   5.825 -0.0326  1.7189 -1.3697
   52MOL   H21412556   5.631   1.520   5.640 -1.2779 -1.4987  0.6914
   52MOL   H21512557   6.032   1.452   5.703  1.3646 -0.5992  0.3608
   52MOL   H21612558   6.035   1.396   5.531 -0.2616  0.7882  0.1582
   52MOL   H21712559   6.044   1.282   5.652  0.9729 -0.1940 -0.2551
   52MOL   C21812560   5.590   1.391   5.813 -0.0745  0.1154 -0.4840
   52MOL   C21912561   5.440   1.394   5.803  0.4013 -0.4929  0.1383
   52MOL   O22012562   5.392   1.386   5.667 -0.4202 -0.1276  0.2708
   52MOL   C22112563   5.330   1.490   5.610 -0.0208  0.0328 -0.1928
   52MOL   C22212564   5.289   1.477   5.468 -0.1893 -0.4135 -0.3356
   52MOL   O22312565   5.314   1.596   5.668  0.5017 -0.1661 -0.1875
   52MOL   H22412566   5.625   1.300   5.765  1.8727  0.2571  0.6388
   52MOL   H22512567   5.625   1.400   5.915 -1.0655  0.5727 -0.1785
   52MOL   H22612568   5.402   1.483   5.851 -0.3594  0.2624 -1.8091
   52MOL   H22712569   5.345   1.393   5.426 -2.5029 -2.0831 -0.2205
   52MOL   H22812570   5.328   1.558   5.407  0.6631 -0.4580  0.1351
   52MOL   H22912571   5.182   1.458   5.463  0.1125 -1.8874 -1.6917
   52MOL   C23012572   5.379   1.266   5.874 -0.0003 -0.5479  1.3266
   52MOL   C23112573   5.220   1.269   5.891  0.1515 -0.3336  0.3790
   52MOL   O23212574   5.194   1.180   6.001  0.5574  0.5346  0.2518
   52MOL   C23312575   5.180   1.048   5.986  0.4281 -0.2477  0.1630
   52MOL   C23412576   5.179   0.974   6.121  0.0468 -0.1095 -0.3028
   52MOL   O23512577   5.172   0.991   5.879 -0.4058  0.8855  0.3698
   52MOL   H23612578   5.413   1.190   5.804 -2.0773  0.0277 -0.3749
   52MOL   H23712579   5.430   1.262   5.970  3.9743  4.7426 -0.3458
   52MOL   H23812580   5.168   1.230   5.803 -1.0650 -0.6671  1.2336
   52MOL   H23912581   5.274   0.974   6.174 -1.0043 -0.6852  1.6321
   52MOL   H24012582   5.140   0.872   6.112 -1.4620  0.3750  0.6214
   52MOL   H24112583   5.109   1.029   6.183  0.6085 -0.3390  0.5472
   52MOL   H24212584   5.179   1.368   5.911 -1.7542 -1.0120 -0.0409
   53MOL     C112585   1.788   0.982   1.980 -0.4053 -0.2820 -0.7354
   53MOL     C212586   1.751   0.999   2.131 -0.1598  0.1996  0.4509
   53MOL     O312587   1.716   0.868   2.171 -0.2694 -0.3557  0.2743
   53MOL     C412588   1.597   0.854   2.236  0.4666 -0.0343 -0.1163
   53MOL     C512589   1.570   0.707   2.259 -0.5160 -0.7005  0.2675
   53MOL     O612590   1.518   0.941   2.272  0.0575 -0.4652 -0.4117
   53MOL     H712591   1.724   0.925   1.913 -1.0057  0.1591 -0.5471
   53MOL     H812592   1.886   0.936   1.970  0.4039  0.8176  1.7139
   53MOL     H912593   1.673   1.073   2.148 -0.6436  0.2088 -1.6591
   53MOL    H1012594   1.488   0.702   2.330  0.4806 -0.5517  1.4413
   53MOL    H1112595   1.661   0.663   2.302 -0.4739 -1.4122 -0.5413
   53MOL    H1212596   1.531   0.667   2.165 -0.7257  3.4936 -1.5349
   53MOL    H1312597   1.788   1.084   1.944 -1.1629  0.4928  1.3624
   53MOL    C1412598   1.867   1.041   2.212  0.1606  0.2574  0.2231
   53MOL    C1512599   1.840   1.070   2.367  0.5759  0.5063  0.3591
   53MOL    O1612600   1.943   1.014   2.446 -0.2214 -0.0620 -0.4113
   53MOL    C1712601   1.932   0.883   2.487  0.0826  1.1838  0.2933
   53MOL    C1812602   2.039   0.841   2.586  0.7402 -0.6449 -0.3371
   53MOL    O1912603   1.831   0.814   2.472  0.3606  0.4502 -0.8325
   53MOL    H2012604   1.936   0.957   2.202  0.5076  0.4962  0.6339
   53MOL    H2112605   1.899   1.131   2.160 -0.8349  0.1041 -0.6815
   53MOL    H2212606   1.747   1.021   2.393 -0.1360  1.0883 -1.0131
   53MOL    H2312607   2.133   0.896   2.574  0.0670  0.7203  0.4745
   53MOL    H2412608   2.068   0.737   2.572 -1.8986 -1.4353 -0.1585
   53MOL    H2512609   1.995   0.857   2.685  2.5907 -0.5958  0.5178
   53MOL    C2612610   1.841   1.211   2.402 -0.7073 -0.5497 -0.6099
   53MOL    C2712611   1.735   1.293   2.334  0.2451 -0.1599 -0.5147
   53MOL    O2812612   1.600   1.266   2.385  0.2257  0.4706 -0.3758
   53MOL    C2912613   1.499   1.263   2.307 -1.0294  0.2612  0.6544
   53MOL    C3012614   1.368   1.273   2.380  0.2653 -0.1860 -0.2720
   53MOL    O3112615   1.506   1.277   2.184 -0.4676 -0.2764 -0.2936
   53MOL    H3212616   1.829   1.229   2.508  0.9229  0.6470 -0.6064
   53MOL    H3312617   1.940   1.249   2.375 -1.3640  0.9566 -0.9869
   53MOL    H3412618   1.735   1.265   2.229 -0.4094 -1.2955 -0.2272
   53MOL    H3512619   1.341   1.378   2.367  1.9516  0.5642  1.9556
   53MOL    H3612620   1.379   1.267   2.488  0.1724  0.0093 -0.2509
   53MOL    H3712621   1.304   1.202   2.327  2.2364 -1.4515 -0.9959
   53MOL    C3812622   1.772   1.439   2.358  0.4640 -0.4057  0.6020
   53MOL    C3912623   1.710   1.535   2.252 -0.5938 -0.5957  0.4277
   53MOL    O4012624   1.723   1.670   2.312  0.4435 -0.1683  0.3708
   53MOL    C4112625   1.642   1.707   2.408 -0.1546  0.0939  0.6337
   53MOL    C4212626   1.676   1.841   2.459  0.3311 -0.7327 -0.2552
   53MOL    O4312627   1.552   1.641   2.459  0.0350 -0.0443 -0.2150
   53MOL    H4412628   1.760   1.460   2.464 -1.6983 -0.5320  0.4106
   53MOL    H4512629   1.879   1.453   2.339  0.2009  1.3456  0.3224
   53MOL    H4612630   1.605   1.506   2.252 -1.4662  2.3436 -1.2696
   53MOL    H4712631   1.763   1.845   2.525 -0.0618 -0.6128  0.2654
   53MOL    H4812632   1.604   1.878   2.533  1.4021 -0.5677  0.7116
   53MOL    H4912633   1.685   1.915   2.379 -0.3029  1.6428  1.7901
   53MOL    C5012634   1.769   1.529   2.114 -0.4017  0.0596 -0.3154
   53MOL    C5112635   1.704   1.612   1.993  0.5976 -0.0398  0.1064
   53MOL    O5212636   1.778   1.599   1.876  0.2124  0.4480 -0.4531
   53MOL    C5312637   1.858   1.688   1.832  0.1992  0.1101  0.3321
   53MOL    C5412638   1.950   1.631   1.724  0.6012  0.2986  0.5636
   53MOL    O5512639   1.886   1.799   1.879 -0.2097 -0.0438 -0.0378
   53MOL    H5612640   1.876   1.548   2.119 -0.5686  0.9105  0.1411
   53MOL    H5712641   1.775   1.424   2.084  0.9760  0.1566 -0.3844
   53MOL    H5812642   1.698   1.717   2.020  2.3567  0.8264 -2.7048
   53MOL    H5912643   1.943   1.523   1.714  1.0513  0.3920 -0.8716
   53MOL    H6012644   2.054   1.652   1.751  0.7362 -0.4411  0.6487
   53MOL    H6112645   1.929   1.679   1.628 -1.5145 -1.4165  0.1234
   53MOL    C6212646   1.561   1.557   1.958  0.3661  0.2566 -0.3843
   53MOL    C6312647   1.479   1.640   1.867  0.4692  0.5404  0.7172
   53MOL    O6412648   1.421   1.551   1.771  0.0536 -0.8204 -0.0985
   53MOL    C6512649   1.474   1.536   1.644  0.9777 -0.4496 -0.5282
   53MOL    C6612650   1.385   1.448   1.559  0.4013 -0.3494  0.0594
   53MOL    O6712651   1.578   1.591   1.607 -0.1683  0.3906  0.2299
   53MOL    H6812652   1.558   1.451   1.931  3.8109  0.1634 -0.6293
   53MOL    H6912653   1.513   1.555   2.056  2.1700  3.9069  0.6589
   53MOL    H7012654   1.542   1.720   1.826  0.7307  1.9039  3.6518
   53MOL    H7112655   1.452   1.375   1.512 -2.4591 -2.4712 -0.8710
   53MOL    H7212656   1.349   1.519   1.485  1.1798 -3.3719 -3.3693
   53MOL    H7312657   1.304   1.391   1.604  0.9265  0.5492  2.1775
   53MOL    C7412658   1.358   1.719   1.916  0.0598  0.1208  1.1337
   53MOL    C7512659   1.380   1.827   2.017 -0.2919  0.6552 -0.3626
   53MOL    O7612660   1.462   1.920   1.953  0.0217 -0.0334 -0.0069
   53MOL    C7712661   1.537   1.996   2.033 -0.3577 -0.1162 -0.8460
   53MOL    C7812662   1.657   2.065   1.966  0.2185 -0.2484 -0.5410
   53MOL    O7912663   1.535   2.002   2.156  0.3627 -0.3157 -0.0812
   53MOL    H8012664   1.301   1.751   1.829 -1.6343 -1.2552  1.7061
   53MOL    H8112665   1.286   1.649   1.959 -0.7296  0.6054  0.6058
   53MOL    H8212666   1.417   1.784   2.111 -0.2090  0.2767 -0.5685
   53MOL    H8312667   1.679   2.005   1.877  2.0026 -0.5237  0.0648
   53MOL    H8412668   1.746   2.056   2.028 -0.6651  1.3736  0.9880
   53MOL    H8512669   1.644   2.169   1.937  0.6638 -0.3738 -1.2039
   53MOL    C8612670   1.253   1.909   2.050  0.3985 -0.6617  0.0362
   53MOL    C8712671   1.136   1.828   2.118 -0.4490 -0.2436 -0.2456
   53MOL    O8812672   1.170   1.791   2.249 -0.2035 -0.0771  0.1600
   53MOL    C8912673   1.216   1.669   2.286  0.1784 -0.5487 -0.2728
   53MOL    C9012674   1.221   1.652   2.438  0.0569  0.3987  0.5946
   53MOL    O9112675   1.256   1.586   2.213 -0.0597  1.0362  0.0412
   53MOL    H9212676   1.279   1.994   2.113  1.6050 -0.8659 -0.1648
   53MOL    H9312677   1.218   1.946   1.954  0.3177 -1.9493 -0.4336
   53MOL    H9412678   1.119   1.729   2.076 -2.9560  0.7554 -1.7193
   53MOL    H9512679   1.247   1.750   2.479  0.5101  0.8617 -0.7497
   53MOL    H9612680   1.300   1.585   2.473 -0.1564 -0.8053 -1.1707
   53MOL    H9712681   1.127   1.616   2.478  0.3142 -0.0577  0.7921
   53MOL    C9812682   1.001   1.909   2.110  0.3872 -0.1751  0.4966
   53MOL    C9912683   0.872   1.853   2.162  0.2186  0.3789  0.2145
   53MOL   O10012684   0.869   1.886   2.298  0.4148 -1.0378 -0.0073
   53MOL   C10112685   0.891   1.801   2.403  0.5663  0.2681 -0.3499
   53MOL   C10212686   0.884   1.876   2.536  0.3515 -0.7898 -0.1599
   53MOL   O10312687   0.916   1.678   2.402 -0.5026 -0.0474 -0.2481
   53MOL   H10412688   1.029   2.000   2.163  1.7960  1.4402 -2.8317
   53MOL   H10512689   0.977   1.934   2.006  2.8409  1.4104  0.2766
   53MOL   H10612690   0.866   1.747   2.138 -1.0868  0.0445  1.9129
   53MOL   H10712691   0.977   1.932   2.552 -0.6699  0.6527  0.7957
   53MOL   H10812692   0.869   1.799   2.611  1.9688  0.2999  1.3418
   53MOL   H10912693   0.802   1.947   2.545  1.9393  1.0319  0.4914
   53MOL   C11012694   0.748   1.928   2.117 -0.4498  0.0505 -0.2062
   53MOL   C11112695   0.619   1.854   2.141  0.2077  0.4354  0.3011
   53MOL   O11212696   0.628   1.708   2.150 -0.1904  0.0858 -0.1482
   53MOL   C11312697   0.604   1.628   2.038  0.2239 -0.6548  0.6933
   53MOL   C11412698   0.617   1.482   2.060 -0.2754  0.0612 -0.6674
   53MOL   O11512699   0.580   1.673   1.924  0.5761 -0.0505  0.3774
   53MOL   H11612700   0.737   2.029   2.155  1.8603  0.4144 -0.3955
   53MOL   H11712701   0.751   1.932   2.008  1.3380 -0.4507 -0.1957
   53MOL   H11812702   0.559   1.882   2.054 -0.7636 -3.0301 -0.2454
   53MOL   H11912703   0.720   1.448   2.046 -0.0371  0.7939 -0.7199
   53MOL   H12012704   0.548   1.429   1.995 -1.1161 -2.7084  2.3361
   53MOL   H12112705   0.587   1.459   2.162 -0.4403 -0.5203 -0.8454
   53MOL   C12212706   0.540   1.906   2.266  0.3880  0.4948  0.5794
   53MOL   C12312707   0.425   2.002   2.232 -0.4717 -0.4191 -0.0108
   53MOL   O12412708   0.313   1.934   2.180  0.3471  0.0935 -0.3489
   53MOL   C12512709   0.213   1.995   2.103  0.0310 -0.5088 -0.1178
   53MOL   C12612710   0.104   1.902   2.053 -0.1966  0.2476 -0.3766
   53MOL   O12712711   0.206   2.122   2.087 -0.2237 -0.1192 -0.0191
   53MOL   H12812712   0.493   1.824   2.321  2.1869 -1.0197 -0.0693
   53MOL   H12912713   0.602   1.946   2.345  3.4302  2.0112 -2.4446
   53MOL   H13012714   0.463   2.076   2.161 -2.0150 -0.8748 -1.3359
   53MOL   H13112715   0.009   1.929   2.100  0.9200 -0.8644  2.6324
   53MOL   H13212716   0.131   1.800   2.080  0.2541  0.0906 -1.3908
   53MOL   H13312717   0.088   1.920   1.947 -0.7178 -2.3145 -0.7732
   53MOL   C13412718   0.385   2.085   2.359 -0.2856  0.0079 -0.3841
   53MOL   C13512719   0.461   2.218   2.371 -0.4246 -1.3817 -0.3708
   53MOL   O13612720   0.439   2.313   2.261  0.5400  0.6495 -1.0106
   53MOL   C13712721   0.531   2.318   2.163  0.0810  0.6597 -0.1742
   53MOL   C13812722   0.510   2.429   2.072 -0.0087  0.2142  0.3173
   53MOL   O13912723   0.640   2.268   2.162  0.1892  0.9272 -0.3046
   53MOL   H14012724   0.284   2.124   2.347  0.0097  0.9388  0.0733
   53MOL   H14112725   0.391   2.026   2.451  1.7607 -1.2684 -1.3009
   53MOL   H14212726   0.566   2.190   2.375  0.0234  0.1616 -0.8776
   53MOL   H14312727   0.553   2.519   2.114 -1.1346  0.7235  0.4195
   53MOL   H14412728   0.405   2.452   2.050  0.4368  0.5717 -1.5203
   53MOL   H14512729   0.556   2.409   1.975  0.9738 -1.6039  1.1504
   53MOL   C14612730   0.424   2.301   2.496 -0.3687  0.6132  0.1360
   53MOL   C14712731   0.501   2.427   2.513  0.1814 -0.4243  0.5241
   53MOL   O14812732   0.455   2.496   2.625  0.8068  0.1154 -0.8738
   53MOL   C14912733   0.354   2.586   2.610  0.7591 -0.0950  0.2030
   53MOL   C15012734   0.322   2.650   2.738  0.1066  0.3280 -1.1169
   53MOL   O15112735   0.303   2.618   2.504 -0.3330 -0.4326  0.7412
   53MOL   H15212736   0.316   2.311   2.507 -0.1972  0.7752  1.9480
   53MOL   H15312737   0.432   2.245   2.589 -2.8024  0.9651  0.5861
   53MOL   H15412738   0.492   2.486   2.422  2.3402 -0.1131  0.4776
   53MOL   H15512739   0.307   2.580   2.819  2.5096 -1.2832 -2.0008
   53MOL   H15612740   0.232   2.711   2.727  0.4035  0.5868 -2.1722
   53MOL   H15712741   0.407   2.710   2.772  1.0071 -1.3612 -0.3406
   53MOL   C15812742   0.654   2.404   2.531 -0.2259  0.6973  0.2057
   53MOL   C15912743   0.731   2.529   2.515 -0.3260  0.0190 -0.0384
   53MOL   O16012744   0.735   2.601   2.640  0.2018 -0.0378 -0.4194
   53MOL   C16112745   0.681   2.718   2.656 -0.4312  0.0469 -0.5683
   53MOL   C16212746   0.703   2.766   2.802  0.3472  0.4194 -0.4630
   53MOL   O16312747   0.610   2.777   2.572 -0.1580 -0.1366 -0.4387
   53MOL   H16412748   0.670   2.347   2.623 -1.6789 -1.0958 -0.6297
   53MOL   H16512749   0.685   2.342   2.448  1.1888 -0.9997  1.9615
   53MOL   H16612750   0.684   2.586   2.435  0.2486  0.0069 -0.3843
   53MOL   H16712751   0.665   2.862   2.836  3.8003  1.8038 -0.3227
   53MOL   H16812752   0.811   2.781   2.807  0.2204  1.4121 -0.6724
   53MOL   H16912753   0.677   2.685   2.871 -2.1571  1.3052 -0.3275
   53MOL   C17012754   0.879   2.505   2.469  0.4968  0.4809  0.6759
   53MOL   C17112755   0.947   2.637   2.420 -0.2217  0.2469  0.2190
   53MOL   O17212756   1.081   2.597   2.393  0.3980  0.6084  0.4760
   53MOL   C17312757   1.190   2.674   2.389  0.0362 -0.2528 -0.0296
   53MOL   C17412758   1.314   2.601   2.353  0.4283 -0.0273 -0.4413
   53MOL   O17512759   1.188   2.790   2.425 -0.5224 -0.4823 -0.4135
   53MOL   H17612760   0.918   2.462   2.561 -0.4813 -2.5707 -0.2785
   53MOL   H17712761   0.886   2.438   2.384  0.7431  1.8799 -0.4169
   53MOL   H17812762   0.943   2.710   2.501 -2.2697  0.1023  0.2827
   53MOL   H17912763   1.390   2.671   2.320  0.3705  0.3648  0.2515
   53MOL   H18012764   1.303   2.537   2.265 -0.2113 -1.4120  0.6317
   53MOL   H18112765   1.345   2.540   2.438  0.3439 -0.7357 -0.9071
   53MOL   C18212766   0.890   2.694   2.290 -0.0494  0.2163 -0.1595
   53MOL   C18312767   0.908   2.847   2.286  0.7437 -0.5679  0.0278
   53MOL   O18412768   0.866   2.896   2.155 -1.1905  0.0625  0.1241
   53MOL   C18512769   0.941   2.894   2.046 -0.0245 -0.0268 -0.0457
   53MOL   C18612770   0.864   2.925   1.921  0.0943  0.3295 -0.7474
   53MOL   O18712771   1.059   2.869   2.043  0.3881  0.1490 -0.3490
   53MOL   H18812772   0.945   2.644   2.211 -1.6510 -1.2993 -0.3342
   53MOL   H18912773   0.788   2.660   2.275 -0.4007 -0.0354  2.4952
   53MOL   H19012774   1.012   2.879   2.299  0.8744 -1.1519  0.4278
   53MOL   H19112775   0.939   2.937   1.843  0.2287 -1.6564 -0.9445
   53MOL   H19212776   0.819   3.022   1.944  2.3299  0.9516  1.2409
   53MOL   H19312777   0.787   2.850   1.905  0.4385  0.0349 -1.0310
   53MOL   C19412778   0.821   2.918   2.395 -0.1259 -0.1413  0.7387
   53MOL   C19512779   0.854   3.067   2.410 -0.5251 -0.5482 -0.0451
   53MOL   O19612780   0.757   3.116   2.507 -0.1035 -0.3893  0.3595
   53MOL   C19712781   0.676   3.217   2.483  0.5084  1.1349  0.5525
   53MOL   C19812782   0.605   3.260   2.608  0.3880  0.0366  0.0181
   53MOL   O19912783   0.674   3.287   2.380 -0.2239 -0.1570 -0.4508
   53MOL   H20012784   0.714   2.917   2.375  0.2576  0.5257 -1.4168
   53MOL   H20112785   0.842   2.875   2.493 -0.2741 -0.3597  0.6743
   53MOL   H20212786   0.823   3.114   2.316 -1.9114  0.1164  0.7299
   53MOL   H20312787   0.530   3.187   2.639  1.6502 -1.2528  0.0840
   53MOL   H20412788   0.558   3.358   2.600  0.1048 -0.1093 -0.1032
   53MOL   H20512789   0.684   3.272   2.682  0.0183 -0.4290  0.4971
   53MOL   C20612790   0.999   3.112   2.442 -0.3061  0.0426  0.0547
   53MOL   C20712791   1.071   3.168   2.324 -0.7053  0.4800 -0.2935
   53MOL   O20812792   1.025   3.297   2.308 -0.3761  0.2121  0.0824
   53MOL   C20912793   0.954   3.336   2.202  0.0708 -0.0814 -1.3964
   53MOL   C21012794   0.921   3.490   2.206 -0.3535  0.1441 -0.0720
   53MOL   O21112795   0.912   3.266   2.108 -0.7589 -0.1333 -0.5307
   53MOL   H21212796   0.999   3.196   2.512 -3.2102 -0.3152  0.5804
   53MOL   H21312797   1.060   3.030   2.480 -0.8109  0.1816  1.1857
   53MOL   H21412798   1.063   3.107   2.235 -1.2872 -0.7853  0.6198
   53MOL   H21512799   0.827   3.512   2.255  0.0317  2.1258 -0.1958
   53MOL   H21612800   0.906   3.510   2.100 -0.0814 -3.0874 -0.7988
   53MOL   H21712801   1.000   3.558   2.236 -2.2396  3.2644 -1.9443
   53MOL   C21812802   1.226   3.188   2.354 -0.1051 -1.0304 -0.3065
   53MOL   C21912803   1.308   3.192   2.225  0.1880  0.1189 -0.3502
   53MOL   O22012804   1.248   3.284   2.129 -0.3980 -0.2058 -0.2387
   53MOL   C22112805   1.237   3.233   1.999  0.0757 -0.1138 -0.2637
   53MOL   C22212806   1.204   3.340   1.896 -0.2344  0.5379  0.7548
   53MOL   O22312807   1.265   3.118   1.963  0.4315  0.1557  0.0026
   53MOL   H22412808   1.249   3.276   2.414  1.6243 -1.6890  0.0095
   53MOL   H22512809   1.257   3.100   2.412 -1.9033 -0.9632  0.8021
   53MOL   H22612810   1.319   3.091   2.184  1.4897  0.5717 -1.1347
   53MOL   H22712811   1.102   3.362   1.864  0.1636  1.5178  0.1210
   53MOL   H22812812   1.271   3.341   1.810 -0.8840 -0.3682  0.2348
   53MOL   H22912813   1.247   3.430   1.940 -1.5857  0.8154  1.5096
   53MOL   C23012814   1.450   3.240   2.251  0.1740  0.2034  0.6462
   53MOL   C23112815   1.538   3.134   2.313  0.1444 -0.0591 -0.0440
   53MOL   O23212816   1.666   3.189   2.312  0.2674 -0.1087 -0.0127
   53MOL   C23312817   1.766   3.134   2.378  0.8530  0.1439 -0.9283
   53MOL   C23412818   1.898   3.216   2.364 -0.1300 -0.1783  0.8550
   53MOL   O23512819   1.768   3.021   2.434 -0.2219 -0.5902  0.2106
   53MOL   H23612820   1.493   3.271   2.156 -1.8093 -1.5333 -0.8638
   53MOL   H23712821   1.454   3.334   2.308  1.5489  0.5056  0.0582
   53MOL   H23812822   1.549   3.039   2.260  1.2624  1.1521 -2.0235
   53MOL   H23912823   1.970   3.170   2.297 -0.6278 -1.7476  1.3821
   53MOL   H24012824   1.936   3.229   2.465 -0.9158  0.5389  1.0682
   53MOL   H24112825   1.872   3.314   2.323  0.2399 -0.6668 -0.5940
   53MOL   H24212826   1.503   3.097   2.410 -0.0902 -0.9170 -0.4532
   54MOL     C112827   2.327   5.237   1.704 -0.1168  0.1629  0.1120
   54MOL     C212828   2.373   5.376   1.650  0.7216  0.4440  0.6948
   54MOL     O312829   2.513   5.370   1.617  0.1966 -0.4153 -0.4666
   54MOL     C412830   2.598   5.478   1.617 -0.9645 -0.4990  0.2387
   54MOL     C512831   2.740   5.438   1.585 -0.8378 -0.0208 -0.1469
   54MOL     O612832   2.562   5.593   1.641  0.3179 -0.4111 -0.0452
   54MOL     H712833   2.398   5.178   1.763 -0.2734  0.6123  0.7608
   54MOL     H812834   2.287   5.183   1.619 -0.3425  1.3990 -0.5771
   54MOL     H912835   2.359   5.444   1.734 -1.6980  0.9081 -0.0592
   54MOL    H1012836   2.780   5.437   1.686  0.7141 -0.4309 -0.7567
   54MOL    H1112837   2.784   5.526   1.536 -1.4679  1.2489  1.5140
   54MOL    H1212838   2.748   5.348   1.525 -0.3574 -0.3213  0.3737
   54MOL    H1312839   2.252   5.257   1.781  0.4169 -0.5071  0.8205
   54MOL    C1412840   2.290   5.448   1.539  0.2999  0.3704 -0.7222
   54MOL    C1512841   2.146   5.494   1.582 -0.0658  0.0200 -0.0558
   54MOL    O1612842   2.043   5.391   1.586  0.0010  0.3836  0.0559
   54MOL    C1712843   1.929   5.395   1.516 -0.2852  0.1143  0.1676
   54MOL    C1812844   1.841   5.276   1.533 -0.6944  0.5920  0.0961
   54MOL    O1912845   1.892   5.490   1.443  0.2071  0.0239 -0.3336
   54MOL    H2012846   2.344   5.536   1.504  0.2324 -0.1275 -2.1347
   54MOL    H2112847   2.279   5.376   1.457 -0.2072  1.9892 -2.1127
   54MOL    H2212848   2.122   5.571   1.509 -1.9147  0.6194  1.1460
   54MOL    H2312849   1.757   5.318   1.588 -1.1042  1.4310 -1.1499
   54MOL    H2412850   1.900   5.195   1.577 -2.4239 -0.3247  0.8000
   54MOL    H2512851   1.798   5.232   1.443  1.2713  0.0505 -0.6157
   54MOL    C2612852   2.140   5.581   1.709 -0.0652 -0.0762 -0.2929
   54MOL    C2712853   2.010   5.664   1.723 -0.3314 -1.0604  0.3734
   54MOL    O2812854   2.032   5.711   1.855  0.7019  0.3228  0.4510
   54MOL    C2912855   1.968   5.657   1.955 -0.3469  0.3509  0.1086
   54MOL    C3012856   1.969   5.741   2.080  0.2818 -0.5395  1.0592
   54MOL    O3112857   1.911   5.549   1.957  0.2979  0.3674 -0.1489
   54MOL    H3212858   2.157   5.508   1.789  1.9321 -0.2522 -0.8472
   54MOL    H3312859   2.226   5.647   1.717 -0.1767  0.2891 -1.9754
   54MOL    H3412860   1.919   5.604   1.718 -1.1330  0.1713 -0.0044
   54MOL    H3512861   1.916   5.706   2.169 -0.9367 -1.0352  0.1555
   54MOL    H3612862   1.924   5.837   2.060  0.7000 -0.9362 -2.0208
   54MOL    H3712863   2.074   5.744   2.109  0.8763 -1.9221 -0.8344
   54MOL    C3812864   1.996   5.795   1.631  0.1973  0.3426  0.0871
   54MOL    C3912865   1.862   5.872   1.633  0.1496 -0.1301  0.3634
   54MOL    O4012866   1.762   5.780   1.590 -0.1321  0.0731 -0.2246
   54MOL    C4112867   1.706   5.791   1.469 -0.1377  0.3258 -0.5337
   54MOL    C4212868   1.593   5.689   1.463  0.2657 -0.1742 -0.3236
   54MOL    O4312869   1.728   5.870   1.379 -0.3711  0.1347  0.3243
   54MOL    H4412870   2.080   5.859   1.657 -0.9143  1.5571  0.7315
   54MOL    H4512871   2.006   5.774   1.525  1.0142  1.6536 -0.1062
   54MOL    H4612872   1.868   5.951   1.558  1.5800 -0.5840 -0.0069
   54MOL    H4712873   1.618   5.590   1.501 -2.3210 -0.6819  0.1562
   54MOL    H4812874   1.555   5.680   1.361 -2.5959 -1.3267  0.7822
   54MOL    H4912875   1.505   5.727   1.515  0.4268 -0.6071  0.2697
   54MOL    C5012876   1.822   5.928   1.760  0.2908 -0.1918 -0.3992
   54MOL    C5112877   1.910   6.045   1.812  0.0508  0.1427  0.5048
   54MOL    O5212878   1.891   6.158   1.727 -0.1469 -0.0887 -0.2017
   54MOL    C5312879   1.984   6.192   1.628 -0.0024 -0.4289  0.1703
   54MOL    C5412880   1.938   6.319   1.564 -1.0994 -0.2242 -0.5409
   54MOL    O5512881   2.071   6.127   1.576 -0.5208 -0.2916 -0.3117
   54MOL    H5612882   1.722   5.970   1.769 -0.8327 -2.8348 -0.0401
   54MOL    H5712883   1.823   5.851   1.837 -1.2041 -0.6344 -0.8125
   54MOL    H5812884   2.017   6.022   1.807  0.5051  1.7156  2.3906
   54MOL    H5912885   1.980   6.411   1.604 -0.4547 -0.6747 -0.1674
   54MOL    H6012886   1.831   6.334   1.575 -0.7066  1.6471  1.0916
   54MOL    H6112887   1.953   6.328   1.457 -0.3643 -0.9929 -0.5071
   54MOL    C6212888   1.872   6.094   1.952  0.1382 -0.2041  0.1604
   54MOL    C6312889   1.961   6.206   2.005 -0.2249  0.0234 -0.1177
   54MOL    O6412890   1.905   6.245   2.124  0.5588 -0.6321  0.1959
   54MOL    C6512891   1.878   6.368   2.150  0.5059 -0.2925 -0.5034
   54MOL    C6612892   1.828   6.379   2.297 -0.4402  0.3562 -0.1037
   54MOL    O6712893   1.921   6.467   2.088  0.6954  0.3500  0.3784
   54MOL    H6812894   1.770   6.129   1.939 -0.7855 -2.2225  1.7423
   54MOL    H6912895   1.864   6.013   2.024 -0.5940 -2.3641 -2.2846
   54MOL    H7012896   1.954   6.287   1.933  0.0885  0.4194  0.2993
   54MOL    H7112897   1.895   6.314   2.355  2.0933  1.1758 -2.0263
   54MOL    H7212898   1.725   6.351   2.316  0.2571 -0.9138  2.0005
   54MOL    H7312899   1.851   6.478   2.337  2.5948  0.3350 -1.6252
   54MOL    C7412900   2.105   6.169   2.045 -0.0843 -0.6836  0.4980
   54MOL    C7512901   2.207   6.196   1.929 -0.6034  0.6395  0.0830
   54MOL    O7612902   2.260   6.325   1.945  0.3973 -0.5207 -0.4337
   54MOL    C7712903   2.193   6.432   1.894 -0.1735 -0.1486 -0.3255
   54MOL    C7812904   2.234   6.562   1.965  0.2345 -0.4430 -0.1919
   54MOL    O7912905   2.099   6.431   1.816 -0.3691 -0.5238  0.0432
   54MOL    H8012906   2.143   6.219   2.135  1.5420 -3.5166  1.4488
   54MOL    H8112907   2.102   6.064   2.075 -0.3559 -0.5827  0.8250
   54MOL    H8212908   2.148   6.203   1.837  0.2055  3.3694 -0.2628
   54MOL    H8312909   2.160   6.641   1.974 -2.6286 -3.0208 -0.5762
   54MOL    H8412910   2.315   6.605   1.905 -0.8782  0.4773 -1.0644
   54MOL    H8512911   2.258   6.526   2.065 -1.3437 -4.2834 -1.1306
   54MOL    C8612912   2.316   6.087   1.924  0.6590 -0.7075  0.8302
   54MOL    C8712913   2.392   6.054   2.051  0.0484  0.4640 -0.5286
   54MOL    O8812914   2.463   5.933   2.021  0.2196  0.2480 -0.3344
   54MOL    C8912915   2.401   5.814   2.030  0.1178  0.3855  0.7414
   54MOL    C9012916   2.481   5.710   1.958 -0.2676 -0.8632 -0.2026
   54MOL    O9112917   2.295   5.785   2.083 -0.3984 -0.5776 -0.1321
   54MOL    H9212918   2.271   6.001   1.874 -2.3384  1.3749 -0.1940
   54MOL    H9312919   2.385   6.116   1.845  1.5900 -0.7960  1.6103
   54MOL    H9412920   2.325   6.038   2.136  1.2865 -1.2548  0.1574
   54MOL    H9512921   2.482   5.615   2.012  1.3126 -0.5290  0.3728
   54MOL    H9612922   2.583   5.747   1.954  0.3303 -2.1126  2.4394
   54MOL    H9712923   2.436   5.675   1.865 -1.5766  1.9689 -0.6746
   54MOL    C9812924   2.490   6.168   2.096 -0.5380  0.7412  0.7033
   54MOL    C9912925   2.557   6.145   2.234  0.4215  0.0630  0.4179
   54MOL   O10012926   2.636   6.029   2.240  0.0097 -0.1276  0.3221
   54MOL   C10112927   2.763   6.015   2.195  0.0536  0.3435 -0.0309
   54MOL   C10212928   2.833   5.878   2.212  0.1646 -0.1500 -0.8012
   54MOL   O10312929   2.828   6.110   2.155 -0.1383 -0.1352  0.1571
   54MOL   H10412930   2.573   6.171   2.025  0.6149  1.4074  2.0494
   54MOL   H10512931   2.434   6.261   2.108 -0.9265  0.6144 -0.1077
   54MOL   H10612932   2.472   6.118   2.297  2.5458  0.7986  3.7469
   54MOL   H10712933   2.941   5.883   2.216  0.1223 -0.4315  2.0493
   54MOL   H10812934   2.786   5.816   2.136  1.8528 -1.5089 -0.7690
   54MOL   H10912935   2.818   5.833   2.311 -0.3159 -0.2073 -0.8981
   54MOL   C11012936   2.626   6.260   2.311 -1.3222 -0.0894 -0.4448
   54MOL   C11112937   2.542   6.367   2.387  0.3224  0.3595  0.2571
   54MOL   O11212938   2.467   6.321   2.496  0.0553 -0.4454  0.0494
   54MOL   C11312939   2.338   6.298   2.481 -0.2708 -0.2675 -1.1228
   54MOL   C11412940   2.264   6.251   2.601  0.0659 -0.8427  0.2213
   54MOL   O11512941   2.278   6.318   2.375  0.7465 -0.3623  0.4905
   54MOL   H11612942   2.704   6.220   2.376  0.8383  1.5111 -1.9807
   54MOL   H11712943   2.695   6.312   2.244 -2.2955  2.3538  0.4124
   54MOL   H11812944   2.473   6.408   2.313  0.0549  1.0177  0.8777
   54MOL   H11912945   2.279   6.320   2.684  1.7678 -1.8137  0.7528
   54MOL   H12012946   2.293   6.151   2.632  0.0566 -0.3667  1.8297
   54MOL   H12112947   2.157   6.245   2.580  0.4434 -0.6154 -1.8339
   54MOL   C12212948   2.629   6.477   2.448 -0.7801 -0.3960 -0.7349
   54MOL   C12312949   2.744   6.439   2.551 -0.5919  0.1471  0.0672
   54MOL   O12412950   2.833   6.553   2.571  0.3935 -0.0023  0.0523
   54MOL   C12512951   2.948   6.582   2.511 -0.3441 -0.9482 -0.0986
   54MOL   C12612952   3.012   6.711   2.570  0.3422  0.3318  0.0584
   54MOL   O12712953   3.004   6.516   2.424 -0.2116  0.8113  0.0819
   54MOL   H12812954   2.663   6.521   2.354  0.9761 -0.6229 -0.2205
   54MOL   H12912955   2.570   6.557   2.494  0.7825 -0.4617  1.4421
   54MOL   H13012956   2.799   6.362   2.497 -0.4815 -0.7767  1.4552
   54MOL   H13112957   3.026   6.786   2.492 -0.6794 -1.2104 -1.6428
   54MOL   H13212958   3.110   6.694   2.615  0.0258  3.1304  1.9430
   54MOL   H13312959   2.953   6.750   2.654  0.6498 -1.0954  0.9481
   54MOL   C13412960   2.692   6.410   2.691  0.0857 -0.1238 -0.4751
   54MOL   C13512961   2.772   6.321   2.792 -0.6825  0.0358  0.0933
   54MOL   O13612962   2.904   6.355   2.794 -0.2964 -0.3051 -0.0652
   54MOL   C13712963   2.994   6.283   2.729  0.7042  0.1737 -0.2961
   54MOL   C13812964   3.132   6.339   2.733 -0.5878  0.1679  0.4143
   54MOL   O13912965   2.975   6.179   2.669 -0.0649 -0.0327  0.8369
   54MOL   H14012966   2.660   6.501   2.742  1.6429  0.8989 -1.2534
   54MOL   H14112967   2.615   6.333   2.684 -0.0626 -0.1413  1.1876
   54MOL   H14212968   2.765   6.214   2.770  0.8532 -0.3857  1.5684
   54MOL   H14312969   3.171   6.345   2.632  0.0128  1.7303  0.7189
   54MOL   H14412970   3.206   6.290   2.797 -1.1979 -2.5014 -0.8654
   54MOL   H14512971   3.135   6.440   2.774  1.2190 -0.4305  1.8526
   54MOL   C14612972   2.723   6.330   2.939 -0.3790  0.5315  0.2934
   54MOL   C14712973   2.775   6.229   3.050  0.0980  0.5455  0.2515
   54MOL   O14812974   2.920   6.230   3.036 -0.4805  0.3262  0.3165
   54MOL   C14912975   2.988   6.118   3.043 -0.3335  0.4794  0.2924
   54MOL   C15012976   3.141   6.139   3.058 -0.5071 -0.2215  0.5751
   54MOL   O15112977   2.943   6.004   3.030  0.0342  0.2614  0.8845
   54MOL   H15212978   2.744   6.431   2.975 -1.4271  0.6349  0.6263
   54MOL   H15312979   2.615   6.317   2.930 -0.5262  2.2102 -0.5257
   54MOL   H15412980   2.732   6.130   3.037  3.8740 -1.1855  0.3097
   54MOL   H15512981   3.194   6.082   2.982  0.3053  1.8838 -0.4916
   54MOL   H15612982   3.172   6.101   3.156 -0.0251  0.3885  0.6677
   54MOL   H15712983   3.170   6.243   3.043 -3.0811  0.7225  1.9212
   54MOL   C15812984   2.737   6.286   3.187 -0.5501  0.1019 -0.6764
   54MOL   C15912985   2.737   6.176   3.300 -0.1154  0.5643 -0.5955
   54MOL   O16012986   2.694   6.253   3.415 -0.8615  0.0019 -0.1590
   54MOL   C16112987   2.762   6.260   3.531  0.2062 -0.0653 -0.8371
   54MOL   C16212988   2.710   6.370   3.618 -0.4077  0.0060  0.3585
   54MOL   O16312989   2.851   6.185   3.564 -0.0842  0.6360 -0.1070
   54MOL   H16412990   2.807   6.367   3.205 -0.7499  0.2336 -0.4919
   54MOL   H16512991   2.642   6.338   3.192 -0.0426  1.0058 -0.4298
   54MOL   H16612992   2.836   6.135   3.314  0.0466  0.9114 -0.7202
   54MOL   H16712993   2.709   6.322   3.716  1.6813 -0.6117  0.1103
   54MOL   H16812994   2.606   6.392   3.595 -0.2476  0.0080 -0.3654
   54MOL   H16912995   2.772   6.459   3.621  0.9148 -0.8436 -0.8924
   54MOL   C17012996   2.655   6.048   3.271  0.1962 -0.3367 -0.3105
   54MOL   C17112997   2.501   6.076   3.251 -0.3766  0.7495 -0.0600
   54MOL   O17212998   2.489   6.054   3.108 -0.0894 -0.2243 -0.3120
   54MOL   C17312999   2.397   6.115   3.039  0.4042  0.1422 -0.6317
   54MOL   C17413000   2.380   6.076   2.902 -0.4056  0.3887  0.3690
   54MOL   O17513001   2.343   6.213   3.084  0.1793 -0.8341 -0.3622
   54MOL   H17613002   2.703   5.993   3.190 -0.5790  0.7287 -1.5251
   54MOL   H17713003   2.670   5.988   3.360 -0.1510 -1.2608 -0.8665
   54MOL   H17813004   2.486   6.180   3.280 -0.3555  1.2905 -1.9437
   54MOL   H17913005   2.294   6.008   2.900  1.8728 -2.6053  0.5461
   54MOL   H18013006   2.464   6.022   2.859  1.7918  3.3444  0.8505
   54MOL   H18113007   2.352   6.158   2.836  0.2039  1.1487  1.0525
   54MOL   C18213008   2.395   5.994   3.329  0.0996 -0.1731  0.7006
   54MOL   C18313009   2.380   6.011   3.479  0.6478 -0.5337 -0.4097
   54MOL   O18413010   2.313   6.135   3.498 -0.3961 -0.1457 -0.6232
   54MOL   C18513011   2.368   6.221   3.589 -0.3063 -0.2723  0.9704
   54MOL   C18613012   2.294   6.353   3.588  0.2067  0.3295 -0.0354
   54MOL   O18713013   2.460   6.187   3.666  0.2301 -0.3085 -0.4076
   54MOL   H18813014   2.300   6.030   3.291  1.0828 -0.4516 -2.1093
   54MOL   H18913015   2.412   5.887   3.313 -1.3724 -0.5546  1.5633
   54MOL   H19013016   2.481   6.007   3.520  0.5879  1.5520  0.0004
   54MOL   H19113017   2.187   6.342   3.573  0.0616  0.1426  1.0601
   54MOL   H19213018   2.327   6.414   3.504 -0.9894 -0.4257 -1.0676
   54MOL   H19313019   2.314   6.409   3.680 -0.3330 -0.0720  0.3288
   54MOL   C19413020   2.283   5.901   3.545  0.7890 -0.5861 -0.1207
   54MOL   C19513021   2.277   5.892   3.702  0.0470 -0.3507  0.1306
   54MOL   O19613022   2.161   5.817   3.744  0.3644  0.4815 -0.2222
   54MOL   C19713023   2.038   5.876   3.737 -0.0722 -0.7423  0.2394
   54MOL   C19813024   1.920   5.786   3.777 -0.5856  0.0809  0.3177
   54MOL   O19913025   2.014   5.995   3.719 -0.1826  0.1739 -0.1458
   54MOL   H20013026   2.179   5.914   3.514  0.9871  0.3599 -0.4234
   54MOL   H20113027   2.325   5.803   3.523  2.3168 -0.4513  2.0253
   54MOL   H20213028   2.270   5.993   3.742 -0.5204 -0.2479 -0.2174
   54MOL   H20313029   1.825   5.830   3.747 -1.0115 -2.2879 -1.9412
   54MOL   H20413030   1.924   5.777   3.886 -1.9778  1.9443  0.5541
   54MOL   H20513031   1.927   5.684   3.740  1.8768  0.2334  0.3021
   54MOL   C20613032   2.395   5.823   3.778 -0.1275 -0.9917  0.2842
   54MOL   C20713033   2.429   5.680   3.724 -0.2091  0.2248 -0.3609
   54MOL   O20813034   2.531   5.694   3.626  0.3890  0.1081 -0.0545
   54MOL   C20913035   2.540   5.603   3.521  0.0179 -0.0692  0.4052
   54MOL   C21013036   2.651   5.630   3.418 -0.0766 -0.2860  0.0838
   54MOL   O21113037   2.467   5.506   3.507 -0.2934 -0.3994 -0.1850
   54MOL   H21213038   2.477   5.893   3.768 -1.4923  0.2671 -2.8220
   54MOL   H21313039   2.360   5.819   3.881 -1.8115 -0.5622 -0.2468
   54MOL   H21413040   2.333   5.636   3.698 -0.6093 -0.1084  1.6229
   54MOL   H21513041   2.713   5.540   3.419  0.9998  0.4024 -1.7777
   54MOL   H21613042   2.696   5.726   3.445  0.3075 -0.8775  1.6120
   54MOL   H21713043   2.614   5.653   3.318  0.9663 -0.4151 -0.3389
   54MOL   C21813044   2.484   5.597   3.840 -0.3030  0.1372  0.1372
   54MOL   C21913045   2.495   5.447   3.823 -0.3919  0.0333  0.4476
   54MOL   O22013046   2.560   5.382   3.941  0.4174 -0.0297  0.3148
   54MOL   C22113047   2.660   5.283   3.926 -0.7273 -0.4939 -0.2964
   54MOL   C22213048   2.723   5.244   4.065 -0.4818 -0.3182  0.3036
   54MOL   O22313049   2.694   5.236   3.818 -0.2729  0.0946  0.3051
   54MOL   H22413050   2.585   5.636   3.850 -0.3111  0.2345 -0.1416
   54MOL   H22513051   2.431   5.621   3.932  1.9592 -1.1214  1.8116
   54MOL   H22613052   2.550   5.441   3.729 -1.2041  1.5191 -0.1310
   54MOL   H22713053   2.646   5.227   4.140 -1.5207  0.4071 -0.5898
   54MOL   H22813054   2.797   5.315   4.102 -0.2694 -0.1565 -0.4277
   54MOL   H22913055   2.779   5.151   4.051 -0.2806 -0.8302  3.8724
   54MOL   C23013056   2.353   5.390   3.810  1.0132 -0.3845 -0.0224
   54MOL   C23113057   2.359   5.242   3.787 -0.3917  0.7630 -0.1334
   54MOL   O23213058   2.324   5.200   3.654 -0.0460  0.3991 -0.3844
   54MOL   C23313059   2.199   5.188   3.621 -0.3342  0.5398  0.1738
   54MOL   C23413060   2.177   5.159   3.477  0.1411 -0.2186 -0.5261
   54MOL   O23513061   2.103   5.205   3.697  0.2355 -0.1200 -0.6725
   54MOL   H23613062   2.291   5.412   3.897  1.8133 -0.5059  0.5797
   54MOL   H23713063   2.296   5.437   3.729  0.4916  3.2582  2.3549
   54MOL   H23813064   2.290   5.182   3.848 -0.0162  0.1254 -0.3290
   54MOL   H23913065   2.132   5.063   3.453  1.2109  0.0108 -3.7640
   54MOL   H24013066   2.281   5.152   3.445 -0.2552  0.2048 -1.9901
   54MOL   H24113067   2.123   5.232   3.416  1.9145  1.8932  0.3643
   54MOL   H24213068   2.459   5.198   3.795 -0.7822 -0.1360 -0.0690
   55MOL     C113069   2.481   3.812   1.022  0.0539  0.2922  0.1086
   55MOL     C213070   2.602   3.739   0.971  0.5848 -0.2091  0.6461
   55MOL     O313071   2.552   3.636   0.889  0.2294  0.2469  0.0290
   55MOL     C413072   2.520   3.510   0.933  0.6644  0.5656 -0.1080
   55MOL     C513073   2.509   3.416   0.817 -0.2486 -1.1060  0.7597
   55MOL     O613074   2.518   3.477   1.049  0.2728  1.2468  0.2150
   55MOL     H713075   2.508   3.891   1.092  3.5154  0.5721 -1.4515
   55MOL     H813076   2.406   3.762   1.083  0.7267  0.7248  1.2964
   55MOL     H913077   2.665   3.711   1.055  1.0525  1.6377  0.9291
   55MOL    H1013078   2.552   3.319   0.844  1.0633 -1.0233 -0.9404
   55MOL    H1113079   2.554   3.450   0.723 -0.0537 -0.0273  1.2442
   55MOL    H1213080   2.408   3.385   0.790  0.0085 -0.1417 -1.4468
   55MOL    H1313081   2.434   3.872   0.943  0.2630  1.5849  0.9488
   55MOL    C1413082   2.690   3.835   0.883  0.2233  0.2824 -0.1344
   55MOL    C1513083   2.830   3.774   0.837  0.1494 -0.3814  0.4318
   55MOL    O1613084   2.820   3.662   0.746 -0.2190 -0.0030  0.3720
   55MOL    C1713085   2.876   3.540   0.784 -0.0894 -0.1144 -0.0869
   55MOL    C1813086   2.845   3.439   0.676  0.0928  0.3157 -0.1251
   55MOL    O1913087   2.945   3.516   0.880  0.3049  0.0168  0.6351
   55MOL    H2013088   2.633   3.864   0.795 -1.0644 -0.2160  0.5164
   55MOL    H2113089   2.703   3.930   0.935  0.4768 -1.8127  3.8535
   55MOL    H2213090   2.879   3.743   0.929 -2.1275  0.0309  1.8390
   55MOL    H2313091   2.758   3.388   0.719  2.0297 -2.2457  0.8862
   55MOL    H2413092   2.926   3.367   0.668  0.6958  1.2388 -3.0435
   55MOL    H2513093   2.823   3.486   0.580 -1.1950 -0.6411 -0.3073
   55MOL    C2613094   2.915   3.885   0.763  0.1022  1.1411  0.0914
   55MOL    C2713095   2.996   3.974   0.860  0.1418 -0.3484  0.2471
   55MOL    O2813096   3.095   3.885   0.919  0.4030  0.1353  0.0975
   55MOL    C2913097   3.098   3.861   1.054 -0.0732  0.2771  0.1833
   55MOL    C3013098   3.194   3.756   1.084  0.1399  0.3560 -0.0938
   55MOL    O3113099   3.041   3.923   1.144  0.3055  0.5013 -0.3204
   55MOL    H3213100   2.989   3.838   0.699 -0.9460 -0.3920 -0.0273
   55MOL    H3313101   2.853   3.940   0.692  0.5990 -0.4128 -1.6065
   55MOL    H3413102   2.920   4.022   0.922 -0.2001  0.0428 -0.4813
   55MOL    H3513103   3.244   3.733   0.989  0.1428 -1.3904  0.3047
   55MOL    H3613104   3.156   3.658   1.114  2.8301 -0.6522  0.1887
   55MOL    H3713105   3.272   3.787   1.154  1.4459 -0.8276 -0.9814
   55MOL    C3813106   3.081   4.080   0.797  0.5167  0.7351  0.3193
   55MOL    C3913107   3.145   4.190   0.888 -0.2194 -0.7741  0.0422
   55MOL    O4013108   3.238   4.258   0.803 -0.6606 -0.1167 -0.3405
   55MOL    C4113109   3.369   4.239   0.814  0.1761 -0.4089  0.2141
   55MOL    C4213110   3.453   4.332   0.719 -0.2631 -0.0195  0.4102
   55MOL    O4313111   3.425   4.162   0.889 -0.0490 -0.5644  0.3172
   55MOL    H4413112   3.154   4.036   0.729  0.1620  0.8955 -0.1661
   55MOL    H4513113   3.029   4.132   0.716 -0.4404 -0.1313  0.3812
   55MOL    H4613114   3.188   4.135   0.972  0.1850  0.1172  0.4175
   55MOL    H4713115   3.452   4.436   0.749  0.1723  0.2806 -0.6069
   55MOL    H4813116   3.413   4.324   0.618 -0.9666 -0.4492  0.7186
   55MOL    H4913117   3.555   4.294   0.725  0.1053  0.9054 -0.0036
   55MOL    C5013118   3.038   4.282   0.942 -0.2382 -0.1943 -0.1463
   55MOL    C5113119   3.073   4.377   1.059 -0.7405  0.2424 -0.3442
   55MOL    O5213120   2.946   4.425   1.107  0.1758  0.3654  0.3904
   55MOL    C5313121   2.895   4.536   1.050  0.2941  0.5826 -0.2017
   55MOL    C5413122   2.762   4.582   1.112 -0.5207 -0.6898  0.3632
   55MOL    O5513123   2.932   4.587   0.943  0.2912 -0.2141  0.2441
   55MOL    H5613124   2.996   4.343   0.862 -1.1852  1.6876  1.7297
   55MOL    H5713125   2.955   4.223   0.980 -0.0568 -0.1326  0.3552
   55MOL    H5813126   3.132   4.455   1.010 -0.1832 -0.6010 -1.0423
   55MOL    H5913127   2.683   4.534   1.053  0.8002 -1.7391 -0.6065
   55MOL    H6013128   2.752   4.690   1.119  1.1438 -0.4621 -0.5185
   55MOL    H6113129   2.770   4.543   1.213  3.0449 -0.9489  0.0355
   55MOL    C6213130   3.153   4.309   1.175  0.2632 -0.5126  0.1667
   55MOL    C6313131   3.223   4.411   1.264  0.2028  0.4292 -0.0920
   55MOL    O6413132   3.133   4.467   1.358  0.1331 -0.3486  0.1128
   55MOL    C6513133   3.139   4.590   1.386  0.2202  0.5142  0.0634
   55MOL    C6613134   3.039   4.633   1.491 -0.4052 -0.5598 -0.2550
   55MOL    O6713135   3.213   4.674   1.338 -0.0393 -0.0433  0.5839
   55MOL    H6813136   3.098   4.234   1.231  1.4011 -2.5994 -1.4262
   55MOL    H6913137   3.227   4.249   1.121  0.8697  0.2185  0.1715
   55MOL    H7013138   3.270   4.489   1.205  1.5600 -0.4166 -0.1345
   55MOL    H7113139   2.992   4.554   1.548 -0.6969 -0.2574 -0.0725
   55MOL    H7213140   2.958   4.681   1.436 -1.2381 -3.6554 -1.8533
   55MOL    H7313141   3.086   4.710   1.552  3.6465 -0.0048 -3.7607
   55MOL    C7413142   3.334   4.345   1.345  0.2933  0.1754 -0.4332
   55MOL    C7513143   3.456   4.295   1.263 -0.1412 -0.9171  0.4193
   55MOL    O7613144   3.535   4.405   1.220 -0.5201 -0.2315 -0.1856
   55MOL    C7713145   3.513   4.482   1.116 -0.6137 -0.6071  0.4278
   55MOL    C7813146   3.633   4.576   1.105  0.1930 -0.0483  0.5847
   55MOL    O7913147   3.418   4.487   1.033 -0.0146 -0.2545 -0.4289
   55MOL    H8013148   3.373   4.416   1.418 -0.4485 -0.6108  0.7605
   55MOL    H8113149   3.292   4.272   1.415 -0.2516  0.5017 -0.4122
   55MOL    H8213150   3.420   4.249   1.171  0.3382 -0.8776  0.2095
   55MOL    H8313151   3.719   4.553   1.167 -0.0562 -0.9222  0.6182
   55MOL    H8413152   3.601   4.679   1.119 -1.5261 -0.4188 -0.3566
   55MOL    H8513153   3.676   4.574   1.005  0.0802  1.2610  0.5032
   55MOL    C8613154   3.551   4.205   1.347 -0.4391  0.1274  1.2359
   55MOL    C8713155   3.637   4.097   1.263 -0.0147  0.0904  0.4465
   55MOL    O8813156   3.717   4.021   1.361  0.0527  0.4878  0.4289
   55MOL    C8913157   3.845   4.011   1.344  0.2045 -0.0700  0.5927
   55MOL    C9013158   3.922   3.919   1.441 -1.0025 -0.2227  0.0448
   55MOL    O9113159   3.910   4.070   1.260 -0.9113 -0.1273 -0.0647
   55MOL    H9213160   3.621   4.269   1.400 -0.1141  1.5439 -0.8689
   55MOL    H9313161   3.492   4.160   1.428 -2.9277 -0.2162 -0.7163
   55MOL    H9413162   3.695   4.153   1.189 -1.4564  0.3348 -0.5232
   55MOL    H9513163   4.025   3.912   1.406 -0.6172  0.5266  1.0168
   55MOL    H9613164   3.878   3.821   1.460 -0.7433 -0.3527 -0.0234
   55MOL    H9713165   3.911   3.961   1.541 -0.3047 -0.3089  0.1569
   55MOL    C9813166   3.539   3.993   1.198  0.3796 -0.1859 -0.5754
   55MOL    C9913167   3.607   3.873   1.120  0.2880 -0.6163 -0.5692
   55MOL   O10013168   3.526   3.752   1.117 -0.3127 -0.0713  0.0429
   55MOL   C10113169   3.556   3.648   1.191 -0.6845 -0.2729 -0.4318
   55MOL   C10213170   3.489   3.528   1.135  0.5434  0.0923  0.1683
   55MOL   O10313171   3.622   3.651   1.296  0.3758  0.2881  0.5833
   55MOL   H10413172   3.481   3.949   1.278  0.3789  0.8421 -0.0000
   55MOL   H10513173   3.467   4.037   1.129  0.8012 -0.1390 -0.9954
   55MOL   H10613174   3.698   3.845   1.172  0.5811 -0.6411 -1.0926
   55MOL   H10713175   3.489   3.440   1.199  1.4574 -1.1325 -1.4659
   55MOL   H10813176   3.546   3.507   1.044 -0.7908 -0.6943 -0.4900
   55MOL   H10913177   3.386   3.550   1.108  0.5567  0.7416  0.6195
   55MOL   C11013178   3.644   3.929   0.987 -0.3269 -0.6671 -0.3254
   55MOL   C11113179   3.727   3.830   0.893 -1.0899 -0.5542 -1.1234
   55MOL   O11213180   3.626   3.749   0.830  0.2859 -0.0129  0.3466
   55MOL   C11313181   3.647   3.631   0.785  0.5392  0.3767  0.4260
   55MOL   C11413182   3.526   3.578   0.712 -0.4454  0.5654  0.4487
   55MOL   O11513183   3.745   3.563   0.805  0.4111 -0.2968 -0.8985
   55MOL   H11613184   3.555   3.950   0.928 -1.0342 -2.2545  0.1603
   55MOL   H11713185   3.703   4.020   1.001 -0.8141  0.2923 -3.8951
   55MOL   H11813186   3.790   3.764   0.952 -0.5514 -0.9011 -2.0732
   55MOL   H11913187   3.508   3.630   0.618 -0.3353  1.1064  0.7179
   55MOL   H12013188   3.435   3.600   0.768  0.2153 -0.2040  1.8696
   55MOL   H12113189   3.534   3.473   0.687 -0.0964  0.4663  0.9591
   55MOL   C12213190   3.801   3.907   0.781 -0.0029  0.2027 -0.0365
   55MOL   C12313191   3.941   3.962   0.818 -0.8695 -0.4404  0.0504
   55MOL   O12413192   4.027   3.844   0.836  0.1426  0.2930  0.5355
   55MOL   C12513193   4.069   3.804   0.956 -0.1985 -0.3012 -0.4615
   55MOL   C12613194   4.169   3.690   0.958 -0.2720 -0.0173 -0.9548
   55MOL   O12713195   4.032   3.858   1.056 -0.5352  0.2048 -0.0883
   55MOL   H12813196   3.809   3.845   0.692 -2.4894  0.9572 -0.8409
   55MOL   H12913197   3.727   3.982   0.750  1.8725  1.0311 -2.6808
   55MOL   H13013198   3.941   4.029   0.904  1.9359 -1.6010  1.0149
   55MOL   H13113199   4.260   3.738   0.922 -1.1400  2.3725 -0.0428
   55MOL   H13213200   4.146   3.611   0.886 -1.8256 -0.1436 -0.3272
   55MOL   H13313201   4.176   3.645   1.057 -0.9594 -0.8467 -1.2776
   55MOL   C13413202   4.005   4.040   0.703  0.3842  0.2126  0.5544
   55MOL   C13513203   3.965   4.189   0.679 -0.0902  0.1068  0.3029
   55MOL   O13613204   4.007   4.279   0.784  0.3591  0.1445 -0.4476
   55MOL   C13713205   3.908   4.321   0.873 -0.1702  0.6280 -0.0513
   55MOL   C13813206   3.960   4.402   0.984 -0.4301 -0.0262 -0.6263
   55MOL   O13913207   3.787   4.301   0.872  0.2834 -0.5818 -0.0814
   55MOL   H14013208   4.114   4.043   0.716  0.4545 -2.3222  0.6692
   55MOL   H14113209   3.992   3.986   0.609  0.7415 -1.4468  1.4343
   55MOL   H14213210   3.858   4.194   0.663  0.0638  1.3531 -0.4673
   55MOL   H14313211   4.058   4.362   1.007 -0.7279 -0.0708  0.6189
   55MOL   H14413212   3.898   4.393   1.074 -0.0006  3.4114  0.0607
   55MOL   H14513213   3.969   4.506   0.953 -1.9618  0.1725 -0.4742
   55MOL   C14613214   4.040   4.240   0.552 -0.2452  0.0308  0.0567
   55MOL   C14713215   3.986   4.185   0.425 -0.5820  0.1729  0.0929
   55MOL   O14813216   3.844   4.225   0.404 -0.5626 -0.5738 -0.1753
   55MOL   C14913217   3.748   4.132   0.409 -0.1654 -0.0130 -0.2559
   55MOL   C15013218   3.606   4.170   0.368 -0.0329 -0.1709 -0.1095
   55MOL   O15113219   3.764   4.016   0.454 -1.5886  0.1646  0.2485
   55MOL   H15213220   4.024   4.347   0.540 -0.0606  0.0439 -0.0641
   55MOL   H15313221   4.147   4.223   0.561 -0.7520 -3.1552  0.9527
   55MOL   H15413222   3.987   4.077   0.413  1.2229  0.2428 -0.4196
   55MOL   H15513223   3.614   4.252   0.297 -2.5243  1.4715  1.4211
   55MOL   H15613224   3.553   4.206   0.457  1.6675  1.5164  0.2599
   55MOL   H15713225   3.548   4.094   0.316  0.3024 -1.7063  1.7155
   55MOL   C15813226   4.062   4.238   0.298  0.2399  1.2323  0.1244
   55MOL   C15913227   4.199   4.187   0.271 -0.2151  0.0188  0.3391
   55MOL   O16013228   4.196   4.048   0.246  0.5025 -0.2456  0.5059
   55MOL   C16113229   4.297   3.970   0.288  0.7081  0.6506 -0.3965
   55MOL   C16213230   4.278   3.829   0.246 -0.4902  0.1834 -0.0786
   55MOL   O16313231   4.388   4.004   0.368  0.0491  0.0522  0.4689
   55MOL   H16413232   4.001   4.196   0.218  0.5281  1.6705 -0.3248
   55MOL   H16513233   4.065   4.346   0.291  0.0836  1.1705 -0.9583
   55MOL   H16613234   4.259   4.203   0.360 -1.0669  0.9942  0.7420
   55MOL   H16713235   4.174   3.816   0.219 -0.3537 -1.7073  0.2324
   55MOL   H16813236   4.311   3.754   0.317  1.3075  1.7761  0.8345
   55MOL   H16913237   4.342   3.824   0.158  1.3406  1.1028  1.1699
   55MOL   C17013238   4.268   4.256   0.153  0.3458  0.5432  0.1350
   55MOL   C17113239   4.418   4.242   0.131  0.9127 -0.0235  0.5229
   55MOL   O17213240   4.449   4.280   0.000  0.6686 -0.3420  0.4404
   55MOL   C17313241   4.498   4.181   7.936  0.0079 -0.3639  0.2132
   55MOL   C17413242   4.536   4.251   7.802 -0.2386  1.0365  0.5123
   55MOL   O17513243   4.513   4.061   7.960 -0.4199 -0.0738  0.1764
   55MOL   H17613244   4.215   4.229   0.061 -0.1690 -1.0897  0.8908
   55MOL   H17713245   4.255   4.364   0.164  0.1239  0.6163 -0.7954
   55MOL   H17813246   4.448   4.139   0.152 -0.1418 -0.5758 -0.6616
   55MOL   H17913247   4.613   4.327   7.811  0.9804 -0.0138 -0.8237
   55MOL   H18013248   4.447   4.298   7.762 -0.3979  0.9588  0.7779
   55MOL   H18113249   4.567   4.172   7.733  1.0770  0.3771  1.8221
   55MOL   C18213250   4.507   4.338   0.227 -0.3046 -0.2812  0.3708
   55MOL   C18313251   4.652   4.301   0.207 -0.0418 -0.3139 -0.3703
   55MOL   O18413252   4.744   4.414   0.227 -0.4958  0.1248  0.4425
   55MOL   C18513253   4.769   4.487   0.116  0.0680  0.6140  0.0045
   55MOL   C18613254   4.840   4.619   0.151  0.4918  0.4777  0.5295
   55MOL   O18713255   4.742   4.447   0.003  0.0834 -0.5088  0.0927
   55MOL   H18813256   4.480   4.443   0.214  1.2020  0.1395  0.5301
   55MOL   H18913257   4.488   4.328   0.334 -1.0240  0.4805  0.3277
   55MOL   H19013258   4.652   4.254   0.108 -0.6905  0.2603 -0.6429
   55MOL   H19113259   4.918   4.595   0.223  1.0032  1.0589  0.1831
   55MOL   H19213260   4.771   4.698   0.181  0.6866  1.2502 -1.0013
   55MOL   H19313261   4.889   4.642   0.056  0.1118 -0.3775  0.1262
   55MOL   C19413262   4.689   4.190   0.310 -0.0697  0.0014 -0.5237
   55MOL   C19513263   4.800   4.107   0.243  0.2860  0.0670 -0.2871
   55MOL   O19613264   4.918   4.186   0.209  0.2074 -0.2555 -0.0687
   55MOL   C19713265   4.989   4.143   0.111 -0.0849 -0.5727 -0.3864
   55MOL   C19813266   5.096   4.242   0.072 -0.2384  0.0570 -0.2121
   55MOL   O19913267   4.966   4.040   0.042 -0.0887  0.5735 -0.1568
   55MOL   H20013268   4.720   4.225   0.408  1.3674 -0.1366 -0.9149
   55MOL   H20113269   4.610   4.120   0.339 -0.9905  1.1374 -0.2878
   55MOL   H20213270   4.745   4.067   0.158  0.1836 -0.9451  0.2567
   55MOL   H20313271   5.087   4.339   0.121  1.6537  1.1284 -1.9450
   55MOL   H20413272   5.111   4.256   7.987 -0.9594 -0.9762 -0.4605
   55MOL   H20513273   5.192   4.214   0.115 -0.4932  0.8293  0.8820
   55MOL   C20613274   4.843   3.987   0.336 -0.4332  0.0484  0.2463
   55MOL   C20713275   4.729   3.892   0.394  0.1870 -0.0332  0.7406
   55MOL   O20813276   4.792   3.757   0.392  0.1319 -0.5251  0.5696
   55MOL   C20913277   4.733   3.669   0.307  0.2652 -0.6871 -0.5084
   55MOL   C21013278   4.780   3.531   0.335  0.0548  0.9157  0.0104
   55MOL   O21113279   4.649   3.699   0.219 -0.3526  0.0221  0.1781
   55MOL   H21213280   4.893   3.921   0.264 -1.7190  0.1804 -0.7733
   55MOL   H21313281   4.916   4.014   0.413 -1.3026 -0.3105  1.1956
   55MOL   H21413282   4.643   3.897   0.327  1.4300  1.3322 -0.8214
   55MOL   H21513283   4.852   3.521   0.416  0.9180  1.6821 -0.6445
   55MOL   H21613284   4.827   3.493   0.243 -1.2217  1.7480 -1.0005
   55MOL   H21713285   4.695   3.465   0.354 -0.4551  1.9915  1.5578
   55MOL   C21813286   4.692   3.934   0.539 -0.5341 -0.2396 -0.1493
   55MOL   C21913287   4.622   3.823   0.626 -0.0313 -0.2768 -0.1279
   55MOL   O22013288   4.592   3.872   0.754  0.0602 -0.2499  0.1793
   55MOL   C22113289   4.674   3.863   0.860  0.0052 -0.2796  0.1313
   55MOL   C22213290   4.616   3.928   0.985  0.4585 -0.2149  0.0299
   55MOL   O22313291   4.760   3.777   0.864  0.0196  0.0222 -0.0465
   55MOL   H22413292   4.780   3.959   0.599  0.8478 -1.5814 -1.5710
   55MOL   H22513293   4.640   4.029   0.543  2.5605  1.4571  2.6988
   55MOL   H22613294   4.696   3.744   0.632 -1.7652 -1.8498  1.2610
   55MOL   H22713295   4.526   3.888   1.032  0.1721 -0.1550 -0.4672
   55MOL   H22813296   4.594   4.032   0.960 -0.4247  0.3061  2.8827
   55MOL   H22913297   4.699   3.938   1.055  1.0241  0.9124 -0.7856
   55MOL   C23013298   4.482   3.772   0.568  0.3079 -0.6246  0.2626
   55MOL   C23113299   4.438   3.642   0.637  0.7610  0.0658 -0.0206
   55MOL   O23213300   4.303   3.616   0.629  0.0247 -0.0490  0.6041
   55MOL   C23313301   4.261   3.568   0.516 -0.3925  0.4057  0.0469
   55MOL   C23413302   4.115   3.545   0.495 -0.1448 -0.3057  0.7291
   55MOL   O23513303   4.330   3.516   0.433 -0.2853  0.6882 -0.0429
   55MOL   H23613304   4.406   3.849   0.575  2.1377  1.3464 -0.7772
   55MOL   H23713305   4.498   3.747   0.463 -0.1437  0.8755 -0.1796
   55MOL   H23813306   4.465   3.650   0.743  0.8545  0.1165 -0.0485
   55MOL   H23913307   4.068   3.454   0.533  1.0178 -0.9948  0.5283
   55MOL   H24013308   4.095   3.551   0.388  1.5354  0.6640  0.4529
   55MOL   H24113309   4.071   3.628   0.551  1.0391  0.0164  1.2063
   55MOL   H24213310   4.493   3.550   0.618  1.0503 -0.4844  3.1158
   56MOL     C113311   2.428   7.240   4.636  0.0911 -0.2555 -0.0156
   56MOL     C213312   2.472   7.244   4.491 -0.3774 -0.4710 -0.1531
   56MOL     O313313   2.603   7.179   4.484  0.5791  0.3136  0.0316
   56MOL     C413314   2.713   7.221   4.400  0.1233  0.0842  0.5260
   56MOL     C513315   2.841   7.148   4.418  0.2471 -0.3623  0.4999
   56MOL     O613316   2.703   7.307   4.315  0.4283 -0.1696 -0.2853
   56MOL     H713317   2.336   7.291   4.663  0.0263  0.2945 -1.2698
   56MOL     H813318   2.502   7.293   4.696  0.8547 -0.2210 -0.9694
   56MOL     H913319   2.488   7.349   4.467  0.4266 -0.2105  1.4089
   56MOL    H1013320   2.893   7.187   4.506 -0.1311  1.1143  0.0845
   56MOL    H1113321   2.898   7.160   4.326  1.3956 -0.8550  1.1370
   56MOL    H1213322   2.823   7.041   4.423 -2.1639  0.0757  2.2363
   56MOL    H1313323   2.425   7.138   4.677  0.4333  0.0627  0.8214
   56MOL    C1413324   2.360   7.182   4.405 -0.0195 -0.0289 -0.5027
   56MOL    C1513325   2.393   7.180   4.251 -0.0482 -0.1884 -0.2721
   56MOL    O1613326   2.299   7.095   4.191 -0.0781 -0.1726  0.3992
   56MOL    C1713327   2.336   7.009   4.095 -0.0388  0.3239  0.0065
   56MOL    C1813328   2.224   6.949   4.012  0.4347 -0.7080 -0.9220
   56MOL    O1913329   2.455   6.971   4.078  0.3809 -0.6809 -0.2576
   56MOL    H2013330   2.362   7.078   4.435 -2.5986 -0.5464 -1.9926
   56MOL    H2113331   2.262   7.226   4.424 -0.6576 -0.3759 -2.7634
   56MOL    H2213332   2.490   7.132   4.236  0.1545 -0.4298  1.6958
   56MOL    H2313333   2.185   7.028   3.947  0.9359  0.6778  0.4172
   56MOL    H2413334   2.150   6.907   4.080  1.7066 -2.1803 -0.4301
   56MOL    H2513335   2.267   6.876   3.944  1.1035  1.5072 -2.9541
   56MOL    C2613336   2.396   7.320   4.185  0.1254  0.8768 -0.3899
   56MOL    C2713337   2.443   7.327   4.036  0.1177  0.8701 -0.0062
   56MOL    O2813338   2.392   7.449   3.974  0.2823  0.4648  0.1276
   56MOL    C2913339   2.269   7.461   3.947 -0.3726  0.5370 -0.4213
   56MOL    C3013340   2.229   7.592   3.884 -0.2216 -0.2098  0.6372
   56MOL    O3113341   2.195   7.364   3.966  0.3812 -0.7593  0.2036
   56MOL    H3213342   2.299   7.369   4.195 -0.6649 -0.5045 -1.1693
   56MOL    H3313343   2.464   7.382   4.243  1.1988  1.1796 -1.9245
   56MOL    H3413344   2.403   7.238   3.988 -2.0529  0.0780  3.0696
   56MOL    H3513345   2.125   7.605   3.912 -0.4724  1.7307 -1.1178
   56MOL    H3613346   2.241   7.582   3.776  1.1241  0.4464  0.7084
   56MOL    H3713347   2.288   7.674   3.926  1.0024  0.0757 -1.5662
   56MOL    C3813348   2.596   7.324   4.019 -0.4727 -0.5149  1.0363
   56MOL    C3913349   2.646   7.307   3.875  0.6442  0.3227 -0.1703
   56MOL    O4013350   2.785   7.308   3.870  0.1574 -0.3257 -0.3448
   56MOL    C4113351   2.848   7.362   3.765  0.2783  0.7614 -0.0782
   56MOL    C4213352   2.992   7.395   3.795  0.3331 -0.7461  0.0375
   56MOL    O4313353   2.799   7.409   3.667  0.4381 -0.0624 -0.2963
   56MOL    H4413354   2.634   7.418   4.058  0.7003 -0.2230 -0.7460
   56MOL    H4513355   2.641   7.245   4.080 -0.6926 -1.5525 -0.1156
   56MOL    H4613356   2.616   7.391   3.812 -0.1027 -0.4033 -0.8018
   56MOL    H4713357   2.998   7.454   3.886  1.6071  1.1638 -1.2653
   56MOL    H4813358   3.038   7.452   3.715  0.8216 -0.5804  0.4339
   56MOL    H4913359   3.050   7.304   3.812  2.6205  1.0704  2.4536
   56MOL    C5013360   2.590   7.184   3.807  0.2066  0.0106 -0.2233
   56MOL    C5113361   2.474   7.214   3.704 -0.5393  0.4574  0.0109
   56MOL    O5213362   2.525   7.281   3.593 -0.2420  0.1076  0.2334
   56MOL    C5313363   2.494   7.406   3.571  0.0842  0.4095  0.2006
   56MOL    C5413364   2.580   7.471   3.462 -0.3302 -0.1778 -0.3393
   56MOL    O5513365   2.403   7.473   3.630 -0.5791  1.1054  0.1336
   56MOL    H5613366   2.666   7.128   3.752  1.2482  1.5688 -0.4259
   56MOL    H5713367   2.545   7.121   3.884 -0.6802  0.4125 -0.4069
   56MOL    H5813368   2.398   7.268   3.762 -0.7909  0.3710 -0.2387
   56MOL    H5913369   2.677   7.508   3.494 -0.2285  1.2449 -2.2143
   56MOL    H6013370   2.522   7.548   3.410  0.9929  1.0830  0.0395
   56MOL    H6113371   2.610   7.394   3.391 -1.1058 -1.1215  0.3286
   56MOL    C6213372   2.413   7.080   3.660 -0.2410 -0.1256  0.2523
   56MOL    C6313373   2.287   7.091   3.580  0.1475 -0.5981  0.1150
   56MOL    O6413374   2.239   6.972   3.521  0.4435 -0.0881  0.2141
   56MOL    C6513375   2.295   6.912   3.414  0.1291 -0.2740  0.8416
   56MOL    C6613376   2.219   6.785   3.374 -0.4043 -0.1846  0.2790
   56MOL    O6713377   2.396   6.956   3.369 -0.1151  0.2135  1.0421
   56MOL    H6813378   2.483   7.025   3.597  0.3854 -1.7327  2.3304
   56MOL    H6913379   2.389   7.025   3.750  0.7028  1.9424  1.8090
   56MOL    H7013380   2.325   7.157   3.501  2.3584  0.0514  1.6940
   56MOL    H7113381   2.175   6.788   3.275  0.1750 -0.8925 -0.0051
   56MOL    H7213382   2.131   6.778   3.438 -0.3988 -0.6101  0.2380
   56MOL    H7313383   2.285   6.699   3.382  0.3782  0.1888 -1.8293
   56MOL    C7413384   2.170   7.176   3.643  0.0277 -0.2350 -0.3371
   56MOL    C7513385   2.045   7.184   3.550  0.0710  0.4068 -0.2917
   56MOL    O7613386   1.938   7.101   3.605  0.3535 -0.0737 -0.1628
   56MOL    C7713387   1.851   7.028   3.546 -0.5946  0.7796 -0.6620
   56MOL    C7813388   1.758   6.974   3.645 -0.0298 -0.1097 -0.1024
   56MOL    O7913389   1.846   6.998   3.428 -0.6152 -1.4771 -0.1318
   56MOL    H8013390   2.147   7.123   3.736  0.8559  0.3020  0.1753
   56MOL    H8113391   2.201   7.275   3.677 -0.2804 -0.2948  0.1283
   56MOL    H8213392   2.063   7.138   3.453 -1.4475 -4.0610  1.3755
   56MOL    H8313393   1.659   6.970   3.599  0.4516 -2.7607 -0.9863
   56MOL    H8413394   1.743   7.031   3.737 -0.4487  0.1784 -0.3445
   56MOL    H8513395   1.780   6.873   3.679 -2.7935 -0.6005  0.4074
   56MOL    C8613396   1.987   7.323   3.530 -0.0493 -0.4155 -0.0022
   56MOL    C8713397   2.071   7.425   3.451  0.2450  0.1357 -0.2540
   56MOL    O8813398   2.094   7.384   3.316  0.2913 -0.0222 -0.6309
   56MOL    C8913399   2.214   7.384   3.261 -0.4315 -0.0123  0.1729
   56MOL    C9013400   2.213   7.313   3.129 -0.2482  0.4512  0.6842
   56MOL    O9113401   2.319   7.434   3.299  0.0809  0.2702  0.0233
   56MOL    H9213402   1.893   7.303   3.479 -1.2945 -0.1664  2.1438
   56MOL    H9313403   1.958   7.365   3.626  0.2650  0.1253 -0.1391
   56MOL    H9413404   2.166   7.447   3.500  0.2563  1.7875 -0.9981
   56MOL    H9513405   2.110   7.306   3.096 -0.2926 -0.9402  1.0911
   56MOL    H9613406   2.249   7.212   3.152 -1.3702  0.0539  0.7238
   56MOL    H9713407   2.266   7.354   3.043 -1.6890 -0.2454 -0.5510
   56MOL    C9813408   1.993   7.555   3.427 -0.2744 -0.1706 -0.8764
   56MOL    C9913409   2.090   7.669   3.384 -0.5878 -0.1069 -0.5476
   56MOL   O10013410   2.017   7.759   3.301  0.3846  0.2922 -0.4564
   56MOL   C10113411   2.027   7.765   3.167  0.1209  0.0639 -0.1964
   56MOL   C10213412   1.926   7.856   3.102  0.6548  0.2751  0.0762
   56MOL   O10313413   2.093   7.685   3.095  0.3846 -1.1815  0.1552
   56MOL   H10413414   1.901   7.536   3.371 -2.2611 -0.2482  2.2772
   56MOL   H10513415   1.953   7.580   3.526 -0.7236  0.7972 -1.2978
   56MOL   H10613416   2.172   7.628   3.325 -0.7532 -1.2021 -0.0372
   56MOL   H10713417   1.950   7.872   2.996  1.5834 -1.4579  0.0028
   56MOL   H10813418   1.917   7.953   3.150  0.2495  0.6800 -0.8053
   56MOL   H10913419   1.829   7.810   3.121  0.8141 -0.2988 -0.4779
   56MOL   C11013420   2.144   7.750   3.506  0.2823 -0.2769 -0.1196
   56MOL   C11113421   2.251   7.864   3.464  0.1436  0.6857  0.1959
   56MOL   O11213422   2.287   7.926   3.587 -0.5707 -0.0562  0.6387
   56MOL   C11313423   2.241   0.018   3.620 -0.0717 -0.5913 -0.0669
   56MOL   C11413424   2.319   0.079   3.739 -0.0963 -0.2261  0.6031
   56MOL   O11513425   2.145   0.075   3.570 -0.0990  0.0288 -0.1418
   56MOL   H11613426   2.060   7.797   3.556  0.3086  1.8934 -2.0337
   56MOL   H11713427   2.195   7.688   3.579  1.9694  1.8261  0.5565
   56MOL   H11813428   2.189   7.927   3.401 -0.3437 -0.4143 -0.4438
   56MOL   H11913429   2.414   0.127   3.717 -0.8154  0.2653 -1.6299
   56MOL   H12013430   2.336   0.006   3.817  1.0959  0.3500  0.9028
   56MOL   H12113431   2.253   0.157   3.777  0.0510  0.5047 -0.6038
   56MOL   C12213432   2.379   7.797   3.407 -0.4115 -0.1790 -0.9003
   56MOL   C12313433   2.476   7.901   3.350  0.3093 -0.0134  0.2954
   56MOL   O12413434   2.601   7.843   3.328  0.1193  0.2798  0.1335
   56MOL   C12513435   2.690   7.840   3.429  0.2873  0.0995  0.4964
   56MOL   C12613436   2.823   7.794   3.377  0.9260 -0.0360 -0.0759
   56MOL   O12713437   2.669   7.871   3.550  0.5502  0.4633  0.0238
   56MOL   H12813438   2.433   7.741   3.483  2.6845  0.2567 -2.7050
   56MOL   H12913439   2.345   7.738   3.322 -1.6616  0.1517 -0.6397
   56MOL   H13013440   2.482   7.986   3.418 -0.4263  1.4318 -1.3983
   56MOL   H13113441   2.806   7.694   3.335 -1.5035 -1.1323  3.3076
   56MOL   H13213442   2.897   7.778   3.455  0.6003 -1.4328 -0.0246
   56MOL   H13313443   2.867   7.847   3.293 -0.1529 -1.2155 -1.4144
   56MOL   C13413444   2.429   7.953   3.210  0.7606 -0.3463  0.0521
   56MOL   C13513445   2.512   0.044   3.158 -0.0428 -0.1254 -0.0492
   56MOL   O13613446   2.624   8.005   3.087 -0.0151  0.0181 -0.3251
   56MOL   C13713447   2.739   0.057   3.061  0.3255 -0.0828  0.0761
   56MOL   C13813448   2.843   7.996   2.984  0.2164  0.9135  0.1123
   56MOL   O13913449   2.756   0.179   3.072  0.5258 -0.5595  0.8220
   56MOL   H14013450   2.415   7.876   3.133  3.9928 -3.1412  2.1263
   56MOL   H14113451   2.326   7.986   3.225  0.6426 -0.8772  0.4649
   56MOL   H14213452   2.547   0.101   3.243 -0.7375  1.5655 -0.8834
   56MOL   H14313453   2.822   8.011   2.878  1.8906 -1.5510 -0.6204
   56MOL   H14413454   2.841   7.892   3.015 -4.2607  1.0622  0.6683
   56MOL   H14513455   2.941   0.018   3.003  0.6303 -0.9835  2.5220
   56MOL   C14613456   2.426   0.133   3.067 -0.9341 -0.3113  0.3165
   56MOL   C14713457   2.390   0.271   3.124  0.2045  0.4609 -0.6042
   56MOL   O14813458   2.289   0.241   3.223  0.2473  0.2309  0.0650
   56MOL   C14913459   2.163   0.253   3.190  0.1234 -0.3596  0.1206
   56MOL   C15013460   2.063   0.212   3.301 -0.0656 -0.3186 -0.5162
   56MOL   O15113461   2.121   0.298   3.085  0.2723 -0.2958 -0.1629
   56MOL   H15213462   2.490   0.150   2.980 -2.3222  0.3551 -0.5941
   56MOL   H15313463   2.338   0.087   3.021 -1.0948  2.0413 -1.8240
   56MOL   H15413464   2.341   0.330   3.046 -2.8931 -0.9156  0.2361
   56MOL   H15513465   2.080   0.258   3.398 -0.3748  0.8262 -0.9947
   56MOL   H15613466   2.081   0.105   3.315 -1.6636 -0.3624  1.3664
   56MOL   H15713467   1.959   0.233   3.276 -0.0433  1.6802  1.0001
   56MOL   C15813468   2.507   0.355   3.176 -0.0971 -0.1597  0.6603
   56MOL   C15913469   2.466   0.501   3.209 -0.2507  0.2672 -0.0449
   56MOL   O16013470   2.401   0.501   3.337  0.7493 -0.2056 -0.3230
   56MOL   C16113471   2.295   0.587   3.359 -0.4244 -0.1970  0.4082
   56MOL   C16213472   2.223   0.580   3.494 -0.2608  0.2564  0.4334
   56MOL   O16313473   2.259   0.665   3.276 -0.5794  0.0370  0.2102
   56MOL   H16413474   2.561   0.314   3.262  1.7300  0.4982 -0.1394
   56MOL   H16513475   2.588   0.362   3.103  0.5084  5.3480  1.6551
   56MOL   H16613476   2.395   0.530   3.132 -1.2080 -1.9029 -0.0229
   56MOL   H16713477   2.263   0.648   3.570  2.1658 -1.7582  1.0171
   56MOL   H16813478   2.222   0.477   3.528 -0.7036 -0.7139 -2.3799
   56MOL   H16913479   2.120   0.607   3.469  0.5858  1.6925 -1.7370
   56MOL   C17013480   2.595   0.594   3.206 -0.0718  0.2602 -0.7723
   56MOL   C17113481   2.649   0.639   3.067  0.1855  0.6141  0.0504
   56MOL   O17213482   2.555   0.735   3.026 -0.0868 -0.2677 -0.5209
   56MOL   C17313483   2.524   0.757   2.901  0.1070  0.0685  0.1896
   56MOL   C17413484   2.420   0.871   2.883  0.1904  0.1104  0.2839
   56MOL   O17513485   2.565   0.701   2.800 -0.4684 -0.0568 -0.6565
   56MOL   H17613486   2.584   0.683   3.269  1.7873  1.1888 -1.6960
   56MOL   H17713487   2.674   0.534   3.250 -1.0740 -1.0283 -0.7322
   56MOL   H17813488   2.637   0.549   3.007 -1.8886  0.9544 -0.1041
   56MOL   H17913489   2.477   0.964   2.892 -0.9036  0.8295 -0.1874
   56MOL   H18013490   2.333   0.869   2.949 -1.8392  0.3126 -2.2873
   56MOL   H18113491   2.394   0.863   2.778  0.0897 -0.0542  0.3198
   56MOL   C18213492   2.797   0.698   3.076  0.2515 -0.4677 -0.1880
   56MOL   C18313493   2.915   0.599   3.073  0.2081 -0.5752  0.0188
   56MOL   O18413494   2.917   0.513   3.190  0.8044 -0.1358 -0.6488
   56MOL   C18513495   2.988   0.546   3.294  0.3426 -0.2594  0.4192
   56MOL   C18613496   2.979   0.430   3.397 -0.0325  0.1416 -0.4825
   56MOL   O18713497   3.058   0.653   3.305 -0.0444  0.1673  0.2207
   56MOL   H18813498   2.814   0.768   2.994  0.3464  0.1199  0.3265
   56MOL   H18913499   2.810   0.751   3.171  2.2521 -0.6051 -0.3704
   56MOL   H19013500   3.005   0.659   3.079  1.3107 -2.2845  1.2427
   56MOL   H19113501   2.889   0.369   3.389 -0.9995  1.0641  2.7271
   56MOL   H19213502   2.982   0.457   3.503  1.0720  0.8318 -0.6839
   56MOL   H19313503   3.075   0.380   3.389 -0.0810 -0.0677  0.1967
   56MOL   C19413504   2.912   0.502   2.949 -0.0581  0.7914  0.3375
   56MOL   C19513505   3.048   0.431   2.911 -0.0794  0.1705  0.0112
   56MOL   O19613506   3.060   0.311   2.986 -0.3167  0.2673  0.1683
   56MOL   C19713507   3.168   0.301   3.057 -0.6438  0.5151  0.1770
   56MOL   C19813508   3.151   0.192   3.161 -0.0914 -0.0800  0.7315
   56MOL   O19913509   3.274   0.355   3.039  0.2936 -0.6534 -0.1317
   56MOL   H20013510   2.827   0.433   2.953  1.1222 -0.6193  1.3989
   56MOL   H20113511   2.886   0.565   2.863  3.2205  1.8922  0.0873
   56MOL   H20213512   3.124   0.505   2.934 -1.7040  2.1182 -0.7221
   56MOL   H20313513   3.084   0.241   3.232 -0.0617 -0.8372  1.2872
   56MOL   H20413514   3.245   0.186   3.217 -0.4118 -0.8445  1.1922
   56MOL   H20513515   3.108   0.098   3.128  2.2894 -0.3984 -1.6292
   56MOL   C20613516   3.053   0.385   2.762 -0.2183  0.2045  0.1753
   56MOL   C20713517   3.197   0.375   2.703  0.2162 -0.1014  0.2736
   56MOL   O20813518   3.267   0.260   2.745 -0.2755  0.3966 -0.1610
   56MOL   C20913519   3.401   0.266   2.761  0.6032 -0.4741  0.2739
   56MOL   C21013520   3.460   0.137   2.808  0.4386 -0.5190 -0.0081
   56MOL   O21113521   3.474   0.360   2.749 -1.0704  0.0587  0.4699
   56MOL   H21213522   2.988   0.300   2.744 -3.0501  2.4496 -0.4332
   56MOL   H21313523   3.018   0.469   2.703  1.6628 -0.5182 -2.0256
   56MOL   H21413524   3.254   0.461   2.736  1.0156 -0.4956 -0.0607
   56MOL   H21513525   3.482   0.055   2.740 -0.1677 -1.7640  1.2609
   56MOL   H21613526   3.394   0.107   2.889  0.3000  0.6182  0.3089
   56MOL   H21713527   3.560   0.150   2.850  0.9959  1.9523 -1.9457
   56MOL   C21813528   3.196   0.366   2.548  0.2744  0.5224  0.8940
   56MOL   C21913529   3.171   0.238   2.468  0.4560 -0.3942  0.6760
   56MOL   O22013530   3.048   0.192   2.506 -0.3650 -0.1659  0.1632
   56MOL   C22113531   3.044   0.077   2.562  0.4154 -0.1698  0.2357
   56MOL   C22213532   2.909   0.022   2.595 -0.1452  0.1344  0.1421
   56MOL   O22313533   3.138   0.013   2.594 -0.2833  0.0538  0.0087
   56MOL   H22413534   3.127   0.440   2.508 -0.9171 -0.7276  0.5811
   56MOL   H22513535   3.296   0.396   2.515 -0.0291  0.0397 -0.4969
   56MOL   H22613536   3.249   0.162   2.473  0.5137 -0.3200  0.9084
   56MOL   H22713537   2.835   0.049   2.520 -1.4881  0.5426  1.5906
   56MOL   H22813538   2.888   0.076   2.688  0.6186 -0.6482  0.7852
   56MOL   H22913539   2.904   7.936   2.611 -0.5773 -0.1816 -2.0744
   56MOL   C23013540   3.156   0.248   2.316 -0.1395 -0.1981  0.3176
   56MOL   C23113541   3.038   0.330   2.260  0.1390 -0.4231 -0.4029
   56MOL   O23213542   2.913   0.262   2.254 -0.7021 -0.1470  0.5697
   56MOL   C23313543   2.810   0.303   2.325  0.9108  0.5820  0.1824
   56MOL   C23413544   2.685   0.223   2.299 -0.4721  1.2301 -0.1225
   56MOL   O23513545   2.804   0.398   2.410 -0.6842 -0.1519 -0.0505
   56MOL   H23613546   3.248   0.283   2.270  0.6045 -1.5900  0.7222
   56MOL   H23713547   3.130   0.146   2.287 -1.9968  0.5184 -0.6909
   56MOL   H23813548   3.052   0.350   2.154  1.9347  1.9102  0.2361
   56MOL   H23913549   2.717   0.135   2.243 -0.8738  0.4138  0.8936
   56MOL   H24013550   2.612   0.290   2.254  0.9534  2.3157 -0.8341
   56MOL   H24113551   2.625   0.200   2.388  1.2246 -1.7163  0.3213
   56MOL   H24213552   3.029   0.419   2.322  1.0135 -1.2518  0.9412
   57MOL     C113553   3.688   7.120   7.561  0.4022  0.1831 -0.4710
   57MOL     C213554   3.619   6.983   7.583 -0.5888  0.5895  0.3617
   57MOL     O313555   3.510   6.971   7.493  0.5609 -0.2123 -0.0613
   57MOL     C413556   3.380   6.982   7.530 -0.0850 -0.2535  0.4778
   57MOL     C513557   3.285   6.911   7.438  0.2969  0.5712 -0.5866
   57MOL     O613558   3.334   7.044   7.623 -0.2883  0.2907 -0.1269
   57MOL     H713559   3.608   7.194   7.559 -1.0537 -1.3232  0.5567
   57MOL     H813560   3.738   7.121   7.464 -1.1834 -3.1536 -1.3981
   57MOL     H913561   3.589   6.950   7.682  0.0669 -1.3712 -0.0559
   57MOL    H1013562   3.235   6.830   7.491 -1.6274  0.1882 -2.8947
   57MOL    H1113563   3.335   6.876   7.348 -1.3721  0.3105 -1.4440
   57MOL    H1213564   3.213   6.986   7.403  0.8626  1.1485 -0.5237
   57MOL    H1313565   3.756   7.146   7.642  1.5715  0.3384 -1.4773
   57MOL    C1413566   3.721   6.864   7.543  0.2756 -1.0103  0.1027
   57MOL    C1513567   3.661   6.727   7.551  0.3295 -0.3091  0.2670
   57MOL    O1613568   3.730   6.639   7.458  0.8627 -0.3735 -0.2710
   57MOL    C1713569   3.666   6.523   7.416  0.4987 -0.0162 -0.3618
   57MOL    C1813570   3.750   6.443   7.321  0.4997 -0.5420  0.2188
   57MOL    O1913571   3.554   6.490   7.445 -0.4349 -0.4848  0.0360
   57MOL    H2013572   3.751   6.888   7.441  0.5939  1.7591  0.8209
   57MOL    H2113573   3.810   6.850   7.604 -0.0851 -1.7797  0.4544
   57MOL    H2213574   3.554   6.734   7.533  0.5391  1.2614 -0.4476
   57MOL    H2313575   3.852   6.441   7.359  1.2138 -1.1252 -1.6840
   57MOL    H2413576   3.740   6.490   7.223  1.4813  2.0040  1.3045
   57MOL    H2513577   3.704   6.344   7.313 -1.2497  0.3405 -0.8593
   57MOL    C2613578   3.675   6.674   7.699  0.4055  0.0102  0.4442
   57MOL    C2713579   3.536   6.699   7.780  0.6000  0.4298  0.0806
   57MOL    O2813580   3.434   6.636   7.703  0.1022  0.5379  0.0937
   57MOL    C2913581   3.300   6.672   7.706 -0.0213 -0.0986 -0.7181
   57MOL    C3013582   3.222   6.589   7.597  0.8617  0.6687 -0.0389
   57MOL    O3113583   3.242   6.763   7.772  0.0157 -0.6378 -0.0268
   57MOL    H3213584   3.691   6.567   7.692 -3.2143 -0.4988 -1.8012
   57MOL    H3313585   3.761   6.715   7.751 -0.1135  1.6024  0.0854
   57MOL    H3413586   3.505   6.804   7.783 -1.2804  0.0047 -2.5054
   57MOL    H3513587   3.294   6.550   7.526  3.2748  3.0255  1.0286
   57MOL    H3613588   3.137   6.634   7.546  0.0150  0.0314  0.7838
   57MOL    H3713589   3.195   6.495   7.645  0.7164 -1.3533 -3.8999
   57MOL    C3813590   3.523   6.649   7.924 -0.2056  0.2150 -0.9256
   57MOL    C3913591   3.631   6.719   8.018  0.1907  0.3791 -0.2112
   57MOL    O4013592   3.598   6.862   0.010  0.1623 -0.1206  0.5567
   57MOL    C4113593   3.664   6.954   7.949 -0.0575  0.1971  1.2345
   57MOL    C4213594   3.607   7.095   7.956 -0.2855 -0.2404  0.0560
   57MOL    O4313595   3.746   6.925   7.865 -0.1964 -0.1733  0.6707
   57MOL    H4413596   3.423   6.670   7.962  0.8921  1.7559  1.2578
   57MOL    H4513597   3.527   6.540   7.927  1.6874  0.3083  0.5892
   57MOL    H4613598   3.727   6.710   7.966  0.3937  0.5919  0.1184
   57MOL    H4713599   3.573   7.116   0.036 -3.6624 -3.7041 -0.2635
   57MOL    H4813600   3.528   7.119   7.885 -0.1734  2.0615  0.6615
   57MOL    H4913601   3.694   7.160   7.947 -0.1014 -0.4253  0.4796
   57MOL    C5013602   3.646   6.659   0.139 -0.3939  0.3142 -0.4312
   57MOL    C5113603   3.716   6.520   0.145  0.4481  0.2202  0.5286
   57MOL    O5213604   3.857   6.556   0.144 -0.4433  0.1485 -0.0711
   57MOL    C5313605   3.927   6.541   0.032 -0.0698 -0.7541  0.0542
   57MOL    C5413606   4.082   6.553   0.053  0.0945  0.2973 -0.5306
   57MOL    O5513607   3.885   6.502   7.945  0.1870 -0.2741  0.2001
   57MOL    H5613608   3.689   6.736   0.203 -0.4272 -0.2491  0.2781
   57MOL    H5713609   3.547   6.652   0.185  0.1573  0.8756  0.8614
   57MOL    H5813610   3.689   6.465   0.054  0.1332  2.2159 -0.6250
   57MOL    H5913611   4.096   6.642   0.115 -1.1807 -0.6575  1.1439
   57MOL    H6013612   4.139   6.576   7.984  1.2812  0.3121  0.2153
   57MOL    H6113613   4.122   6.471   0.111 -0.2249  1.4719  1.3943
   57MOL    C6213614   3.687   6.444   0.281 -0.0842  0.1758 -0.2086
   57MOL    C6313615   3.579   6.329   0.271  0.0557  0.0551 -0.0807
   57MOL    O6413616   3.648   6.205   0.239  0.0577  0.3159  0.9522
   57MOL    C6513617   3.589   6.113   0.156 -0.5720 -0.3638  0.1109
   57MOL    C6613618   3.665   5.987   0.166 -0.1081  0.1387  0.4897
   57MOL    O6713619   3.478   6.125   0.097  0.0415 -0.3184 -0.0987
   57MOL    H6813620   3.772   6.380   0.307 -0.4237 -0.5857 -0.9634
   57MOL    H6913621   3.668   6.523   0.353  2.5252  0.5043  0.1895
   57MOL    H7013622   3.508   6.357   0.193  0.9353 -0.4312 -1.0616
   57MOL    H7113623   3.595   5.907   0.189  2.1764 -2.7094 -2.0912
   57MOL    H7213624   3.742   5.989   0.244 -0.0439  1.5845  0.3948
   57MOL    H7313625   3.722   5.953   0.080 -0.2493  0.4951  0.2576
   57MOL    C7413626   3.494   6.314   0.402 -0.1333 -0.3041 -0.0522
   57MOL    C7513627   3.360   6.233   0.389  0.1800 -0.4463  0.2147
   57MOL    O7613628   3.343   6.145   0.496  0.2989  0.0430 -0.0558
   57MOL    C7713629   3.400   6.024   0.491  0.1606  0.7159  0.1171
   57MOL    C7813630   3.381   5.959   0.623 -0.0685  0.1549 -0.1868
   57MOL    O7913631   3.472   5.982   0.403 -0.4127 -0.5105 -0.4357
   57MOL    H8013632   3.558   6.262   0.472 -1.5108 -2.7719 -0.5555
   57MOL    H8113633   3.476   6.411   0.449 -0.2632 -0.2305 -0.2527
   57MOL    H8213634   3.353   6.181   0.293  0.4747 -5.4124  2.7169
   57MOL    H8313635   3.285   5.993   0.661 -0.0113 -0.7303  0.7420
   57MOL    H8413636   3.465   5.979   0.689 -0.3232 -2.4616  0.9922
   57MOL    H8513637   3.373   5.851   0.616  2.9552 -0.1044 -0.4413
   57MOL    C8613638   3.231   6.317   0.390 -0.2040  0.2758  0.0603
   57MOL    C8713639   3.213   6.409   0.266 -0.4823 -0.0427 -0.5040
   57MOL    O8813640   3.191   6.317   0.158 -0.0299  0.8216  0.4685
   57MOL    C8913641   3.223   6.365   0.031 -0.4762 -0.2192 -0.0987
   57MOL    C9013642   3.217   6.270   7.940  0.3844  0.5463 -0.3332
   57MOL    O9113643   3.249   6.482   0.011 -0.0460 -0.2011  0.3133
   57MOL    H9213644   3.143   6.255   0.403 -1.0210  1.1204 -1.3789
   57MOL    H9313645   3.234   6.380   0.478  2.0992 -2.1006  1.7640
   57MOL    H9413646   3.303   6.462   0.234 -0.0566 -1.0250 -0.9712
   57MOL    H9513647   3.166   6.188   7.990 -1.5939  2.2456  0.4930
   57MOL    H9613648   3.319   6.234   7.924  0.5017  0.8152 -0.1983
   57MOL    H9713649   3.172   6.311   7.850  0.1797  1.9927  0.4106
   57MOL    C9813650   3.091   6.502   0.270 -0.5771 -0.4545  0.0675
   57MOL    C9913651   3.083   6.606   0.381  0.0878 -0.0131 -0.3646
   57MOL   O10013652   3.164   6.724   0.353  0.3852  0.1504  0.2550
   57MOL   C10113653   3.295   6.732   0.391 -0.2857  0.4840 -0.1477
   57MOL   C10213654   3.381   6.854   0.350  0.0407 -0.4711 -0.2606
   57MOL   O10313655   3.342   6.650   0.466  0.2729 -0.0951  0.5114
   57MOL   H10413656   3.079   6.555   0.176  2.0689 -0.8631 -0.5393
   57MOL   H10513657   2.998   6.444   0.273 -0.4044 -0.7289  0.1888
   57MOL   H10613658   3.120   6.579   0.480 -0.3920  1.5746  0.2622
   57MOL   H10713659   3.483   6.832   0.383 -0.6848 -1.6678  1.2246
   57MOL   H10813660   3.356   6.933   0.420  0.3986 -0.6963  0.1210
   57MOL   H10913661   3.390   6.880   0.244  1.5477 -0.4895 -0.1535
   57MOL   C11013662   2.940   6.658   0.402  0.5128 -0.2463  0.3612
   57MOL   C11113663   2.838   6.562   0.463 -0.1645  0.7035  0.1746
   57MOL   O11213664   2.863   6.562   0.600  0.4868  0.8488  0.2104
   57MOL   C11313665   2.925   6.459   0.660 -0.2120  0.5737 -0.4803
   57MOL   C11413666   2.952   6.491   0.812 -1.0935  0.6066  0.1498
   57MOL   O11513667   2.976   6.364   0.601 -0.0956 -0.0461 -0.1668
   57MOL   H11613668   2.931   6.749   0.461 -0.0836 -1.4037  2.0893
   57MOL   H11713669   2.904   6.706   0.310 -1.2354  0.7878  1.5534
   57MOL   H11813670   2.842   6.464   0.417 -1.3489  0.8861 -0.3462
   57MOL   H11913671   3.031   6.564   0.828 -2.7443  2.3013  0.7038
   57MOL   H12013672   2.975   6.394   0.855 -0.7860  0.6186  0.0137
   57MOL   H12113673   2.860   6.531   0.856 -0.5327  1.6379  0.3827
   57MOL   C12213674   2.689   6.605   0.449  0.1633 -0.2496  1.1197
   57MOL   C12313675   2.573   6.515   0.505  0.5652 -0.2710  0.5982
   57MOL   O12413676   2.458   6.603   0.507 -0.4606  0.2185 -0.1551
   57MOL   C12513677   2.378   6.606   0.620  0.1082  0.2955  0.2311
   57MOL   C12613678   2.243   6.684   0.597 -0.3080 -0.1635  0.4329
   57MOL   O12713679   2.400   6.551   0.727  0.3875  0.1366 -0.4596
   57MOL   H12813680   2.679   6.705   0.490  0.9470 -0.2132  1.2260
   57MOL   H12913681   2.667   6.612   0.343  1.3569 -0.0085  0.8809
   57MOL   H13013682   2.594   6.489   0.608 -1.2772 -0.0393  1.0391
   57MOL   H13113683   2.243   6.741   0.505 -3.1570 -0.8744 -0.0699
   57MOL   H13213684   2.232   6.754   0.679  2.9593  0.8356  0.0715
   57MOL   H13313685   2.164   6.609   0.610 -0.1697 -0.4173 -0.1894
   57MOL   C13413686   2.544   6.388   0.419 -0.0295 -0.2825  1.0606
   57MOL   C13513687   2.493   6.273   0.504  0.1294  0.8169  1.2919
   57MOL   O13613688   2.364   6.291   0.563  0.3568  0.1880  0.2187
   57MOL   C13713689   2.327   6.228   0.674  0.4947 -0.4838  0.2653
   57MOL   C13813690   2.193   6.276   0.726 -0.8685 -0.1506 -0.1759
   57MOL   O13913691   2.380   6.132   0.725  0.1710  0.5360 -0.5744
   57MOL   H14013692   2.475   6.403   0.336  0.3963 -1.0403  0.5616
   57MOL   H14113693   2.634   6.358   0.365  0.0623  0.8300  0.5893
   57MOL   H14213694   2.562   6.259   0.588  1.2782  1.6956  0.5008
   57MOL   H14313695   2.131   6.189   0.747 -1.3000 -0.1570 -1.3809
   57MOL   H14413696   2.152   6.335   0.643  0.0211  0.8794  0.1052
   57MOL   H14513697   2.204   6.354   0.801 -0.7218  2.4862 -2.8316
   57MOL   C14613698   2.490   6.133   0.430 -0.7270  0.0505 -0.3733
   57MOL   C14713699   2.628   6.059   0.421  0.4530 -0.7214  0.2737
   57MOL   O14813700   2.694   6.062   0.546  0.8761  0.2563 -0.4343
   57MOL   C14913701   2.832   6.043   0.549 -0.0196  0.4024 -0.6356
   57MOL   C15013702   2.890   6.041   0.692 -0.1579  0.3490 -0.3887
   57MOL   O15113703   2.902   6.034   0.444 -0.0086  0.0341 -0.6540
   57MOL   H15213704   2.418   6.065   0.475  0.8539  0.2842  2.7026
   57MOL   H15313705   2.448   6.151   0.332 -0.6206 -0.8982 -0.5981
   57MOL   H15413706   2.686   6.117   0.350  0.6512  1.2592  1.9866
   57MOL   H15513707   2.828   5.972   0.750  0.1230  1.3932  1.1928
   57MOL   H15613708   2.892   6.142   0.731 -1.5884  0.0674  0.4462
   57MOL   H15713709   2.995   6.009   0.691  0.5793  2.4925  2.5329
   57MOL   C15813710   2.609   5.916   0.359 -0.1383  0.3440  0.0647
   57MOL   C15913711   2.584   5.923   0.208  0.0257 -0.2585 -0.0391
   57MOL   O16013712   2.711   5.959   0.150  0.2383 -0.1431 -0.1458
   57MOL   C16113713   2.718   6.076   0.073  0.5094  0.1275  0.0675
   57MOL   C16213714   2.857   6.089   0.008 -0.4339 -0.2066 -0.4340
   57MOL   O16313715   2.638   6.169   0.075 -0.1603  0.4523  0.5058
   57MOL   H16413716   2.695   5.850   0.374 -1.6558 -1.5930  0.3398
   57MOL   H16513717   2.532   5.861   0.412 -1.5469  3.1820  1.1057
   57MOL   H16613718   2.501   5.989   0.184  1.1219  1.5371  1.0142
   57MOL   H16713719   2.837   6.083   7.922 -2.3050  1.5274 -0.2071
   57MOL   H16813720   2.918   6.000   0.028  1.2300  1.1882  0.8702
   57MOL   H16913721   2.908   6.179   0.042  2.3293 -2.1825  0.8953
   57MOL   C17013722   2.551   5.792   0.148  0.2799  0.7443  0.3458
   57MOL   C17113723   2.414   5.736   0.175  0.5406  0.2497 -0.5369
   57MOL   O17213724   2.312   5.830   0.140  0.2269  0.1582 -0.0827
   57MOL   C17313725   2.239   5.894   0.230 -0.4480 -0.6572 -0.0935
   57MOL   C17413726   2.139   5.992   0.173 -0.4830 -0.0518 -0.2529
   57MOL   O17513727   2.246   5.885   0.353  0.0967 -0.2386  0.4876
   57MOL   H17613728   2.570   5.804   0.041 -1.6518 -2.7310 -0.4577
   57MOL   H17713729   2.629   5.723   0.181 -1.3769 -0.7725  1.1836
   57MOL   H17813730   2.408   5.733   0.284 -0.1768  1.8422 -0.5131
   57MOL   H17913731   2.122   6.078   0.238 -0.3204  0.3914 -0.7825
   57MOL   H18013732   2.049   5.937   0.148 -0.3362 -1.4125  2.1506
   57MOL   H18113733   2.173   6.021   0.073  1.0304 -1.6166 -0.2097
   57MOL   C18213734   2.385   5.604   0.112 -0.1284 -0.4290  0.2407
   57MOL   C18313735   2.467   5.484   0.156 -0.4872 -0.4116  1.0814
   57MOL   O18413736   2.414   5.441   0.280 -0.2123 -0.5967  0.0028
   57MOL   C18513737   2.465   5.481   0.398  1.2640 -0.3095 -0.3692
   57MOL   C18613738   2.390   5.408   0.508 -0.0688  0.3627  0.2643
   57MOL   O18713739   2.559   5.557   0.409 -0.1711  0.1639  0.0051
   57MOL   H18813740   2.277   5.593   0.120 -0.2959  0.5790 -0.5238
   57MOL   H18913741   2.403   5.618   0.005 -2.3729  0.0307 -0.1010
   57MOL   H19013742   2.572   5.511   0.164 -0.1601 -1.8272  1.7554
   57MOL   H19113743   2.318   5.475   0.554 -0.5401 -0.9211  1.4339
   57MOL   H19213744   2.464   5.376   0.581 -0.7017  2.1610  1.7187
   57MOL   H19313745   2.334   5.321   0.473  0.4237 -0.1013  0.6219
   57MOL   C19413746   2.468   5.363   0.053 -0.1850 -0.5419 -0.1272
   57MOL   C19513747   2.551   5.380   7.944 -0.4043  0.1412  0.0171
   57MOL   O19613748   2.687   5.392   7.975 -0.5044 -0.4419  0.1633
   57MOL   C19713749   2.751   5.519   7.970 -0.0627 -0.2452 -0.7639
   57MOL   C19813750   2.892   5.530   8.020 -0.2144 -0.1448  0.7407
   57MOL   O19913751   2.695   5.619   7.934  0.4702 -0.0738  0.4869
   57MOL   H20013752   2.498   5.273   0.106  1.1882  1.7768  3.1696
   57MOL   H20113753   2.365   5.335   0.031 -0.4540  0.6470 -0.4260
   57MOL   H20213754   2.515   5.470   7.893 -3.1181 -0.8887  0.0414
   57MOL   H20313755   2.951   5.497   7.934  0.1832  0.2739  0.8544
   57MOL   H20413756   2.917   5.480   0.092  1.6707 -0.6645 -0.0261
   57MOL   H20513757   2.922   5.634   0.007 -1.6812  0.3225  0.3597
   57MOL   C20613758   2.520   5.267   7.840 -0.2689 -0.7849  0.1602
   57MOL   C20713759   2.410   5.307   7.741 -0.4234 -0.5685 -0.8209
   57MOL   O20813760   2.477   5.395   7.649  0.0611  0.3290  0.4588
   57MOL   C20913761   2.425   5.514   7.619 -0.3617 -0.2674  0.2704
   57MOL   C21013762   2.536   5.610   7.561  0.2003  0.6518 -0.3891
   57MOL   O21113763   2.314   5.554   7.642  0.1430 -0.2644 -0.3853
   57MOL   H21213764   2.609   5.236   7.786 -0.6013  0.0672 -0.9036
   57MOL   H21313765   2.482   5.178   7.889  0.1178 -0.2051  1.5564
   57MOL   H21413766   2.327   5.354   7.794 -2.2083 -1.8002 -2.4309
   57MOL   H21513767   2.599   5.560   7.488 -2.2889 -0.5523 -1.7838
   57MOL   H21613768   2.597   5.630   7.649 -0.2957  0.2214  0.0623
   57MOL   H21713769   2.494   5.703   7.522  0.2426  2.6416  4.0129
   57MOL   C21813770   2.358   5.185   7.665 -0.1890  0.0311  0.1779
   57MOL   C21913771   2.269   5.084   7.736 -0.7729 -0.5011  0.0480
   57MOL   O22013772   2.149   5.149   7.756  0.1156  0.1047  0.0233
   57MOL   C22113773   2.100   5.189   7.874 -0.2163 -0.5435  0.2040
   57MOL   C22213774   1.973   5.277   7.870  0.6622  0.2131 -0.5420
   57MOL   O22313775   2.157   5.175   7.978  0.6304  0.1599 -0.2430
   57MOL   H22413776   2.321   5.209   7.565  0.0286  0.2155  0.1402
   57MOL   H22513777   2.446   5.135   7.625 -0.5794 -0.1299 -0.4974
   57MOL   H22613778   2.318   5.048   7.827 -2.7926 -1.6015  0.7162
   57MOL   H22713779   1.914   5.252   7.782  1.9177 -1.3388 -0.9710
   57MOL   H22813780   2.009   5.380   7.862  0.7605  0.2463  0.3300
   57MOL   H22913781   1.910   5.268   7.958  2.3350 -2.2552  0.4707
   57MOL   C23013782   2.236   4.967   7.645  0.6484 -0.0866  0.2978
   57MOL   C23113783   2.350   4.860   7.631  1.0234  0.2812  0.2747
   57MOL   O23213784   2.455   4.906   7.554  0.1583  0.1440 -0.0949
   57MOL   C23313785   2.446   4.911   7.419 -0.5116  0.2403 -0.5412
   57MOL   C23413786   2.546   5.005   7.367  0.1803 -0.8080  0.5943
   57MOL   O23513787   2.371   4.855   7.345  0.0750 -0.6751  0.0343
   57MOL   H23613788   2.155   4.902   7.680 -0.8936  0.1516 -2.6677
   57MOL   H23713789   2.202   5.000   7.547  1.7663  1.4652  0.4252
   57MOL   H23813790   2.311   4.769   7.586  1.6645  0.2577 -0.2439
   57MOL   H23913791   2.531   5.111   7.388 -0.7188 -0.7180 -0.4237
   57MOL   H24013792   2.560   5.005   7.259  1.5517  0.2622  0.7547
   57MOL   H24113793   2.644   4.970   7.399  0.4063 -0.1654  0.6055
   57MOL   H24213794   2.400   4.841   7.726  0.3771 -0.2302  0.5154
   58MOL     C113795   5.940   2.776   6.561  0.3387 -0.1450 -0.5014
   58MOL     C213796   5.810   2.831   6.629 -0.9491  0.1550 -0.2556
   58MOL     O313797   5.736   2.895   6.528 -0.6845  0.3104  0.3677
   58MOL     C413798   5.764   3.033   6.497  0.6625 -0.3975 -0.1210
   58MOL     C513799   5.668   3.090   6.404  0.5614 -0.2839 -0.1335
   58MOL     O613800   5.854   3.101   6.552 -0.4824 -0.6512 -0.1107
   58MOL     H713801   6.002   2.855   6.519  0.8339  0.9381  2.1790
   58MOL     H813802   5.917   2.700   6.486  0.6279  1.0224 -1.7898
   58MOL     H913803   5.852   2.902   6.700  2.1814  0.4932 -2.3501
   58MOL    H1013804   5.708   3.186   6.372  0.9302 -0.8629 -1.4290
   58MOL    H1113805   5.575   3.105   6.459  0.7445  1.4288 -0.2888
   58MOL    H1213806   5.655   3.020   6.322 -0.4576 -0.3137  0.0411
   58MOL    H1313807   5.999   2.729   6.638  0.0587 -0.9288 -0.7601
   58MOL    C1413808   5.714   2.720   6.690 -0.0753  0.4333 -0.5503
   58MOL    C1513809   5.606   2.774   6.785  0.4929 -0.2919 -0.1712
   58MOL    O1613810   5.510   2.866   6.722  0.0187  0.0414  0.1636
   58MOL    C1713811   5.442   2.961   6.794  0.1162 -0.5186  0.2947
   58MOL    C1813812   5.365   3.054   6.707 -0.3346  0.1247 -0.5617
   58MOL    O1913813   5.432   2.967   6.916 -0.4906 -0.1866  0.1087
   58MOL    H2013814   5.673   2.660   6.608 -2.2398 -1.9926  2.2114
   58MOL    H2113815   5.779   2.654   6.746  0.3960 -0.0057 -1.5937
   58MOL    H2213816   5.656   2.834   6.861 -2.2773  2.4806 -0.4133
   58MOL    H2313817   5.344   3.142   6.768 -1.1865 -0.4459 -0.0267
   58MOL    H2413818   5.273   3.013   6.667 -0.4101 -0.1574 -0.0955
   58MOL    H2513819   5.431   3.082   6.624 -0.0746 -0.2226 -0.4707
   58MOL    C2613820   5.523   2.658   6.848 -0.6707  0.1710  0.0497
   58MOL    C2713821   5.590   2.556   6.947 -0.4590 -0.0435 -0.1468
   58MOL    O2813822   5.641   2.632   7.053 -0.8939 -0.6187  0.3532
   58MOL    C2913823   5.769   2.630   7.078  0.3468 -0.0637 -0.4220
   58MOL    C3013824   5.813   2.748   7.166  0.5324  0.5777  0.1968
   58MOL    O3113825   5.857   2.562   7.026 -0.2946  0.1069 -0.7436
   58MOL    H3213826   5.446   2.707   6.908 -2.0676 -2.2012  0.2404
   58MOL    H3313827   5.463   2.616   6.767  1.3283 -0.0789 -1.3285
   58MOL    H3413828   5.672   2.508   6.894 -0.6610 -0.7027  0.1326
   58MOL    H3513829   5.788   2.845   7.122 -0.7836  0.8234  1.4607
   58MOL    H3613830   5.919   2.739   7.192  0.7835  0.7573 -0.7290
   58MOL    H3713831   5.765   2.732   7.262 -0.7406  1.7983 -0.2184
   58MOL    C3813832   5.484   2.464   6.998 -0.0113  0.1318  0.0310
   58MOL    C3913833   5.549   2.344   7.071 -0.0601 -0.0192  1.4036
   58MOL    O4013834   5.565   2.385   7.210  0.0532  0.0788  0.0535
   58MOL    C4113835   5.683   2.360   7.275  0.7679  0.7845  0.2302
   58MOL    C4213836   5.703   2.433   7.414 -0.2094 -0.2138  0.3770
   58MOL    O4313837   5.763   2.278   7.236 -0.4853  0.3236  0.6741
   58MOL    H4413838   5.411   2.519   7.057 -0.4459 -0.5555  0.1366
   58MOL    H4513839   5.436   2.417   6.913 -0.8287  0.1232  0.4987
   58MOL    H4613840   5.645   2.332   7.021 -1.3062  3.2291 -2.0050
   58MOL    H4713841   5.607   2.437   7.467  2.0759 -2.4312  4.9276
   58MOL    H4813842   5.739   2.532   7.385 -2.0346  0.2809 -0.3352
   58MOL    H4913843   5.777   2.379   7.472  0.7246 -0.0674 -0.6519
   58MOL    C5013844   5.465   2.223   7.051  0.3649  0.2167  0.0398
   58MOL    C5113845   5.529   2.084   7.106  0.1084 -0.0074 -0.2779
   58MOL    O5213846   5.424   1.996   7.130  0.3512 -0.1073  0.5358
   58MOL    C5313847   5.369   1.987   7.250 -0.6043 -0.1540  0.3983
   58MOL    C5413848   5.238   1.918   7.245 -0.6201  0.6665  0.5200
   58MOL    O5513849   5.428   2.003   7.357 -0.2702  0.3070  0.1347
   58MOL    H5613850   5.376   2.235   7.113  1.1953  0.4126  1.2061
   58MOL    H5713851   5.441   2.207   6.946 -0.1541  0.5770  0.1004
   58MOL    H5813852   5.583   2.102   7.198 -1.6946  0.3706  0.7220
   58MOL    H5913853   5.170   1.961   7.170 -0.2223  1.8220  0.8062
   58MOL    H6013854   5.177   1.925   7.336 -0.0625  1.7867  0.8255
   58MOL    H6113855   5.261   1.816   7.215 -2.7170  0.5048 -0.6352
   58MOL    C6213856   5.621   2.023   7.004  0.1646  1.0529  0.0120
   58MOL    C6313857   5.719   1.900   7.049 -0.0842 -0.5549  0.2633
   58MOL    O6413858   5.790   1.935   7.169 -0.2006  0.3346  0.1052
   58MOL    C6513859   5.929   1.968   7.166  0.0808  0.7690 -0.2020
   58MOL    C6613860   5.981   1.976   7.312 -1.0793  0.5200  0.2648
   58MOL    O6713861   5.999   1.986   7.065 -0.3897 -0.1073 -0.6398
   58MOL    H6813862   5.562   1.983   6.921  2.2388 -1.6366 -0.2194
   58MOL    H6913863   5.683   2.100   6.959  0.8702 -0.0970 -1.0167
   58MOL    H7013864   5.787   1.887   6.964 -1.1810  1.0273 -0.8749
   58MOL    H7113865   5.919   2.047   7.367 -3.2311 -1.1729  0.1002
   58MOL    H7213866   6.081   2.017   7.303 -1.3959  0.9524 -1.6919
   58MOL    H7313867   5.983   1.880   7.364  1.9416  0.8928  0.8905
   58MOL    C7413868   5.647   1.763   7.069  0.1911 -0.2831  0.0218
   58MOL    C7513869   5.568   1.703   6.956 -0.1623 -0.3363  0.5317
   58MOL    O7613870   5.649   1.664   6.850  0.2402  0.0723  0.0613
   58MOL    C7713871   5.635   1.707   6.718  0.5618  0.0246  0.1066
   58MOL    C7813872   5.715   1.626   6.618  0.0792  0.1649  0.6072
   58MOL    O7913873   5.555   1.791   6.682  0.0484 -0.6204  0.4892
   58MOL    H8013874   5.718   1.682   7.086 -1.2242 -1.4988  0.1211
   58MOL    H8113875   5.586   1.768   7.159  0.7999 -1.7345  0.5260
   58MOL    H8213876   5.494   1.777   6.927  0.3407  0.5337  1.4395
   58MOL    H8313877   5.650   1.626   6.531 -1.2137 -0.1262  1.5579
   58MOL    H8413878   5.725   1.521   6.646  0.5700  0.2374  0.7043
   58MOL    H8513879   5.814   1.659   6.587 -0.6732  2.1942  0.3233
   58MOL    C8613880   5.488   1.569   6.997  0.3103 -0.6345  0.1889
   58MOL    C8713881   5.343   1.564   6.932  0.1690 -0.7291 -0.6044
   58MOL    O8813882   5.282   1.436   6.961 -0.4060 -0.6859 -0.0168
   58MOL    C8913883   5.311   1.326   6.883 -0.3074  0.4438  0.3447
   58MOL    C9013884   5.234   1.201   6.918 -0.5283 -0.6546 -0.5246
   58MOL    O9113885   5.384   1.322   6.783  0.2406  0.1703 -0.0623
   58MOL    H9213886   5.552   1.484   6.973  2.1250  0.4280  1.2132
   58MOL    H9313887   5.475   1.559   7.105  0.4473 -1.6471  0.1151
   58MOL    H9413888   5.347   1.582   6.825  0.1293  2.9927 -0.0316
   58MOL    H9513889   5.299   1.130   6.867  2.8115  0.0601  2.5531
   58MOL    H9613890   5.132   1.195   6.880 -0.8718 -0.1093  0.3009
   58MOL    H9713891   5.241   1.185   7.026  0.0158  2.1229 -0.1040
   58MOL    C9813892   5.259   1.671   6.998 -1.0248  0.1708  0.2297
   58MOL    C9913893   5.158   1.724   6.899 -0.2829 -0.3833 -0.3396
   58MOL   O10013894   5.214   1.805   6.791 -0.3735  0.3450  0.4531
   58MOL   C10113895   5.231   1.937   6.814 -0.5088 -0.2693 -0.8946
   58MOL   C10213896   5.282   2.010   6.692  0.0423 -0.3703  0.1367
   58MOL   O10313897   5.199   1.988   6.915  0.0810  0.1760  0.1854
   58MOL   H10413898   5.216   1.642   7.094 -2.8618  1.3581 -0.2054
   58MOL   H10513899   5.323   1.754   7.028  2.9713 -2.7588  0.1100
   58MOL   H10613900   5.103   1.798   6.958  0.1451 -0.7966  0.5907
   58MOL   H10713901   5.293   2.116   6.711 -2.1737  0.1418 -1.1951
   58MOL   H10813902   5.198   1.997   6.623  1.2775 -1.4722 -1.1924
   58MOL   H10913903   5.377   1.970   6.656 -0.7178 -0.3898 -1.9152
   58MOL   C11013904   5.063   1.626   6.840 -0.4018 -0.8088 -0.5952
   58MOL   C11113905   4.980   1.556   6.954 -0.6230  0.2457  0.4863
   58MOL   O11213906   4.871   1.644   6.980 -0.2594  0.2445 -0.3832
   58MOL   C11313907   4.849   1.689   7.103  0.0075 -0.4210 -0.6006
   58MOL   C11413908   4.713   1.759   7.130 -0.4942  0.2921  1.0167
   58MOL   O11513909   4.939   1.685   7.188 -0.5708  0.2761  0.2765
   58MOL   H11613910   5.000   1.673   6.765 -0.8060  1.4472  1.1238
   58MOL   H11713911   5.119   1.553   6.782  0.3233 -1.1628  0.5387
   58MOL   H11813912   5.042   1.534   7.042 -1.2082  2.1710  1.4077
   58MOL   H11913913   4.651   1.694   7.191 -0.3723  1.2643  2.2005
   58MOL   H12013914   4.663   1.803   7.044 -0.4215  1.4951  1.5733
   58MOL   H12113915   4.736   1.848   7.189 -1.5233  2.8539 -2.2556
   58MOL   C12213916   4.912   1.421   6.909 -0.7071  0.1964  0.2445
   58MOL   C12313917   4.800   1.426   6.807 -0.2714  0.4622 -0.8758
   58MOL   O12413918   4.867   1.459   6.679  0.2081  0.2236 -0.2396
   58MOL   C12513919   4.794   1.534   6.590  0.4000  0.0995 -0.7883
   58MOL   C12613920   4.879   1.594   6.479 -0.3557  0.1770 -0.2130
   58MOL   O12713921   4.672   1.552   6.595 -0.0819  0.3839  0.0585
   58MOL   H12813922   4.982   1.353   6.860 -0.3409  2.1983 -2.0831
   58MOL   H12913923   4.877   1.367   6.998 -1.0320  0.9633  0.5855
   58MOL   H13013924   4.731   1.506   6.833 -0.9313 -0.4796  0.2882
   58MOL   H13113925   4.865   1.546   6.383  1.0678  1.3500 -1.0272
   58MOL   H13213926   4.982   1.589   6.513 -0.4085 -0.8056 -0.1893
   58MOL   H13313927   4.860   1.700   6.463  2.4032  0.6491 -0.4651
   58MOL   C13413928   4.726   1.291   6.796 -0.0884 -0.6320  0.8539
   58MOL   C13513929   4.611   1.284   6.901 -0.4485  0.3828  0.9694
   58MOL   O13613930   4.497   1.236   6.839  0.1514  0.2201 -0.1657
   58MOL   C13713931   4.411   1.321   6.770 -0.3094 -0.0833 -0.3485
   58MOL   C13813932   4.335   1.258   6.651  0.2040  0.5548 -0.0587
   58MOL   O13913933   4.417   1.443   6.776  0.2720 -0.1038 -0.1629
   58MOL   H14013934   4.681   1.296   6.697  0.7947 -1.2444  0.4111
   58MOL   H14113935   4.786   1.200   6.799 -0.6845 -1.1111 -0.9325
   58MOL   H14213936   4.591   1.384   6.940 -2.7038  1.3668 -2.4123
   58MOL   H14313937   4.349   1.325   6.566 -0.1243  1.0990  0.3163
   58MOL   H14413938   4.228   1.248   6.669  0.0145  0.5592 -1.1838
   58MOL   H14513939   4.375   1.159   6.631 -1.5202  0.2149 -1.9980
   58MOL   C14613940   4.656   1.182   7.010  0.1809  0.0831  0.1693
   58MOL   C14713941   4.591   1.193   7.153  0.3097  0.6675 -0.5657
   58MOL   O14813942   4.452   1.166   7.160  0.4571  0.1256  0.5021
   58MOL   C14913943   4.351   1.261   7.151  0.5964  0.1542  0.2750
   58MOL   C15013944   4.206   1.208   7.155 -0.0687  0.4905 -0.1062
   58MOL   O15113945   4.377   1.381   7.145 -0.0329 -0.6126  0.0727
   58MOL   H15213946   4.641   1.081   6.973 -0.6308 -0.8990  3.0163
   58MOL   H15313947   4.760   1.199   7.036  0.6701  0.4123 -1.9186
   58MOL   H15413948   4.608   1.295   7.188 -0.1794 -0.7790  4.1491
   58MOL   H15513949   4.145   1.217   7.064  0.3368  1.1887 -0.3157
   58MOL   H15613950   4.155   1.273   7.226 -0.3050  1.0607 -0.7816
   58MOL   H15713951   4.206   1.108   7.196 -1.6133  1.7879  3.2366
   58MOL   C15813952   4.655   1.080   7.245  0.5436 -0.7287  0.1966
   58MOL   C15913953   4.576   1.063   7.385 -0.0697  0.5018 -0.2178
   58MOL   O16013954   4.483   0.960   7.364 -0.0110  0.3671 -0.2576
   58MOL   C16113955   4.358   0.964   7.409 -0.3400  0.8364  0.2329
   58MOL   C16213956   4.275   0.836   7.383  0.2773  0.2174 -0.6769
   58MOL   O16313957   4.318   1.050   7.485 -0.0763 -0.2289  0.1175
   58MOL   H16413958   4.670   0.988   7.188  1.2044 -0.7531  0.4058
   58MOL   H16513959   4.750   1.124   7.273 -0.0921  0.3697  0.6645
   58MOL   H16613960   4.529   1.161   7.396  0.6575  0.9917 -1.3138
   58MOL   H16713961   4.178   0.850   7.431  0.8415 -0.2624  0.6392
   58MOL   H16813962   4.335   0.758   7.430  2.0130  2.5834  1.1486
   58MOL   H16913963   4.268   0.821   7.275  2.2146 -0.8804 -0.6796
   58MOL   C17013964   4.667   1.017   7.494  0.2866 -0.0127  0.0060
   58MOL   C17113965   4.607   1.035   7.634 -0.2059 -0.2419  0.0528
   58MOL   O17213966   4.697   0.987   7.731  0.0276 -0.0743  0.2129
   58MOL   C17313967   4.662   0.875   7.805  0.3046  0.5250  0.6062
   58MOL   C17413968   4.776   0.834   7.902  0.2371  0.0231  0.1135
   58MOL   O17513969   4.574   0.789   7.778 -0.1437  0.7055 -0.1445
   58MOL   H17613970   4.683   0.910   7.476  1.6758 -0.1999  2.2123
   58MOL   H17713971   4.768   1.058   7.495  0.6440 -0.8737 -0.1333
   58MOL   H17813972   4.507   0.992   7.626 -0.9587  1.5280 -0.3930
   58MOL   H17913973   4.829   0.915   7.951 -1.9501  0.4813  1.7871
   58MOL   H18013974   4.856   0.781   7.850  0.3062 -1.1447  1.3891
   58MOL   H18113975   4.743   0.771   7.984  1.0376 -0.0496  0.3783
   58MOL   C18213976   4.562   1.177   7.679 -0.5214 -0.1496 -0.1432
   58MOL   C18313977   4.672   1.285   7.647 -0.5741 -0.0890 -0.5244
   58MOL   O18413978   4.604   1.407   7.609  0.7657  0.2495 -0.5327
   58MOL   C18513979   4.615   1.462   7.482  0.2808  0.2772 -0.1190
   58MOL   C18613980   4.525   1.580   7.449 -0.0444 -0.2784  0.1380
   58MOL   O18713981   4.699   1.426   7.399  0.3348 -0.1591 -0.3018
   58MOL   H18813982   4.475   1.200   7.618  0.0702 -2.9786 -2.1887
   58MOL   H18913983   4.535   1.178   7.784  1.9593 -1.7445  0.5589
   58MOL   H19013984   4.728   1.256   7.559 -2.2985 -1.4564 -1.2036
   58MOL   H19113985   4.468   1.553   7.360  1.0677  0.1206 -0.7010
   58MOL   H19213986   4.590   1.666   7.433  0.2070 -0.5135 -0.1144
   58MOL   H19313987   4.461   1.602   7.535 -2.0848 -0.6941 -1.2514
   58MOL   C19413988   4.769   1.308   7.763 -0.1244 -0.3068  0.2390
   58MOL   C19513989   4.847   1.443   7.755  1.0116 -0.0232  0.5815
   58MOL   O19613990   4.790   1.525   7.855  0.4019 -0.6335  0.1403
   58MOL   C19713991   4.706   1.629   7.818 -0.3185  0.0855 -0.2358
   58MOL   C19813992   4.624   1.692   7.927 -0.4551  0.1930 -0.0781
   58MOL   O19913993   4.693   1.671   7.705 -0.3083  0.2905 -0.0884
   58MOL   H20013994   4.712   1.297   7.856 -2.1698  3.5787 -0.4230
   58MOL   H20113995   4.844   1.230   7.753  0.2194 -0.0093  0.4955
   58MOL   H20213996   4.833   1.486   7.656 -0.8777 -0.0422  0.8268
   58MOL   H20313997   4.577   1.785   7.896 -0.5696 -0.0240 -0.5660
   58MOL   H20413998   4.681   1.706   8.018 -0.3995 -2.7588  0.4036
   58MOL   H20513999   4.543   1.623   7.952  0.6885 -1.2932 -0.3953
   58MOL   C20614000   5.002   1.435   7.787  0.1534 -0.0744 -0.0249
   58MOL   C20714001   5.097   1.350   7.690 -0.5137 -0.5684  0.7378
   58MOL   O20814002   5.089   1.408   7.560 -0.7055 -0.2434  0.6015
   58MOL   C20914003   5.039   1.350   7.455  0.6849 -0.5073  0.2869
   58MOL   C21014004   5.046   1.435   7.330 -0.4845 -0.1687  0.0075
   58MOL   O21114005   4.991   1.235   7.454 -0.4684 -0.0733 -0.1667
   58MOL   H21214006   5.037   1.537   7.805  0.0816  0.0799 -0.7616
   58MOL   H21314007   5.022   1.397   7.887 -0.1786 -0.3521 -0.0676
   58MOL   H21414008   5.058   1.248   7.690 -0.3047 -0.6500  0.4673
   58MOL   H21514009   5.121   1.401   7.258  1.6233  0.2998  1.9194
   58MOL   H21614010   5.075   1.538   7.352  0.9879 -0.3082 -1.1398
   58MOL   H21714011   4.945   1.438   7.289  0.2027  0.5669 -1.6912
   58MOL   C21814012   5.243   1.343   7.728  0.6059  0.3516 -0.5758
   58MOL   C21914013   5.277   1.263   7.861  0.3921 -0.8974  0.1968
   58MOL   O22014014   5.276   1.124   7.817 -0.2473 -0.0735  0.5201
   58MOL   C22114015   5.174   1.045   7.863  0.3938 -0.2396  0.4472
   58MOL   C22214016   5.183   0.906   7.802  1.0738 -0.4899 -0.0709
   58MOL   O22314017   5.082   1.073   7.942 -0.3299 -0.5612 -0.3840
   58MOL   H22414018   5.304   1.303   7.647  2.8145 -2.0671  2.1374
   58MOL   H22514019   5.279   1.445   7.744  4.1347 -1.3763  3.7535
   58MOL   H22614020   5.198   1.276   7.935  0.1878 -0.7122 -0.0546
   58MOL   H22714021   5.081   0.868   7.811  0.7868  0.5401  1.3611
   58MOL   H22814022   5.252   0.846   7.861 -0.0566 -1.0501  0.7080
   58MOL   H22914023   5.205   0.927   7.698  1.0212  1.1417  0.2271
   58MOL   C23014024   5.408   1.310   7.939  0.6998  0.4347  0.0625
   58MOL   C23114025   5.412   1.256   0.063 -0.3817 -0.0838 -0.4388
   58MOL   O23214026   5.529   1.302   0.134  0.8904 -0.3627 -0.1764
   58MOL   C23314027   5.628   1.214   0.166  0.6153 -0.0145  0.2175
   58MOL   C23414028   5.736   1.272   0.259 -0.2599 -0.0349 -0.1192
   58MOL   O23514029   5.638   1.101   0.127  0.7817  0.0127 -0.2554
   58MOL   H23614030   5.498   1.297   7.878 -0.9463  1.2319 -2.6100
   58MOL   H23714031   5.396   1.419   7.944 -0.1122  0.3677 -0.4979
   58MOL   H23814032   5.404   1.148   0.068 -1.9198 -0.0492 -1.7856
   58MOL   H23914033   5.686   1.331   0.336 -0.1775 -0.4287  0.2430
   58MOL   H24014034   5.795   1.336   0.193 -0.5505  1.9770  1.5270
   58MOL   H24114035   5.791   1.189   0.305  1.5373  0.2635 -1.6679
   58MOL   H24214036   5.325   1.298   0.113  0.1885  1.3033 -0.5926
   59MOL     C114037   5.450   6.488   2.591 -0.4518 -0.0663 -0.2000
   59MOL     C214038   5.314   6.420   2.626  0.3157 -0.0683  0.1271
   59MOL     O314039   5.334   6.274   2.611  0.1209  0.1908  0.4387
   59MOL     C414040   5.292   6.217   2.493  0.4111  0.2939 -0.4271
   59MOL     C514041   5.332   6.074   2.482 -0.1901 -0.0993 -0.8378
   59MOL     O614042   5.249   6.281   2.399  0.1824  0.2805  0.4813
   59MOL     H714043   5.475   6.463   2.488  2.8199 -0.6016  0.6719
   59MOL     H814044   5.536   6.457   2.651 -1.7130  0.9769  2.2536
   59MOL     H914045   5.244   6.457   2.552 -2.0892  0.6327  2.6752
   59MOL    H1014046   5.301   6.019   2.570  1.0217 -0.5742 -0.7020
   59MOL    H1114047   5.440   6.078   2.475 -0.0646  2.5342  1.7914
   59MOL    H1214048   5.280   6.019   2.403 -0.2048  0.1368 -0.9952
   59MOL    H1314049   5.425   6.594   2.600 -0.3039  0.0881 -1.5814
   59MOL    C1414050   5.256   6.463   2.766  0.9787 -0.4247 -0.8616
   59MOL    C1514051   5.099   6.467   2.767 -0.5252 -0.2917  0.8492
   59MOL    O1614052   5.038   6.344   2.711  0.1729  0.1382 -0.0060
   59MOL    C1714053   4.934   6.333   2.619  0.4610 -0.3097 -0.2068
   59MOL    C1814054   4.915   6.199   2.563  0.1933 -0.5647  1.1599
   59MOL    O1914055   4.870   6.432   2.587  0.1631  0.4913 -0.9923
   59MOL    H2014056   5.295   6.392   2.838 -0.3014 -0.7869 -0.5222
   59MOL    H2114057   5.298   6.558   2.798  1.5189 -0.2696 -2.0056
   59MOL    H2214058   5.072   6.548   2.699 -2.5948 -0.2165  1.7172
   59MOL    H2314059   5.011   6.158   2.595  0.1899 -0.2497  1.5803
   59MOL    H2414060   4.903   6.203   2.455  0.1248 -1.2432  1.1370
   59MOL    H2514061   4.830   6.155   2.614  0.2494  0.5871  2.2723
   59MOL    C2614062   5.022   6.506   2.895  0.3464  0.5904 -0.0849
   59MOL    C2714063   5.066   6.644   2.948 -0.1634 -0.2210  0.1699
   59MOL    O2814064   5.014   6.752   2.871 -0.0664  0.3706  0.0569
   59MOL    C2914065   5.087   6.834   2.801  0.4217  0.0059  0.1557
   59MOL    C3014066   5.009   6.954   2.762 -0.1608  0.7470 -0.0666
   59MOL    O3114067   5.209   6.824   2.794  0.2821 -0.5220 -0.3276
   59MOL    H3214068   4.915   6.500   2.872  0.9067 -1.0488 -2.5025
   59MOL    H3314069   5.042   6.417   2.954  0.5860  1.6437  1.4602
   59MOL    H3414070   5.175   6.649   2.944 -0.2255  2.1638  0.5455
   59MOL    H3514071   4.966   6.996   2.853  1.6951  0.8061  0.8096
   59MOL    H3614072   4.936   6.936   2.682  0.9226 -2.1106 -0.4866
   59MOL    H3714073   5.080   7.025   2.721  0.2201  0.2837 -0.2149
   59MOL    C3814074   5.031   6.673   3.095  0.7517  0.7782  0.8732
   59MOL    C3914075   4.884   6.704   3.133 -0.0984  0.6046 -0.6076
   59MOL    O4014076   4.798   6.615   3.065  0.3147 -0.4549  0.0912
   59MOL    C4114077   4.690   6.661   2.988 -0.1556 -0.6359  0.1474
   59MOL    C4214078   4.631   6.548   2.904 -0.9832 -0.1843 -0.1147
   59MOL    O4314079   4.642   6.773   2.982  0.6856  0.7759  0.0496
   59MOL    H4414080   5.065   6.589   3.156  0.3878  0.9229  1.2730
   59MOL    H4514081   5.080   6.763   3.132 -0.1780  1.2526  0.9490
   59MOL    H4614082   4.861   6.807   3.104  1.6406  2.1698  3.2595
   59MOL    H4714083   4.524   6.559   2.888 -1.0253 -0.2463  0.1304
   59MOL    H4814084   4.636   6.459   2.967 -1.0097  0.7648  1.2686
   59MOL    H4914085   4.683   6.512   2.815  1.0911  0.0715  0.9471
   59MOL    C5014086   4.851   6.681   3.282  0.1508  0.3506  0.3994
   59MOL    C5114087   4.915   6.779   3.385  0.2397  0.2068  0.3963
   59MOL    O5214088   5.061   6.782   3.382 -0.2975 -0.2087  0.1584
   59MOL    C5314089   5.132   6.708   3.463 -0.4928  0.1950 -0.0120
   59MOL    C5414090   5.271   6.763   3.476 -0.1914 -0.6159 -0.0792
   59MOL    O5514091   5.093   6.603   3.518 -0.5484 -0.2554 -0.5477
   59MOL    H5614092   4.743   6.695   3.292 -0.4151 -2.5669 -1.2358
   59MOL    H5714093   4.881   6.580   3.311 -0.7982  0.7486  2.9482
   59MOL    H5814094   4.885   6.740   3.482  0.3832 -0.0895  0.3226
   59MOL    H5914095   5.291   6.794   3.578 -1.5046  1.7661 -0.5157
   59MOL    H6014096   5.300   6.849   3.415  1.2262  0.4256  2.0191
   59MOL    H6114097   5.345   6.686   3.455 -3.5982 -4.3409  1.0062
   59MOL    C6214098   4.869   6.924   3.383  0.2754 -0.3301 -0.6236
   59MOL    C6314099   4.813   6.972   3.510 -0.5422  0.2869 -0.1578
   59MOL    O6414100   4.921   7.012   3.594 -0.2324 -0.3043  0.0197
   59MOL    C6514101   4.927   6.982   3.723 -0.2297  0.2412 -0.4163
   59MOL    C6614102   5.073   6.996   3.773  0.3055  0.5157  0.3143
   59MOL    O6714103   4.835   6.946   3.795 -0.1249  0.3216 -0.3384
   59MOL    H6814104   4.941   6.994   3.341  1.3616 -1.7074 -1.1032
   59MOL    H6914105   4.782   6.920   3.318  0.7959  1.3993 -1.4559
   59MOL    H7014106   4.752   6.898   3.563 -0.9927 -1.0738 -2.5096
   59MOL    H7114107   5.084   6.910   3.838  1.1719  1.3173  1.2553
   59MOL    H7214108   5.073   7.086   3.835  3.5202  0.7138  0.0742
   59MOL    H7314109   5.149   6.994   3.695 -1.3040 -3.2857 -1.2831
   59MOL    C7414110   4.721   7.097   3.496 -0.0528  0.3107  0.3061
   59MOL    C7514111   4.572   7.068   3.514 -0.6775 -0.1488  0.4569
   59MOL    O7614112   4.539   6.959   3.431 -0.2320  0.4995  0.7184
   59MOL    C7714113   4.438   6.965   3.345 -0.1446  0.8066  0.7885
   59MOL    C7814114   4.436   6.835   3.256  0.0644  1.1688 -0.5183
   59MOL    O7914115   4.357   7.056   3.330 -0.4713  0.2481  0.3362
   59MOL    H8014116   4.747   7.175   3.568 -1.5794  0.2578  0.9389
   59MOL    H8114117   4.735   7.149   3.401  0.5542  0.2108  0.3437
   59MOL    H8214118   4.514   7.155   3.486 -1.9756 -0.5442  1.8769
   59MOL    H8314119   4.336   6.793   3.240  0.3114 -0.1392  1.2405
   59MOL    H8414120   4.502   6.753   3.284 -0.7073 -0.2091 -2.5298
   59MOL    H8514121   4.464   6.874   3.158 -0.2154  0.3514 -0.9264
   59MOL    C8614122   4.542   7.037   3.660 -0.2250 -0.2560 -0.4433
   59MOL    C8714123   4.389   7.063   3.684  0.1561  0.7168 -0.1302
   59MOL    O8814124   4.333   7.173   3.612 -0.1853 -0.8642 -0.3766
   59MOL    C8914125   4.274   7.280   3.672 -0.7346  0.6401  0.5611
   59MOL    C9014126   4.180   7.354   3.580 -0.2840 -0.6832  0.3190
   59MOL    O9114127   4.286   7.314   3.791 -0.5116 -0.0771  0.5020
   59MOL    H9214128   4.571   6.943   3.706 -3.0005 -1.6457 -1.4159
   59MOL    H9314129   4.584   7.116   3.722  2.0280 -1.2597 -0.6442
   59MOL    H9414130   4.377   7.075   3.791 -0.9712 -2.1055  0.0965
   59MOL    H9514131   4.091   7.292   3.564 -0.2423 -0.4578 -0.8316
   59MOL    H9614132   4.230   7.338   3.485  0.1716 -0.4267  0.5175
   59MOL    H9714133   4.169   7.461   3.596 -1.5815 -0.4356 -1.9418
   59MOL    C9814134   4.297   6.942   3.651 -0.2886  0.7162 -0.2469
   59MOL    C9914135   4.237   6.870   3.771 -0.1570  0.2069 -0.1187
   59MOL   O10014136   4.142   6.951   3.844  0.0764 -0.2936 -0.0568
   59MOL   C10114137   4.151   6.963   3.977  0.1076 -0.5211 -0.0128
   59MOL   C10214138   4.089   7.092   4.031  0.7683  0.0250  0.6985
   59MOL   O10314139   4.222   6.891   4.042  0.6834 -0.0347  0.4209
   59MOL   H10414140   4.218   6.981   3.586 -1.1323 -1.2923 -0.4623
   59MOL   H10514141   4.351   6.871   3.588  0.4582 -0.3508  1.5633
   59MOL   H10614142   4.315   6.827   3.834  0.7750  1.6486 -0.2685
   59MOL   H10714143   3.984   7.064   4.041  0.7246  0.2418  0.8428
   59MOL   H10814144   4.101   7.174   3.960  1.2427 -1.3630 -0.8547
   59MOL   H10914145   4.122   7.124   4.129  0.7189 -1.1062  1.0907
   59MOL   C11014146   4.161   6.744   3.723  0.0616  0.3465 -0.0230
   59MOL   C11114147   4.124   6.636   3.827  0.4663 -0.6811 -0.2911
   59MOL   O11214148   4.044   6.535   3.756 -0.0890 -0.1225  0.2052
   59MOL   C11314149   3.914   6.560   3.743 -0.3847 -0.2723  0.3450
   59MOL   C11414150   3.838   6.444   3.679  0.1836 -0.2364 -0.4487
   59MOL   O11514151   3.847   6.651   3.795 -0.0027 -0.3665  0.1137
   59MOL   H11614152   4.065   6.769   3.678  0.6700  0.0671 -1.5010
   59MOL   H11714153   4.210   6.686   3.644  0.1490 -0.0632  0.3337
   59MOL   H11814154   4.063   6.681   3.906  1.3092  0.8567 -0.5035
   59MOL   H11914155   3.764   6.479   3.607  1.5322 -1.2841 -2.3838
   59MOL   H12014156   3.794   6.368   3.744  0.1572  0.8919  0.8749
   59MOL   H12114157   3.908   6.382   3.622  1.5457 -0.5285  1.4938
   59MOL   C12214158   4.243   6.569   3.907  0.1262 -0.1828  0.1181
   59MOL   C12314159   4.351   6.488   3.823 -0.7798  0.5554  0.3716
   59MOL   O12414160   4.445   6.579   3.766  0.6087 -0.0952 -0.1391
   59MOL   C12514161   4.479   6.579   3.637 -0.7041 -0.5389 -0.0389
   59MOL   C12614162   4.597   6.668   3.615  0.0908 -0.4524 -0.2013
   59MOL   O12714163   4.439   6.503   3.552 -0.4132 -0.5692  0.1977
   59MOL   H12814164   4.290   6.649   3.965 -0.6962  1.3513 -1.2686
   59MOL   H12914165   4.199   6.508   3.986 -1.0184  0.8720  0.3186
   59MOL   H13014166   4.295   6.434   3.746 -0.8794  1.3572 -0.1252
   59MOL   H13114167   4.670   6.639   3.540 -0.3759  1.4580 -1.4143
   59MOL   H13214168   4.646   6.656   3.711  0.0691 -1.9941 -0.3660
   59MOL   H13314169   4.560   6.770   3.610  1.0837 -0.1414 -1.5558
   59MOL   C13414170   4.423   6.370   3.901 -1.0806 -0.3610  0.1087
   59MOL   C13514171   4.329   6.251   3.945 -0.5514 -0.5755  0.2949
   59MOL   O13614172   4.265   6.198   3.836  0.0267 -0.5335  0.1320
   59MOL   C13714173   4.128   6.211   3.816 -0.6359  0.2151 -0.2773
   59MOL   C13814174   4.082   6.147   3.693 -0.2758 -0.5761  0.4682
   59MOL   O13914175   4.050   6.256   3.894  0.5741 -0.5915 -0.0784
   59MOL   H14014176   4.485   6.319   3.827  5.3517  3.1371  2.6564
   59MOL   H14114177   4.490   6.408   3.978 -1.3276 -0.4832  0.3836
   59MOL   H14214178   4.254   6.291   4.012 -2.4322 -0.2593 -1.9290
   59MOL   H14314179   4.151   6.076   3.648  0.5612  1.1897 -1.1138
   59MOL   H14414180   4.070   6.220   3.613 -1.8195 -2.8154 -1.4223
   59MOL   H14514181   3.986   6.096   3.698 -0.2046 -0.9752 -1.5200
   59MOL   C14614182   4.408   6.139   4.019  0.1819  0.3176  1.1728
   59MOL   C14714183   4.390   6.153   4.173 -0.4902 -0.3532 -0.8706
   59MOL   O14814184   4.269   6.091   4.214 -0.1063  0.0939 -0.0471
   59MOL   C14914185   4.163   6.168   4.243  0.0029 -0.0412 -0.4993
   59MOL   C15014186   4.037   6.099   4.283 -0.2985  0.4849  0.1987
   59MOL   O15114187   4.167   6.293   4.248 -0.2052 -0.2242  0.3101
   59MOL   H15214188   4.366   6.045   3.986  0.8358  0.7890 -1.0739
   59MOL   H15314189   4.511   6.144   3.984 -0.1557  2.5237  0.4240
   59MOL   H15414190   4.401   6.260   4.188  0.3788 -0.7329  1.3329
   59MOL   H15514191   4.058   5.992   4.284  2.6662  0.9498 -3.4608
   59MOL   H15614192   3.965   6.121   4.204  0.4623  1.5725 -0.1959
   59MOL   H15714193   3.998   6.128   4.381  0.1041  0.7784  0.2708
   59MOL   C15814194   4.501   6.083   4.257 -0.7865 -0.1700  0.3165
   59MOL   C15914195   4.641   6.142   4.228 -0.1488  0.0305  0.9129
   59MOL   O16014196   4.653   6.281   4.250  0.0172 -0.3912  0.0049
   59MOL   C16114197   4.609   6.334   4.366 -0.6403  0.8630 -0.0573
   59MOL   C16214198   4.621   6.488   4.376  0.4631 -0.3688 -0.0104
   59MOL   O16314199   4.604   6.272   4.474  0.4160  0.0198 -0.2051
   59MOL   H16414200   4.474   6.074   4.362  0.4734 -1.1636  0.5689
   59MOL   H16514201   4.503   5.979   4.226  1.9170  0.2259 -0.9556
   59MOL   H16614202   4.658   6.121   4.122 -2.6672 -1.8571  0.8321
   59MOL   H16714203   4.604   6.542   4.283  0.6670  0.4398  0.4186
   59MOL   H16814204   4.718   6.521   4.412  0.4204 -0.7808  0.4879
   59MOL   H16914205   4.538   6.510   4.443  1.2895  0.2877  0.8110
   59MOL   C17014206   4.754   6.066   4.313  0.7244  0.7244 -0.4927
   59MOL   C17114207   4.799   5.931   4.260 -0.0074 -0.2119 -0.0565
   59MOL   O17214208   4.935   5.912   4.277 -0.0328 -0.3503 -0.6254
   59MOL   C17314209   5.016   5.950   4.177 -1.2110  1.1754  0.1549
   59MOL   C17414210   5.161   5.944   4.219 -0.3893  0.8212  0.3025
   59MOL   O17514211   4.994   6.007   4.065 -0.4167  0.2362 -0.1785
   59MOL   H17614212   4.847   6.123   4.309  0.8629  0.6090  0.7607
   59MOL   H17714213   4.734   6.070   4.420 -0.8090 -1.3457 -0.6835
   59MOL   H17814214   4.768   5.929   4.155  0.0580 -1.3640 -0.0599
   59MOL   H17914215   5.195   6.028   4.278 -1.9751  1.5247  0.2362
   59MOL   H18014216   5.224   5.945   4.129 -1.8763  0.4495 -0.7621
   59MOL   H18114217   5.160   5.848   4.271 -1.3210  0.4141 -0.4379
   59MOL   C18214218   4.723   5.821   4.336  0.6869  0.1364 -0.2927
   59MOL   C18314219   4.704   5.690   4.261  0.8907 -0.3609 -0.7159
   59MOL   O18414220   4.835   5.631   4.258 -0.3547 -0.3210  0.4566
   59MOL   C18514221   4.885   5.571   4.135 -0.2422 -0.4497 -0.1126
   59MOL   C18614222   5.016   5.494   4.158 -0.0521  0.5694 -0.3941
   59MOL   O18714223   4.822   5.568   4.024 -0.3161 -0.4850 -0.0813
   59MOL   H18814224   4.782   5.817   4.428 -2.0572  1.6761  1.6089
   59MOL   H18914225   4.628   5.856   4.376  0.2062 -0.5680 -0.8235
   59MOL   H19014226   4.677   5.716   4.159  3.1024  0.6424 -1.0790
   59MOL   H19114227   4.998   5.403   4.215 -0.9773  0.3805 -0.9857
   59MOL   H19214228   5.090   5.550   4.215  0.6496 -1.3446  0.6129
   59MOL   H19314229   5.051   5.451   4.064  3.0099  0.1830  0.8681
   59MOL   C19414230   4.610   5.589   4.330  0.2624  0.5206  0.0773
   59MOL   C19514231   4.461   5.623   4.317 -0.5787  0.1357  0.4089
   59MOL   O19614232   4.436   5.606   4.186  0.3335 -0.0752  0.0455
   59MOL   C19714233   4.373   5.705   4.116  0.6527 -0.8032 -0.2892
   59MOL   C19814234   4.363   5.668   3.973  0.9776 -0.1950  1.0279
   59MOL   O19914235   4.328   5.807   4.164 -0.7236  0.6477 -0.0848
   59MOL   H20014236   4.614   5.490   4.284  0.3273  0.3995  0.3492
   59MOL   H20114237   4.635   5.575   4.435  1.7096 -0.2119 -0.3525
   59MOL   H20214238   4.455   5.728   4.346 -0.9084  0.5435 -1.0973
   59MOL   H20314239   4.463   5.651   3.933  1.0710 -1.5736  1.8182
   59MOL   H20414240   4.295   5.732   3.917  2.0863 -0.4136 -0.6007
   59MOL   H20514241   4.312   5.573   3.960  0.8521  0.1754 -1.3406
   59MOL   C20614242   4.375   5.524   4.393  0.3494  0.4243  0.4835
   59MOL   C20714243   4.381   5.566   4.542 -0.2140  0.1501 -0.9936
   59MOL   O20814244   4.316   5.692   4.548  0.4565  0.2532 -0.2846
   59MOL   C20914245   4.369   5.803   4.598 -0.4643 -0.4562  0.1153
   59MOL   C21014246   4.275   5.916   4.602  1.0785 -0.1412  0.4542
   59MOL   O21114247   4.490   5.807   4.643 -0.0143  0.1466  0.1046
   59MOL   H21214248   4.275   5.522   4.351  0.2601  1.4068  0.6335
   59MOL   H21314249   4.427   5.430   4.373 -2.0236 -0.7300 -0.3869
   59MOL   H21414250   4.484   5.571   4.576 -0.0263 -1.4381 -1.3167
   59MOL   H21514251   4.212   5.899   4.689 -0.1542 -2.0956 -0.7561
   59MOL   H21614252   4.207   5.910   4.516 -0.7033 -0.6976  1.8644
   59MOL   H21714253   4.325   6.012   4.597 -3.0006  2.1537  1.2700
   59MOL   C21814254   4.308   5.471   4.635 -0.2192  0.3322 -0.5442
   59MOL   C21914255   4.326   5.515   4.781  0.0808  0.6558 -1.0166
   59MOL   O22014256   4.219   5.467   4.851  0.0272 -0.2448 -0.3268
   59MOL   C22114257   4.103   5.542   4.849 -0.3016  0.5286 -0.1477
   59MOL   C22214258   4.016   5.506   4.975  0.5995 -0.2243 -0.4171
   59MOL   O22314259   4.071   5.628   4.767 -0.1875 -0.6238 -0.0424
   59MOL   H22414260   4.206   5.455   4.600 -0.3327 -0.6837  0.2400
   59MOL   H22514261   4.345   5.368   4.632 -0.2030  0.3709 -1.8074
   59MOL   H22614262   4.329   5.624   4.789  0.9749  0.4582  2.4762
   59MOL   H22714263   4.052   5.420   5.030  0.5815 -0.8769 -1.4124
   59MOL   H22814264   3.917   5.489   4.931  0.6888  0.7326 -0.9928
   59MOL   H22914265   3.999   5.596   5.034  1.8085 -0.2045 -0.0835
   59MOL   C23014266   4.456   5.461   4.852  0.4132  0.2002 -0.6538
   59MOL   C23114267   4.491   5.525   4.989 -0.8885 -0.0538 -0.7019
   59MOL   O23214268   4.619   5.484   5.037  0.3121  0.1595 -0.1374
   59MOL   C23314269   4.631   5.408   5.150 -0.4091 -0.3470 -0.3249
   59MOL   C23414270   4.775   5.421   5.196 -0.4954  0.0313  0.3185
   59MOL   O23514271   4.546   5.349   5.215 -0.2012  0.2519  1.1811
   59MOL   H23614272   4.448   5.355   4.872  0.2981  0.4029  0.3801
   59MOL   H23714273   4.539   5.466   4.781  0.0157  1.8580 -1.0279
   59MOL   H23814274   4.411   5.504   5.060  1.2683 -0.3217  1.7554
   59MOL   H23914275   4.843   5.474   5.130  0.7178  0.2642  1.7380
   59MOL   H24014276   4.820   5.322   5.201 -3.9595 -1.6678 -0.2308
   59MOL   H24114277   4.767   5.468   5.294 -0.0486  1.2251 -0.2169
   59MOL   H24214278   4.487   5.632   4.967  0.4894 -0.0149 -0.8346
   60MOL     C114279   6.726   2.807   1.974 -0.4341  0.4182 -0.4201
   60MOL     C214280   6.748   2.775   2.126  1.0004 -0.9737 -0.0934
   60MOL     O314281   6.887   2.775   2.149 -0.2521 -0.1668  0.0031
   60MOL     C414282   6.943   2.673   2.207  0.3410  0.2359  0.3056
   60MOL     C514283   7.094   2.683   2.198 -0.0004  0.3933 -0.2220
   60MOL     O614284   6.880   2.576   2.246 -0.3500 -0.8762  0.1927
   60MOL     H714285   6.775   2.721   1.928 -0.9449 -1.0474  1.7197
   60MOL     H814286   6.772   2.899   1.938  2.2900 -0.9947 -0.7188
   60MOL     H914287   6.712   2.672   2.130  3.3978 -1.8613 -0.1225
   60MOL    H1014288   7.124   2.674   2.093 -0.4508 -0.5116 -0.2773
   60MOL    H1114289   7.142   2.603   2.254 -0.8594 -0.2297 -0.3716
   60MOL    H1214290   7.131   2.779   2.233  0.4013  0.5691 -1.1191
   60MOL    H1314291   6.623   2.802   1.941 -0.2868 -0.4521 -0.7638
   60MOL    C1414292   6.663   2.854   2.239 -0.3927  0.5198 -0.6022
   60MOL    C1514293   6.660   3.007   2.236 -0.3162 -0.0023 -0.5642
   60MOL    O1614294   6.579   3.053   2.125 -0.1336 -0.0152 -0.2885
   60MOL    C1714295   6.611   3.172   2.082  0.0560 -0.0082 -0.9417
   60MOL    C1814296   6.517   3.231   1.979  0.0800  0.4356 -0.0323
   60MOL    O1914297   6.710   3.236   2.122 -0.1813  0.0245 -0.0817
   60MOL    H2014298   6.562   2.813   2.239 -1.2487  2.5721  1.1764
   60MOL    H2114299   6.702   2.819   2.335 -1.2862  0.7367 -0.1604
   60MOL    H2214300   6.765   3.031   2.218  0.0553 -1.5850 -0.5956
   60MOL    H2314301   6.415   3.194   1.987 -0.1388  0.5844 -1.9506
   60MOL    H2414302   6.551   3.223   1.876  2.0044 -0.4919  0.6474
   60MOL    H2514303   6.520   3.335   2.013  3.7343  0.9034 -1.5474
   60MOL    C2614304   6.610   3.063   2.370  0.1033 -0.0911 -0.1393
   60MOL    C2714305   6.723   3.062   2.481 -0.8055 -0.1017  0.0292
   60MOL    O2814306   6.817   3.155   2.441  0.3623 -0.7345 -0.5892
   60MOL    C2914307   6.943   3.130   2.426 -0.4151 -0.3380 -0.7650
   60MOL    C3014308   7.030   3.259   2.408  0.1292  0.0439 -0.0490
   60MOL    O3114309   6.992   3.015   2.424  0.7142  0.5755 -0.4072
   60MOL    H3214310   6.572   3.164   2.354 -0.3359 -0.5237 -1.9094
   60MOL    H3314311   6.527   2.997   2.398 -0.6607  1.5476  1.5822
   60MOL    H3414312   6.767   2.963   2.491  2.0044  1.1226  0.1857
   60MOL    H3514313   7.034   3.309   2.505 -0.5457  1.1141 -0.5544
   60MOL    H3614314   6.978   3.314   2.330 -1.3560 -0.5212  0.5274
   60MOL    H3714315   7.130   3.228   2.377  0.1744 -1.8975  1.9714
   60MOL    C3814316   6.661   3.108   2.621 -0.0022  0.5236  0.4552
   60MOL    C3914317   6.720   3.045   2.747 -0.3817 -0.4754  0.0551
   60MOL    O4014318   6.853   3.090   2.750 -0.6029 -0.2239 -0.2105
   60MOL    C4114319   6.951   3.019   2.794  0.0761  0.1903 -0.7322
   60MOL    C4214320   7.092   3.090   2.778  0.2639  0.0090 -0.3016
   60MOL    O4314321   6.946   2.900   2.820  0.2430  0.2953  0.6396
   60MOL    H4414322   6.657   3.216   2.621  2.1345  0.6335 -0.9911
   60MOL    H4514323   6.558   3.074   2.623 -0.3165  1.5356  1.8256
   60MOL    H4614324   6.716   2.938   2.728 -0.6852 -0.1804 -1.6765
   60MOL    H4714325   7.179   3.025   2.789 -0.0679 -0.1314  1.7467
   60MOL    H4814326   7.101   3.172   2.849  0.7166  0.5604 -0.9935
   60MOL    H4914327   7.103   3.121   2.674  2.7276  0.8222  0.1465
   60MOL    C5014328   6.629   3.065   2.875  0.5964 -0.4706  0.4710
   60MOL    C5114329   6.595   3.211   2.912  0.0762  0.5825  1.0287
   60MOL    O5214330   6.462   3.217   2.959  0.2956  0.5180 -0.3224
   60MOL    C5314331   6.358   3.224   2.873 -0.7048 -0.0569  0.5136
   60MOL    C5414332   6.229   3.254   2.943 -0.3851  0.1333 -0.2025
   60MOL    O5514333   6.364   3.223   2.750  0.2335  0.2817  0.2919
   60MOL    H5614334   6.539   3.004   2.873  0.6776 -0.5523 -1.2171
   60MOL    H5714335   6.688   3.020   2.955 -0.8540 -1.5785  0.9369
   60MOL    H5814336   6.594   3.267   2.818  0.0010 -1.0632  0.0357
   60MOL    H5914337   6.157   3.178   2.912 -0.0588  0.1786 -1.0944
   60MOL    H6014338   6.181   3.339   2.895 -0.3818 -0.7440 -1.8084
   60MOL    H6114339   6.240   3.264   3.051  0.6726 -4.5290  0.2161
   60MOL    C6214340   6.690   3.272   3.020  0.2058  0.2553 -0.2617
   60MOL    C6314341   6.715   3.421   3.004 -0.7301  0.7096 -0.4481
   60MOL    O6414342   6.797   3.447   2.886 -0.3356 -0.1655  0.0248
   60MOL    C6514343   6.921   3.488   2.889  0.3041 -0.0079  0.1790
   60MOL    C6614344   6.979   3.486   2.748 -0.2567 -0.3579 -0.5753
   60MOL    O6714345   6.974   3.541   2.991  0.4467 -0.1880  0.0770
   60MOL    H6814346   6.645   3.269   3.119  1.1031  0.9424  0.1811
   60MOL    H6914347   6.787   3.222   3.024  1.2345  2.3019  2.7242
   60MOL    H7014348   6.765   3.442   3.099  0.7589  0.3594 -1.1323
   60MOL    H7114349   6.952   3.570   2.684  1.1132  2.3437  2.2493
   60MOL    H7214350   6.936   3.397   2.703 -2.1249 -0.3504  1.1153
   60MOL    H7314351   7.087   3.471   2.746 -0.4514 -1.6367 -3.0824
   60MOL    C7414352   6.596   3.520   2.990 -0.7012 -0.9097 -0.0525
   60MOL    C7514353   6.605   3.629   3.107  0.3413 -0.1866  0.5048
   60MOL    O7614354   6.708   3.713   3.067 -0.3475 -0.6453  0.5144
   60MOL    C7714355   6.795   3.763   3.159  0.3698 -0.1075 -0.3883
   60MOL    C7814356   6.882   3.866   3.093 -0.3914  0.6187  0.5580
   60MOL    O7914357   6.801   3.733   3.281 -0.2497  0.2793  0.0584
   60MOL    H8014358   6.601   3.557   2.888 -0.7742 -1.4287 -0.2420
   60MOL    H8114359   6.501   3.468   2.988 -1.0830 -0.4245  2.6105
   60MOL    H8214360   6.616   3.571   3.199  1.8474  0.1025  0.5176
   60MOL    H8314361   6.918   3.955   3.146 -1.2174  1.4424 -0.2322
   60MOL    H8414362   6.825   3.909   3.010 -1.1966 -2.3849 -0.5045
   60MOL    H8514363   6.971   3.819   3.051 -1.0482 -0.1636  0.0328
   60MOL    C8614364   6.485   3.728   3.105  1.0901  0.0196  0.1227
   60MOL    C8714365   6.350   3.648   3.122 -0.2132  0.4433 -0.6060
   60MOL    O8814366   6.321   3.614   3.261 -0.2124  0.0545 -0.3613
   60MOL    C8914367   6.328   3.480   3.308  0.5287  0.9256  0.2595
   60MOL    C9014368   6.284   3.449   3.448  0.5637 -0.4344  0.3740
   60MOL    O9114369   6.383   3.390   3.246 -0.0608 -0.7317 -0.0963
   60MOL    H9214370   6.493   3.810   3.176 -2.2357 -0.9267  1.7000
   60MOL    H9314371   6.492   3.776   3.007 -2.8511  0.1379 -0.2103
   60MOL    H9414372   6.358   3.556   3.064 -0.0115  1.1352 -1.6833
   60MOL    H9514373   6.291   3.538   3.510  1.2321 -0.9992  1.1157
   60MOL    H9614374   6.339   3.365   3.491  3.5666  0.8311 -0.8925
   60MOL    H9714375   6.175   3.437   3.449  0.4670  0.4242  1.5719
   60MOL    C9814376   6.225   3.725   3.084  0.0369 -0.2292  0.4185
   60MOL    C9914377   6.104   3.644   3.039 -0.1790  0.3103  0.1724
   60MOL   O10014378   6.156   3.575   2.923  0.1859 -0.5345  0.1331
   60MOL   C10114379   6.123   3.616   2.801 -0.5667  0.7439  0.1501
   60MOL   C10214380   6.205   3.555   2.686 -0.3134 -0.5418 -0.2064
   60MOL   O10314381   6.041   3.709   2.773 -0.3968 -0.0744 -0.4157
   60MOL   H10414382   6.189   3.794   3.160  0.2467  2.1189 -1.5761
   60MOL   H10514383   6.261   3.786   3.001 -0.1535  0.9137  1.1643
   60MOL   H10614384   6.017   3.704   3.011 -1.2019 -1.0279  0.4113
   60MOL   H10714385   6.303   3.602   2.674 -1.5728  1.7209 -2.1728
   60MOL   H10814386   6.152   3.566   2.592  1.4448  0.9749 -1.0620
   60MOL   H10914387   6.214   3.450   2.711 -1.1455 -0.7811 -0.8916
   60MOL   C11014388   6.049   3.538   3.134  0.1164 -0.2955 -0.1425
   60MOL   C11114389   5.903   3.503   3.102 -0.1626  0.3174  1.1048
   60MOL   O11214390   5.874   3.371   3.147  0.0922  0.1212 -0.3497
   60MOL   C11314391   5.848   3.268   3.062 -0.5323 -0.9114 -0.3620
   60MOL   C11414392   5.797   3.146   3.135 -0.2252  0.2943 -0.3492
   60MOL   O11514393   5.855   3.275   2.940 -0.1913 -0.2398  0.5383
   60MOL   H11614394   6.110   3.448   3.136 -0.6393 -0.8339 -0.6528
   60MOL   H11714395   6.047   3.571   3.238 -0.0967  0.0694 -0.2586
   60MOL   H11814396   5.886   3.505   2.995 -0.1238  1.1256  1.1097
   60MOL   H11914397   5.826   3.160   3.240  1.3118  1.0933 -0.8513
   60MOL   H12014398   5.859   3.065   3.097  1.8349  1.1579  1.0563
   60MOL   H12114399   5.690   3.135   3.126 -0.3191  2.1062 -1.7917
   60MOL   C12214400   5.792   3.581   3.176  0.1960  0.0894  0.3325
   60MOL   C12314401   5.755   3.714   3.107  0.8577  0.2217 -0.4609
   60MOL   O12414402   5.689   3.684   2.982 -0.8747 -0.1658 -0.0860
   60MOL   C12514403   5.701   3.770   2.873  0.4426  0.0061 -0.4129
   60MOL   C12614404   5.640   3.716   2.749 -0.1465  0.2866 -0.0175
   60MOL   O12714405   5.750   3.884   2.875 -0.4834 -0.0853 -0.1239
   60MOL   H12814406   5.699   3.526   3.188  1.2925 -1.4496  2.2360
   60MOL   H12914407   5.827   3.596   3.278  1.0614 -1.0153  0.2153
   60MOL   H13014408   5.842   3.778   3.093  0.4899  1.2455  1.7080
   60MOL   H13114409   5.534   3.738   2.737 -0.0418  1.5624  1.2524
   60MOL   H13214410   5.647   3.607   2.749 -0.8873  0.2194  1.2632
   60MOL   H13314411   5.673   3.745   2.650 -2.0769 -0.1441 -0.8045
   60MOL   C13414412   5.654   3.797   3.188 -0.3356  0.7697 -0.2510
   60MOL   C13514413   5.694   3.844   3.327 -0.3468 -0.2717  0.2375
   60MOL   O13614414   5.779   3.956   3.322 -0.1321  0.4461  0.3137
   60MOL   C13714415   5.921   3.932   3.320  0.0278 -0.3826  0.3106
   60MOL   C13814416   6.008   4.055   3.305 -0.1152  0.0626 -0.2505
   60MOL   O13914417   5.968   3.815   3.323  0.4359  0.0393 -0.2714
   60MOL   H14014418   5.619   3.884   3.132 -1.0676  0.8075  0.2548
   60MOL   H14114419   5.567   3.731   3.198 -0.9279  1.4648 -0.7622
   60MOL   H14214420   5.745   3.757   3.368 -0.0659  0.4039  1.3402
   60MOL   H14314421   6.107   4.015   3.328  0.1505  0.8378 -0.0456
   60MOL   H14414422   5.994   4.144   3.367  0.6571 -0.1898  0.2860
   60MOL   H14514423   6.007   4.073   3.198 -0.7087  2.9878  0.2111
   60MOL   C14614424   5.586   3.884   3.427  0.5108 -0.1923  0.2866
   60MOL   C14714425   5.630   3.916   3.576  0.0178  0.3557  0.0827
   60MOL   O14814426   5.537   4.012   3.620 -0.2283 -0.3025 -0.2153
   60MOL   C14914427   5.569   4.145   3.601 -0.0650 -0.0550 -0.1307
   60MOL   C15014428   5.450   4.235   3.620 -0.0592 -0.1848 -0.2502
   60MOL   O15114429   5.681   4.197   3.590  0.3443  0.1264  0.0891
   60MOL   H15214430   5.539   3.968   3.376 -1.8468 -1.6925 -0.0773
   60MOL   H15314431   5.510   3.807   3.417 -0.7260  0.8540  1.5046
   60MOL   H15414432   5.729   3.960   3.558 -0.2357  0.3418 -1.4524
   60MOL   H15514433   5.390   4.206   3.707  0.1984  1.3792  0.4652
   60MOL   H15614434   5.389   4.255   3.532  0.8529 -0.9388 -1.0593
   60MOL   H15714435   5.491   4.329   3.655  1.1007 -0.5391 -0.6357
   60MOL   C15814436   5.635   3.796   3.674  0.0860  0.5508  0.7563
   60MOL   C15914437   5.678   3.832   3.823 -0.3005  0.4259 -0.1979
   60MOL   O16014438   5.556   3.896   3.877 -0.6205  0.3783  0.1444
   60MOL   C16114439   5.556   4.006   3.952  0.2276 -0.1978  0.3614
   60MOL   C16214440   5.429   4.074   3.966  0.5976  0.2744  0.0815
   60MOL   O16314441   5.660   4.054   4.005 -0.4947  0.3685  0.6627
   60MOL   H16414442   5.532   3.764   3.657  0.6579 -0.5851 -0.7003
   60MOL   H16514443   5.712   3.724   3.645 -0.0613 -0.1420  2.0613
   60MOL   H16614444   5.765   3.898   3.824  0.4484 -0.5496 -0.6382
   60MOL   H16714445   5.435   4.173   3.921 -0.1189  0.2598 -0.0500
   60MOL   H16814446   5.403   4.088   4.071  0.2987 -1.0652  0.1990
   60MOL   H16914447   5.344   4.029   3.914 -0.0802  0.3106  1.1439
   60MOL   C17014448   5.716   3.704   3.898  0.6159 -0.3533 -0.2463
   60MOL   C17114449   5.798   3.733   4.023 -0.0768  0.8622 -0.4852
   60MOL   O17214450   5.801   3.617   4.105 -0.5853  0.0746  0.6449
   60MOL   C17314451   5.718   3.596   4.209  0.2810  0.4483  0.6275
   60MOL   C17414452   5.751   3.464   4.278  0.3082  0.0415 -0.3453
   60MOL   O17514453   5.628   3.672   4.246  0.4909  0.1316  0.1611
   60MOL   H17614454   5.621   3.658   3.925 -0.1724  0.2903 -1.8484
   60MOL   H17714455   5.760   3.625   3.837 -1.8381 -1.7023 -0.3391
   60MOL   H17814456   5.749   3.814   4.077  0.6647  1.0333 -0.0591
   60MOL   H17914457   5.805   3.498   4.366 -0.5667 -0.8662  0.5580
   60MOL   H18014458   5.811   3.397   4.216  0.2198 -0.4122  0.0591
   60MOL   H18114459   5.661   3.410   4.308 -0.2292  0.0187 -1.9133
   60MOL   C18214460   5.948   3.775   3.992 -0.5033 -0.0458  0.0913
   60MOL   C18314461   6.030   3.673   3.916 -0.5487  0.8077  0.0693
   60MOL   O18414462   6.123   3.730   3.821  0.2827  0.2497 -0.4221
   60MOL   C18514463   6.078   3.760   3.695 -0.0612  0.1176 -0.1520
   60MOL   C18614464   6.181   3.812   3.607  0.1720  0.6002 -0.1992
   60MOL   O18714465   5.960   3.752   3.661  0.3336 -0.4894  0.1976
   60MOL   H18814466   5.945   3.874   3.947 -0.6811  0.4890  1.2530
   60MOL   H18914467   5.994   3.793   4.090 -1.4868 -2.5554  1.0579
   60MOL   H19014468   5.965   3.619   3.847  1.7575 -0.3928 -1.2180
   60MOL   H19114469   6.194   3.748   3.520 -1.3421  1.9897 -1.4866
   60MOL   H19214470   6.277   3.821   3.658  0.6570  1.5767 -1.2406
   60MOL   H19314471   6.148   3.905   3.560  0.3220  0.6161 -0.2750
   60MOL   C19414472   6.106   3.568   4.000  0.4220 -0.1097  0.0011
   60MOL   C19514473   6.202   3.462   3.929 -0.0110  0.2507 -0.4322
   60MOL   O19614474   6.128   3.398   3.821  0.5576  0.1412  0.0942
   60MOL   C19714475   6.036   3.300   3.834  0.3527  0.8453 -0.2497
   60MOL   C19814476   6.009   3.215   3.708 -0.5815 -0.2630 -0.5816
   60MOL   O19914477   5.974   3.263   3.939  0.2999  0.1787 -0.1480
   60MOL   H20014478   6.164   3.622   4.074 -1.4055  0.5571  0.9890
   60MOL   H20114479   6.040   3.511   4.066  0.6877  1.1861  1.4140
   60MOL   H20214480   6.223   3.386   4.005 -0.5101  0.8330  0.2939
   60MOL   H20314481   6.041   3.264   3.615 -1.6601 -0.2804 -0.9657
   60MOL   H20414482   5.901   3.205   3.706 -0.5762 -0.2226 -2.3141
   60MOL   H20514483   6.059   3.118   3.710  0.8793  0.4194 -2.1103
   60MOL   C20614484   6.343   3.513   3.891  0.1617 -0.3582 -0.1962
   60MOL   C20714485   6.441   3.510   4.006  0.9762 -0.4261 -0.7907
   60MOL   O20814486   6.477   3.378   4.017 -0.4574 -0.6830  0.4041
   60MOL   C20914487   6.476   3.314   4.130  0.8165  0.3846  0.1250
   60MOL   C21014488   6.523   3.170   4.110  0.1016  0.4714 -0.1017
   60MOL   O21114489   6.415   3.350   4.228 -0.2779 -0.0459 -0.0780
   60MOL   H21214490   6.376   3.450   3.808  0.6241  0.6295 -0.7834
   60MOL   H21314491   6.321   3.611   3.847  4.4858  0.1262 -1.5495
   60MOL   H21414492   6.384   3.533   4.096 -0.4222  1.7137 -2.1646
   60MOL   H21514493   6.560   3.151   4.210  0.2795  2.6824  0.2811
   60MOL   H21614494   6.604   3.171   4.037  1.0396 -0.2998  0.9288
   60MOL   H21714495   6.441   3.106   4.077  0.5774 -0.7202  1.0156
   60MOL   C21814496   6.561   3.599   3.989  0.0387  0.8247 -0.2784
   60MOL   C21914497   6.670   3.552   3.885  0.0338  0.3286  0.2362
   60MOL   O22014498   6.671   3.645   3.775  0.0197 -0.1300  0.3888
   60MOL   C22114499   6.606   3.617   3.665  0.4622  1.2611  0.8047
   60MOL   C22214500   6.589   3.736   3.569 -0.0677  0.2573  0.8360
   60MOL   O22314501   6.542   3.513   3.641  0.3058  0.0907 -0.1384
   60MOL   H22414502   6.520   3.695   3.956  0.9862  1.3074 -0.0558
   60MOL   H22514503   6.600   3.604   4.090  2.3914  1.0506 -1.1752
   60MOL   H22614504   6.645   3.455   3.842  1.3152  0.7665 -1.5393
   60MOL   H22714505   6.553   3.706   3.470  1.6547  1.0254 -0.0402
   60MOL   H22814506   6.684   3.777   3.538 -0.9279  1.0652 -0.8134
   60MOL   H22914507   6.543   3.822   3.618  0.1488  0.1997  1.1439
   60MOL   C23014508   6.807   3.537   3.936  0.5165 -0.2374  0.0095
   60MOL   C23114509   6.910   3.477   3.830 -0.1219 -0.1036  0.3209
   60MOL   O23214510   6.877   3.349   3.772 -0.5275  0.0737  0.0836
   60MOL   C23314511   6.961   3.303   3.672 -0.0070  0.7640 -0.5899
   60MOL   C23414512   6.915   3.183   3.599 -0.0635 -0.0929 -0.8502
   60MOL   O23514513   7.061   3.365   3.627 -0.3453  0.7724 -1.0665
   60MOL   H23614514   6.838   3.640   3.954  1.4550 -0.3086 -1.1498
   60MOL   H23714515   6.809   3.479   4.029  1.0814 -0.4700 -0.1422
   60MOL   H23814516   7.011   3.472   3.871  1.2622  0.6177 -2.8427
   60MOL   H23914517   6.891   3.101   3.667 -2.2854  1.3200  0.1432
   60MOL   H24014518   6.995   3.155   3.531  1.5625 -0.1646  1.0307
   60MOL   H24114519   6.823   3.205   3.544 -0.6689  0.6319  0.4172
   60MOL   H24214520   6.930   3.538   3.741  0.8160 -0.5716  0.2032
   61MOL     C114521   0.819   6.265   3.654 -0.4047  0.1943  0.2449
   61MOL     C214522   0.846   6.396   3.584  0.5168 -0.4932  0.3967
   61MOL     O314523   0.721   6.462   3.558  0.2648 -0.0933 -0.0540
   61MOL     C414524   0.665   6.440   3.438 -0.1761 -0.4006  0.0891
   61MOL     C514525   0.554   6.543   3.408 -0.1042  0.4915  0.6112
   61MOL     O614526   0.691   6.351   3.350 -0.3623 -0.3367  0.4600
   61MOL     H714527   0.905   6.208   3.691 -0.7743 -1.7749 -1.7731
   61MOL     H814528   0.782   6.196   3.578  1.3884  1.4083 -1.7559
   61MOL     H914529   0.906   6.373   3.496 -1.6138 -1.8768 -0.7415
   61MOL    H1014530   0.590   6.639   3.371  3.3415 -1.2260 -0.7363
   61MOL    H1114531   0.513   6.564   3.506 -2.3844  0.9504 -0.4237
   61MOL    H1214532   0.482   6.496   3.341  2.2503  1.9043 -3.0806
   61MOL    H1314533   0.746   6.273   3.735 -0.6489  3.6708 -0.2527
   61MOL    C1414534   0.911   6.505   3.676  0.5705 -0.6208 -0.2671
   61MOL    C1514535   1.066   6.507   3.680  0.0906 -0.3877  0.1373
   61MOL    O1614536   1.113   6.563   3.554  0.6417 -0.0748 -0.3269
   61MOL    C1714537   1.240   6.532   3.507  0.2774  0.2991  0.3389
   61MOL    C1814538   1.266   6.597   3.378 -0.5406  0.0082 -0.0068
   61MOL    O1914539   1.330   6.476   3.570  0.3287 -0.8592  0.5954
   61MOL    H2014540   0.883   6.602   3.635  1.1481 -0.2774  0.1346
   61MOL    H2114541   0.874   6.500   3.779  0.0359 -1.6469 -0.5011
   61MOL    H2214542   1.115   6.411   3.696 -1.2871 -1.4755 -1.9333
   61MOL    H2314543   1.286   6.704   3.388  1.4046 -0.0196 -2.8792
   61MOL    H2414544   1.195   6.577   3.297  0.8927  2.2132 -1.8797
   61MOL    H2514545   1.363   6.567   3.337 -0.4591  0.2004  0.0458
   61MOL    C2614546   1.118   6.592   3.801  0.7023 -0.2226 -0.4359
   61MOL    C2714547   1.087   6.539   3.942 -0.0033 -0.2442  0.2851
   61MOL    O2814548   1.147   6.418   3.967  0.3218  0.5602  0.0451
   61MOL    C2914549   1.082   6.306   3.982  0.8923  0.1768 -0.0407
   61MOL    C3014550   1.172   6.193   4.020 -0.2482 -0.1229 -0.3248
   61MOL    O3114551   0.966   6.295   3.953 -0.1562 -0.1944 -0.1219
   61MOL    H3214552   1.225   6.612   3.799  0.3597  1.8013  0.4161
   61MOL    H3314553   1.075   6.693   3.799  5.2466  1.8173 -0.6760
   61MOL    H3414554   0.979   6.533   3.949  0.0317  0.1327  1.2122
   61MOL    H3514555   1.277   6.222   4.026  0.1028 -0.9925 -2.1730
   61MOL    H3614556   1.163   6.109   3.952  0.0167  0.8164 -1.5446
   61MOL    H3714557   1.150   6.160   4.122 -1.2859 -0.5542 -0.6868
   61MOL    C3814558   1.143   6.639   4.055  0.5387 -0.7381  0.0867
   61MOL    C3914559   1.093   6.611   4.200 -1.0639  0.1554 -0.7060
   61MOL    O4014560   0.960   6.547   4.199  0.3264 -0.6461 -0.0271
   61MOL    C4114561   0.855   6.619   4.234  0.8213 -0.9971 -0.6555
   61MOL    C4214562   0.726   6.538   4.237 -0.6108  0.5749  0.4986
   61MOL    O4314563   0.852   6.736   4.278  0.2392  0.5372 -0.6073
   61MOL    H4414564   1.251   6.651   4.045  0.3619  1.4375  0.5314
   61MOL    H4514565   1.120   6.741   4.021  3.1673 -0.6088 -1.5130
   61MOL    H4614566   1.081   6.709   4.245  1.3679 -0.6029  1.7344
   61MOL    H4714567   0.643   6.607   4.246 -0.6492  0.4032  1.5463
   61MOL    H4814568   0.737   6.463   4.315  0.9735 -1.2910 -1.4534
   61MOL    H4914569   0.732   6.491   4.139 -0.1303  1.2311  0.2094
   61MOL    C5014570   1.198   6.538   4.284  0.0619  0.9714  0.8593
   61MOL    C5114571   1.157   6.512   4.433 -0.2130  0.2491 -0.0411
   61MOL    O5214572   1.094   6.387   4.435 -0.1708  0.0322  0.4482
   61MOL    C5314573   0.996   6.355   4.519  0.4149 -0.2925  0.1804
   61MOL    C5414574   0.934   6.228   4.473  0.1077  0.1947 -0.4663
   61MOL    O5514575   0.950   6.424   4.610  0.0098  0.3282 -0.2366
   61MOL    H5614576   1.215   6.441   4.238  1.9742  0.9619  1.5403
   61MOL    H5714577   1.297   6.583   4.280  1.1271 -1.3451  0.3861
   61MOL    H5814578   1.085   6.588   4.464  0.3315  0.5276  0.5538
   61MOL    H5914579   0.979   6.148   4.532  0.2854  1.1507  0.7185
   61MOL    H6014580   0.961   6.211   4.369  0.6590 -1.9072 -0.0176
   61MOL    H6114581   0.827   6.222   4.496  0.2487  0.2534  0.2106
   61MOL    C6214582   1.282   6.514   4.536  0.3746 -0.6490 -0.1083
   61MOL    C6314583   1.339   6.655   4.558  0.0216  0.0680  0.3332
   61MOL    O6414584   1.234   6.711   4.636 -1.0209 -0.1786 -0.2480
   61MOL    C6514585   1.152   6.799   4.579 -0.3791 -0.0071 -0.9484
   61MOL    C6614586   1.042   6.843   4.681  0.1206  0.6019 -0.0290
   61MOL    O6714587   1.148   6.831   4.460  0.0254  0.0203  0.1781
   61MOL    H6814588   1.253   6.478   4.634  2.2793  2.4273  1.6691
   61MOL    H6914589   1.351   6.446   4.487  0.4199 -1.0390  0.4954
   61MOL    H7014590   1.377   6.695   4.464 -0.9113  2.2813  0.8621
   61MOL    H7114591   1.090   6.892   4.766 -0.3200 -2.0162  1.7972
   61MOL    H7214592   0.999   6.753   4.724 -1.2696 -0.3786 -3.3417
   61MOL    H7314593   0.974   6.909   4.626 -0.4986  1.1553  1.3805
   61MOL    C7414594   1.474   6.644   4.640 -0.0137 -0.1058 -0.1665
   61MOL    C7514595   1.556   6.769   4.644  0.3295 -0.0304 -0.4985
   61MOL    O7614596   1.492   6.868   4.732 -0.5108  0.2618 -0.1249
   61MOL    C7714597   1.452   6.985   4.682 -0.1786  0.4077 -0.0654
   61MOL    C7814598   1.429   7.091   4.790  0.4297 -0.6971 -0.7493
   61MOL    O7914599   1.431   7.008   4.564 -0.6917 -0.3286  0.5646
   61MOL    H8014600   1.441   6.599   4.734 -0.7564 -1.4925 -1.0806
   61MOL    H8114601   1.524   6.564   4.585  1.4731  1.6054 -1.3857
   61MOL    H8214602   1.565   6.808   4.542  0.3024 -1.4992 -1.0633
   61MOL    H8314603   1.516   7.158   4.788  0.4283 -0.5316  2.1949
   61MOL    H8414604   1.423   7.047   4.889  2.4787 -0.4917 -0.5048
   61MOL    H8514605   1.342   7.156   4.776  0.5760  0.1584  1.9751
   61MOL    C8614606   1.699   6.751   4.701  1.5380  0.0287 -0.2104
   61MOL    C8714607   1.807   6.849   4.661 -0.6463  0.0228  0.1590
   61MOL    O8814608   1.782   6.982   4.720 -0.0945  0.2321  0.2677
   61MOL    C8914609   1.781   7.088   4.645  0.2030  0.0153 -0.2327
   61MOL    C9014610   1.779   7.218   4.732  0.8213 -0.0132 -0.3390
   61MOL    O9114611   1.769   7.089   4.520  0.2819 -0.0579  0.0331
   61MOL    H9214612   1.689   6.755   4.809 -3.2118  0.2886 -0.5733
   61MOL    H9314613   1.730   6.647   4.685 -0.4392 -0.4635 -1.0138
   61MOL    H9414614   1.810   6.853   4.552  2.0309  0.8042  0.2197
   61MOL    H9514615   1.679   7.258   4.749 -0.1728 -0.9593 -3.4734
   61MOL    H9614616   1.860   7.283   4.699  0.8828  0.0265 -0.1104
   61MOL    H9714617   1.814   7.183   4.829 -0.3752 -2.4801 -0.7499
   61MOL    C9814618   1.944   6.800   4.718  1.0150 -0.2477 -0.1002
   61MOL    C9914619   2.057   6.894   4.678  0.1965 -0.0696 -0.8934
   61MOL   O10014620   2.129   6.927   4.794  0.3227 -0.3212  0.0167
   61MOL   C10114621   2.146   7.049   4.836 -0.1980 -0.6251  0.0088
   61MOL   C10214622   2.257   7.046   4.942 -0.0291 -0.4319  0.3474
   61MOL   O10314623   2.098   7.148   4.785 -0.4610 -0.6898  0.5716
   61MOL   H10414624   1.932   6.793   4.826 -1.6671 -3.2068 -0.5194
   61MOL   H10514625   1.969   6.700   4.684  0.8943 -0.2634 -0.1427
   61MOL   H10614626   2.016   6.989   4.643  1.4180  1.1932  1.0162
   61MOL   H10714627   2.320   6.957   4.943 -2.0737 -1.9238  1.1879
   61MOL   H10814628   2.217   7.075   5.039 -0.8305 -0.3008 -0.0116
   61MOL   H10914629   2.327   7.120   4.903  0.2671 -0.2835  1.1513
   61MOL   C11014630   2.165   6.839   4.582 -0.2726  0.2094 -0.2512
   61MOL   C11114631   2.104   6.802   4.449 -0.4707 -0.2135 -0.3097
   61MOL   O11214632   2.060   6.920   4.379 -0.7114 -0.1585  0.4968
   61MOL   C11314633   1.967   6.905   4.289  0.9330  0.0549  0.9209
   61MOL   C11414634   1.930   7.031   4.207  0.6292 -0.3167  0.0440
   61MOL   O11514635   1.907   6.797   4.270 -0.7129 -0.3347 -0.5156
   61MOL   H11614636   2.244   6.913   4.567 -1.3185  0.9757 -2.2453
   61MOL   H11714637   2.222   6.755   4.620  1.5303  1.7897  0.6262
   61MOL   H11814638   2.022   6.734   4.473 -0.3928  0.3871  1.7311
   61MOL   H11914639   2.017   7.097   4.204 -0.4898  1.1803  0.2226
   61MOL   H12014640   1.854   7.084   4.264 -0.1340 -1.0369 -0.3100
   61MOL   H12114641   1.902   7.006   4.105 -2.4451 -0.4704  0.8699
   61MOL   C12214642   2.218   6.725   4.362  0.4544 -0.0999 -0.5965
   61MOL   C12314643   2.223   6.575   4.383 -0.0133 -0.7791  1.4296
   61MOL   O12414644   2.104   6.522   4.330  1.1583  0.3377 -0.1237
   61MOL   C12514645   2.002   6.475   4.414 -0.3952  0.6726  0.4603
   61MOL   C12614646   1.876   6.433   4.336  0.1645  0.3451  0.4754
   61MOL   O12714647   2.012   6.475   4.539 -0.0962  0.4202  0.8554
   61MOL   H12814648   2.206   6.751   4.257  1.5004  0.4545 -0.5829
   61MOL   H12914649   2.316   6.764   4.392  0.0221  1.5805 -1.2922
   61MOL   H13014650   2.244   6.566   4.490  1.8928 -0.8357  1.0553
   61MOL   H13114651   1.899   6.375   4.246 -1.7555  0.3451 -0.0464
   61MOL   H13214652   1.813   6.518   4.313 -0.3456 -0.3836 -0.9193
   61MOL   H13314653   1.808   6.382   4.404  0.7910  2.0379  2.4201
   61MOL   C13414654   2.339   6.517   4.301 -0.1334 -0.4597 -0.8661
   61MOL   C13514655   2.361   6.360   4.301  0.4197  0.2845 -0.2104
   61MOL   O13614656   2.455   6.320   4.206  0.5190 -0.9758  0.0270
   61MOL   C13714657   2.410   6.283   4.086 -0.2790  0.1155  0.3613
   61MOL   C13814658   2.520   6.228   3.995 -0.3603 -0.3794 -0.6518
   61MOL   O13914659   2.293   6.278   4.053 -0.3298  0.1593  0.1639
   61MOL   H14014660   2.329   6.532   4.194  2.1414 -0.6529 -1.1446
   61MOL   H14114661   2.434   6.561   4.332 -1.7643  2.8350 -0.4333
   61MOL   H14214662   2.267   6.306   4.297  2.6451 -3.9899  1.5899
   61MOL   H14314663   2.614   6.251   4.045 -0.7781 -0.6802  0.2711
   61MOL   H14414664   2.520   6.297   3.910 -0.0570 -2.6572 -2.5585
   61MOL   H14514665   2.515   6.128   3.952 -0.0579 -0.2461 -1.0020
   61MOL   C14614666   2.413   6.318   4.436 -0.2577  0.2259 -0.1499
   61MOL   C14714667   2.478   6.183   4.448 -0.2488 -0.1261  0.9325
   61MOL   O14814668   2.511   6.158   4.579  0.4624 -0.1619 -0.4405
   61MOL   C14914669   2.637   6.129   4.627  0.4695 -0.0783 -0.1622
   61MOL   C15014670   2.623   6.088   4.770 -0.0596  0.6252 -0.0662
   61MOL   O15114671   2.733   6.113   4.559 -0.1058 -0.5626 -0.1943
   61MOL   H15214672   2.496   6.381   4.466  0.4595 -0.9503  0.3509
   61MOL   H15314673   2.335   6.318   4.512  1.0689  1.1764  1.2416
   61MOL   H15414674   2.564   6.175   4.380 -0.4721 -1.2305  0.7636
   61MOL   H15514675   2.585   6.174   4.825 -0.0095  2.7054 -3.1846
   61MOL   H15614676   2.713   6.051   4.819  0.2658  0.2177 -0.9738
   61MOL   H15714677   2.554   6.006   4.787  0.8671  0.1189  1.3937
   61MOL   C15814678   2.384   6.063   4.404  0.0597 -0.3055 -0.4416
   61MOL   C15914679   2.483   5.947   4.366  0.2727 -0.4676  0.7363
   61MOL   O16014680   2.399   5.835   4.393 -0.3524  0.2967  0.5126
   61MOL   C16114681   2.397   5.766   4.514  0.5080  0.8701 -0.4844
   61MOL   C16214682   2.283   5.664   4.511 -0.0935  0.1612  0.1414
   61MOL   O16314683   2.470   5.791   4.611  0.5307 -0.2463 -0.1275
   61MOL   H16414684   2.323   6.043   4.492 -0.9895  1.7017 -0.6862
   61MOL   H16514685   2.321   6.085   4.318  1.7516  0.0768 -1.6218
   61MOL   H16614686   2.563   5.951   4.439  1.1453 -1.8137 -0.1169
   61MOL   H16714687   2.193   5.717   4.482  0.1336  1.5615  1.9388
   61MOL   H16814688   2.268   5.626   4.612  0.5943  0.5674  0.3984
   61MOL   H16914689   2.302   5.574   4.451 -2.1371  1.0585 -1.9279
   61MOL   C17014690   2.539   5.953   4.224 -0.1226  0.7094  0.2976
   61MOL   C17114691   2.653   5.850   4.204  0.4510 -0.3885  0.2950
   61MOL   O17214692   2.601   5.715   4.211  0.1707 -0.1588  0.1485
   61MOL   C17314693   2.675   5.624   4.282  0.5318 -0.0108 -0.0388
   61MOL   C17414694   2.604   5.489   4.285  0.1304  0.5416 -0.5349
   61MOL   O17514695   2.788   5.641   4.331  0.1467  0.6675 -0.1977
   61MOL   H17614696   2.461   5.935   4.150  0.0286  1.2583 -0.0004
   61MOL   H17714697   2.571   6.054   4.197  3.1319 -0.8576 -2.0189
   61MOL   H17814698   2.726   5.867   4.282  0.8720  3.4442 -0.8477
   61MOL   H17914699   2.678   5.410   4.293  0.7572  1.2550  0.9487
   61MOL   H18014700   2.542   5.469   4.198 -0.4284 -2.0674  0.4055
   61MOL   H18114701   2.538   5.483   4.372  0.3016 -0.5426 -0.4760
   61MOL   C18214702   2.727   5.859   4.066  0.0253  1.0246 -0.0694
   61MOL   C18314703   2.860   5.776   4.052 -0.4404 -0.6323 -0.1452
   61MOL   O18414704   2.892   5.771   3.908  0.5289 -0.2151 -0.0855
   61MOL   C18514705   2.890   5.650   3.857  0.5625 -0.0499 -0.2067
   61MOL   C18614706   2.873   5.648   3.709 -0.0963  0.6897 -0.2396
   61MOL   O18714707   2.923   5.543   3.914  0.6404 -0.5196 -0.3564
   61MOL   H18814708   2.663   5.837   3.981  1.2957 -1.6138 -0.3899
   61MOL   H18914709   2.767   5.959   4.047 -1.8966  1.7204 -0.4874
   61MOL   H19014710   2.830   5.677   4.086 -1.4985 -0.4206 -0.4510
   61MOL   H19114711   2.952   5.711   3.667 -0.9290  2.1015  0.2832
   61MOL   H19214712   2.776   5.685   3.675  0.0706  1.0605 -0.3142
   61MOL   H19314713   2.885   5.549   3.666 -2.8124  1.0002 -1.8337
   61MOL   C19414714   2.982   5.834   4.127  1.0104  0.2180 -0.0193
   61MOL   C19514715   3.112   5.743   4.123 -0.4090  0.1674  0.3554
   61MOL   O19614716   3.229   5.808   4.171 -0.0502 -0.0935  0.2560
   61MOL   C19714717   3.305   5.873   4.094  0.1884 -0.3751 -0.0695
   61MOL   C19814718   3.423   5.952   4.157  0.6941  0.4492 -0.2203
   61MOL   O19914719   3.297   5.871   3.977  0.4425 -0.9289 -0.2843
   61MOL   H20014720   3.008   5.931   4.084  1.1147 -0.7892 -2.3171
   61MOL   H20114721   2.954   5.867   4.227  2.0728  0.1665  0.2926
   61MOL   H20214722   3.125   5.712   4.019  0.2062  1.1661  0.1286
   61MOL   H20314723   3.488   5.893   4.221  0.6328 -0.0800 -0.6479
   61MOL   H20414724   3.375   6.032   4.213  3.0745 -0.3631  3.1318
   61MOL   H20514725   3.487   6.004   4.086  0.8191  1.5619  0.6893
   61MOL   C20614726   3.091   5.613   4.206  0.0864 -0.7513 -0.3616
   61MOL   C20714727   3.197   5.500   4.196 -0.1633 -0.3158 -0.1754
   61MOL   O20814728   3.305   5.532   4.288  0.3160  0.1612  0.6291
   61MOL   C20914729   3.429   5.499   4.253 -0.3447  0.0643 -0.4653
   61MOL   C21014730   3.528   5.530   4.362  0.2611 -0.4141 -0.6541
   61MOL   O21114731   3.469   5.462   4.137  0.3601  0.2394 -0.0856
   61MOL   H21214732   3.063   5.632   4.309 -0.8830 -0.1356 -0.7362
   61MOL   H21314733   2.995   5.573   4.173  0.2426 -1.2893 -0.1803
   61MOL   H21414734   3.231   5.491   4.093 -2.2527 -0.8684 -0.8209
   61MOL   H21514735   3.595   5.443   4.360  0.1142 -0.5769  0.7625
   61MOL   H21614736   3.468   5.534   4.453  1.5284  0.3702  0.1773
   61MOL   H21714737   3.582   5.624   4.353 -0.8797  0.2741 -0.3882
   61MOL   C21814738   3.135   5.362   4.223 -0.0960 -0.4164  0.4911
   61MOL   C21914739   3.086   5.338   4.361 -0.8171  0.1533 -0.4891
   61MOL   O22014740   2.984   5.241   4.354  0.6273 -0.4572 -0.1461
   61MOL   C22114741   2.895   5.238   4.448 -0.1402 -0.9481 -0.8011
   61MOL   C22214742   2.826   5.099   4.457 -1.0805 -0.1387 -0.5270
   61MOL   O22314743   2.871   5.327   4.525 -0.2944  0.1690 -0.5650
   61MOL   H22414744   3.045   5.359   4.162  0.0424 -1.8580  0.3331
   61MOL   H22514745   3.194   5.273   4.199  0.2691 -0.0912  0.1694
   61MOL   H22614746   3.044   5.431   4.399 -2.3402 -0.0518 -1.6332
   61MOL   H22714747   2.739   5.086   4.392 -0.6087 -1.2365 -0.9600
   61MOL   H22814748   2.804   5.074   4.561  2.1966  1.3313  0.5816
   61MOL   H22914749   2.898   5.018   4.443 -0.3235  0.2325  1.1908
   61MOL   C23014750   3.201   5.288   4.453 -0.6580 -0.0005 -1.0602
   61MOL   C23114751   3.205   5.348   4.600 -0.3523 -0.0862  0.1655
   61MOL   O23214752   3.263   5.471   4.596 -0.1200 -0.0721 -0.0126
   61MOL   C23314753   3.206   5.573   4.642 -0.1064  0.3110  0.7684
   61MOL   C23414754   3.300   5.692   4.644  0.0426  0.0545 -0.2739
   61MOL   O23514755   3.095   5.584   4.686  0.5470 -1.0114 -0.2893
   61MOL   H23614756   3.188   5.181   4.473 -0.7492  0.0254 -0.9903
   61MOL   H23714757   3.303   5.299   4.415  1.1857 -2.1502  2.9664
   61MOL   H23814758   3.280   5.283   4.644 -1.8153  0.2156  3.2541
   61MOL   H23914759   3.262   5.777   4.701 -0.8510 -0.8580  0.5072
   61MOL   H24014760   3.325   5.733   4.546  0.4966  0.5590  0.0438
   61MOL   H24114761   3.392   5.660   4.693  0.3895 -1.2309 -1.7140
   61MOL   H24214762   3.104   5.334   4.639 -0.6557 -2.3671 -1.3787
   62MOL     C114763   4.219   6.043   6.225 -0.2769 -0.6512 -0.4496
   62MOL     C214764   4.210   5.940   6.110  0.2658 -0.7861 -0.1630
   62MOL     O314765   4.194   6.025   5.996 -0.2888  0.6470 -0.1927
   62MOL     C414766   4.083   6.005   5.919 -0.2522 -0.5508 -0.3030
   62MOL     C514767   4.071   6.102   5.803 -0.2740 -0.4046 -0.2243
   62MOL     O614768   3.994   5.920   5.930  0.7750 -0.2538 -0.0301
   62MOL     H714769   4.202   5.990   6.319  0.8138  2.2358  1.4502
   62MOL     H814770   4.148   6.125   6.215 -0.3865 -0.5864  0.7814
   62MOL     H914771   4.131   5.868   6.132  0.2939 -0.3483  1.4137
   62MOL    H1014772   4.168   6.142   5.772 -1.1748  0.2411 -2.3336
   62MOL    H1114773   4.005   6.185   5.827 -1.1913 -1.4699  0.9388
   62MOL    H1214774   4.022   6.058   5.716  1.6365  1.4480 -2.3096
   62MOL    H1314775   4.317   6.089   6.232  0.3740 -2.0477 -0.2863
   62MOL    C1414776   4.335   5.852   6.109  0.6214 -0.6593  0.6414
   62MOL    C1514777   4.331   5.755   6.226  0.8855  0.1505  0.1256
   62MOL    O1614778   4.225   5.661   6.203  0.6723  0.5635  0.2066
   62MOL    C1714779   4.119   5.658   6.279 -0.1743  0.5382  0.1739
   62MOL    C1814780   4.019   5.552   6.238  0.4188 -0.3160  0.2177
   62MOL    O1914781   4.100   5.736   6.371 -0.1324 -0.1744 -0.2808
   62MOL    H2014782   4.337   5.802   6.013  1.4309  1.3388 -0.4307
   62MOL    H2114783   4.425   5.914   6.117  0.9497 -1.2155  1.3144
   62MOL    H2214784   4.327   5.817   6.316  2.4472  1.7488 -0.8750
   62MOL    H2314785   3.923   5.602   6.221  2.1052  3.0675  0.2349
   62MOL    H2414786   4.006   5.479   6.318  1.7382  0.1367  0.8483
   62MOL    H2514787   4.046   5.504   6.144 -2.7868  1.2303 -1.6024
   62MOL    C2614788   4.452   5.654   6.227 -0.0624  0.1101  0.1164
   62MOL    C2714789   4.504   5.644   6.371  0.6134  0.2412  0.1072
   62MOL    O2814790   4.410   5.604   6.472  0.2815  0.2379  0.2087
   62MOL    C2914791   4.359   5.705   6.553 -0.2622 -0.3145  0.2257
   62MOL    C3014792   4.243   5.675   6.634  0.0770 -0.0605 -0.1029
   62MOL    O3114793   4.399   5.821   6.553  0.4196 -0.3251  0.6298
   62MOL    H3214794   4.426   5.557   6.184  1.0196 -1.3882  2.7287
   62MOL    H3314795   4.536   5.697   6.173  0.2021  0.2501  0.6374
   62MOL    H3414796   4.544   5.742   6.397  3.5038 -0.6856 -0.6398
   62MOL    H3514797   4.160   5.742   6.610  1.7370  0.7450 -3.8585
   62MOL    H3614798   4.268   5.662   6.739 -0.8177 -0.7890  0.0244
   62MOL    H3714799   4.215   5.575   6.601 -0.6621  0.6092 -1.5543
   62MOL    C3814800   4.631   5.556   6.386  0.2219  0.6232 -0.1766
   62MOL    C3914801   4.678   5.528   6.532  0.0893 -0.3788 -0.0102
   62MOL    O4014802   4.783   5.436   6.551  0.4450  0.1889 -0.0636
   62MOL    C4114803   4.751   5.308   6.565 -0.0064  0.3477 -0.3924
   62MOL    C4214804   4.876   5.222   6.553 -0.0199 -0.5797  0.0505
   62MOL    O4314805   4.645   5.259   6.599 -0.1388  0.0420  0.3434
   62MOL    H4414806   4.615   5.456   6.345  1.1928  1.0643 -1.6916
   62MOL    H4514807   4.715   5.582   6.321  1.1914 -0.0400  0.8079
   62MOL    H4614808   4.587   5.501   6.584 -0.0375  0.1763  0.0647
   62MOL    H4714809   4.945   5.212   6.637 -0.2454  0.7634  0.4049
   62MOL    H4814810   4.926   5.214   6.457 -1.1949 -2.3496 -0.4454
   62MOL    H4914811   4.822   5.127   6.558 -2.2541  0.7718  2.3028
   62MOL    C5014812   4.726   5.657   6.596  0.4218  0.2166 -0.0183
   62MOL    C5114813   4.737   5.662   6.748  0.1527  0.9611 -0.5670
   62MOL    O5214814   4.805   5.781   6.790 -0.6371 -0.3247  0.1342
   62MOL    C5314815   4.900   5.787   6.890  0.1859 -1.2674 -0.2642
   62MOL    C5414816   4.972   5.926   6.909  0.3520 -0.5078 -0.2634
   62MOL    O5514817   4.949   5.689   6.949 -0.2271  0.6864  0.1147
   62MOL    H5614818   4.821   5.689   6.554  1.0856  0.7520  1.8152
   62MOL    H5714819   4.658   5.740   6.578 -3.0115 -2.4643  0.1637
   62MOL    H5814820   4.798   5.580   6.783  0.2998  1.6754  0.8754
   62MOL    H5914821   5.040   5.946   6.826 -1.8729  1.2888 -1.7219
   62MOL    H6014822   5.035   5.912   6.996 -0.5111 -0.7523  0.3367
   62MOL    H6114823   4.900   6.007   6.917  2.6877  1.6299 -0.3933
   62MOL    C6214824   4.592   5.644   6.805 -0.4772  0.0063  0.2063
   62MOL    C6314825   4.593   5.652   6.955 -0.3811 -0.4233 -0.4946
   62MOL    O6414826   4.464   5.697   7.001  0.5783  0.0977  0.1682
   62MOL    C6514827   4.452   5.804   7.085 -0.7301 -0.1983  0.0608
   62MOL    C6614828   4.319   5.809   7.144 -0.7839 -0.4679  0.4259
   62MOL    O6714829   4.545   5.863   7.141  0.3956  0.0109  0.3739
   62MOL    H6814830   4.530   5.718   6.757  0.5457  0.5746 -0.2588
   62MOL    H6914831   4.542   5.550   6.781  1.7387 -0.9715 -0.7946
   62MOL    H7014832   4.668   5.714   7.005 -1.4792 -0.9106  1.8401
   62MOL    H7114833   4.292   5.733   7.217 -0.2043 -0.3930  0.7269
   62MOL    H7214834   4.250   5.783   7.064 -0.4882 -1.2368  0.4198
   62MOL    H7314835   4.286   5.909   7.175  1.2399 -0.4285  2.6195
   62MOL    C7414836   4.617   5.515   7.017  0.0879 -0.8432 -0.7926
   62MOL    C7514837   4.618   5.521   7.172 -0.4482 -0.1909  0.3861
   62MOL    O7614838   4.580   5.393   7.218  0.2263 -0.1633  0.6235
   62MOL    C7714839   4.453   5.373   7.249  0.1282  0.0789 -0.4446
   62MOL    C7814840   4.420   5.225   7.269  0.0705  0.6529  0.1414
   62MOL    O7914841   4.363   5.455   7.257  0.0049  0.0965  0.3194
   62MOL    H8014842   4.528   5.461   6.985  0.0141 -1.2073  0.0218
   62MOL    H8114843   4.707   5.477   6.968  0.8326 -1.5034  1.0670
   62MOL    H8214844   4.551   5.596   7.213 -0.0139  0.3134  0.1994
   62MOL    H8314845   4.501   5.161   7.302 -2.3282 -1.5176  1.9474
   62MOL    H8414846   4.363   5.189   7.184  1.4952 -0.4579 -0.3698
   62MOL    H8514847   4.357   5.215   7.357 -1.2968 -1.3385 -1.0246
   62MOL    C8614848   4.751   5.575   7.231 -0.2398  0.3165  0.5784
   62MOL    C8714849   4.756   5.603   7.388  0.3174 -0.8636 -0.3218
   62MOL    O8814850   4.885   5.643   7.416 -0.1276  0.4189 -0.3549
   62MOL    C8914851   4.976   5.559   7.473  0.2535 -0.4203 -0.1603
   62MOL    C9014852   5.109   5.624   7.484 -0.0888 -0.0755 -0.4735
   62MOL    O9114853   4.951   5.443   7.519  0.2201  0.2793  0.1015
   62MOL    H9214854   4.837   5.512   7.209 -1.0789 -0.6126 -0.0936
   62MOL    H9314855   4.778   5.664   7.175  2.1065  0.3822  1.7454
   62MOL    H9414856   4.718   5.522   7.450 -1.1423  1.6837  2.2452
   62MOL    H9514857   5.182   5.543   7.491  2.7100  2.4311  0.2738
   62MOL    H9614858   5.125   5.684   7.573  0.2158 -0.0152 -0.5695
   62MOL    H9714859   5.135   5.676   7.391 -3.1759  0.0698 -1.3300
   62MOL    C9814860   4.659   5.718   7.435  0.3945  0.1405  0.4600
   62MOL    C9914861   4.658   5.772   7.579  0.1875  0.5654  0.3343
   62MOL   O10014862   4.667   5.664   7.665 -0.0044  0.2691  0.6499
   62MOL   C10114863   4.573   5.579   7.693 -0.2596  0.9760  0.0865
   62MOL   C10214864   4.615   5.482   7.803  0.3535 -0.3514  0.3828
   62MOL   O10314865   4.466   5.565   7.636  0.5140  0.5316 -0.5412
   62MOL   H10414866   4.671   5.797   7.361  1.9263 -0.3324  0.1861
   62MOL   H10514867   4.558   5.681   7.417 -0.2443  1.9174  0.2849
   62MOL   H10614868   4.564   5.827   7.589  0.1440  0.6560 -0.5035
   62MOL   H10714869   4.558   5.519   7.889 -0.0413  1.3443 -0.5904
   62MOL   H10814870   4.722   5.485   7.824  0.3653  0.7629  0.1656
   62MOL   H10914871   4.570   5.383   7.791 -3.4304  1.0324  2.3551
   62MOL   C11014872   4.775   5.868   7.601 -0.1784 -0.0183 -0.3796
   62MOL   C11114873   4.753   5.966   7.720 -0.1409  0.4385  0.1610
   62MOL   O11214874   4.809   5.917   7.841 -0.3190  0.0990 -0.1200
   62MOL   C11314875   4.732   5.866   7.934 -0.2235 -0.4797  0.2466
   62MOL   C11414876   4.814   5.847   0.044  0.2780 -0.1952  1.2818
   62MOL   O11514877   4.610   5.852   7.934 -0.1543  0.3146  0.5535
   62MOL   H11614878   4.871   5.818   7.610  0.1405  0.4782 -0.9870
   62MOL   H11714879   4.780   5.926   7.509 -1.5490 -1.2037 -1.2304
   62MOL   H11814880   4.647   5.986   7.733 -0.0696  1.3970 -0.6417
   62MOL   H11914881   4.790   5.935   0.103  0.2142  0.8685 -0.2913
   62MOL   H12014882   4.919   5.836   0.019 -0.0538  2.8975 -1.7385
   62MOL   H12114883   4.774   5.765   0.104  1.5779  0.3428  2.9074
   62MOL   C12214884   4.812   6.108   7.678  0.5654  0.5973 -0.1666
   62MOL   C12314885   4.823   6.224   7.783  0.5252 -0.3640  0.1346
   62MOL   O12414886   4.938   6.185   7.860 -0.0292  0.6125  0.4966
   62MOL   C12514887   4.940   6.188   7.994  0.1775 -0.0889  0.9591
   62MOL   C12614888   5.066   6.133   0.034 -0.6812  0.8689 -0.5320
   62MOL   O12714889   4.849   6.213   0.043 -0.3893  0.5239  0.9932
   62MOL   H12814890   4.910   6.092   7.634  0.0813  0.4701 -1.2163
   62MOL   H12914891   4.748   6.147   7.599 -0.4510 -0.7828 -0.0447
   62MOL   H13014892   4.735   6.234   7.847  0.7173  1.7477  0.1003
   62MOL   H13114893   5.031   6.064   0.111 -0.2107  1.7159  0.4561
   62MOL   H13214894   5.115   6.211   0.093  0.0751  0.4745 -0.6294
   62MOL   H13314895   5.141   6.100   7.983  0.8324  1.2456  0.8288
   62MOL   C13414896   4.836   6.364   7.712  0.9395  0.2239  0.1787
   62MOL   C13514897   4.881   6.481   7.802 -0.3833  0.6894 -0.1880
   62MOL   O13614898   4.901   6.587   7.711 -0.1603 -0.4120  0.5897
   62MOL   C13714899   5.026   6.600   7.659  0.5860  0.0192 -0.1906
   62MOL   C13814900   5.045   6.703   7.550 -0.4770 -0.2816 -0.5459
   62MOL   O13914901   5.124   6.542   7.707  0.7346  0.2866  0.2811
   62MOL   H14014902   4.915   6.344   7.639  0.1375 -2.8455  0.0509
   62MOL   H14114903   4.744   6.387   7.659  0.7295 -0.0895  0.4023
   62MOL   H14214904   4.974   6.463   7.857 -0.9161 -2.0838 -0.0930
   62MOL   H14314905   4.947   6.743   7.524  0.6770  2.3232 -1.0370
   62MOL   H14414906   5.084   6.660   7.457  2.1341 -3.0436  1.7226
   62MOL   H14514907   5.114   6.782   7.577  0.8378 -1.5164 -0.1969
   62MOL   C14614908   4.770   6.512   7.908 -0.3874  0.1653  0.9411
   62MOL   C14714909   4.826   6.606   8.020  0.2427  0.4018 -0.0862
   62MOL   O14814910   4.950   6.555   0.050 -0.2546  0.2948 -0.2270
   62MOL   C14914911   4.963   6.539   0.184 -0.0306  0.5469 -0.3476
   62MOL   C15014912   5.105   6.497   0.218 -0.8481  0.3867 -0.2709
   62MOL   O15114913   4.873   6.568   0.262  0.4635 -0.3764  0.2455
   62MOL   H15214914   4.676   6.547   7.867 -0.1717  2.6421  2.3891
   62MOL   H15314915   4.737   6.425   7.964 -0.1183  0.1992  1.1575
   62MOL   H15414916   4.753   6.603   0.079  0.6628 -4.1941  0.2434
   62MOL   H15514917   5.122   6.389   0.213 -1.5552  0.0871  2.8399
   62MOL   H15614918   5.137   6.531   0.317 -0.1728  1.7908 -0.9529
   62MOL   H15714919   5.175   6.545   0.150  0.1555  0.2022  0.6190
   62MOL   C15814920   4.847   6.753   7.977 -0.2550 -0.3714 -0.3003
   62MOL   C15914921   4.718   6.828   7.919 -0.3193  0.8209 -0.9331
   62MOL   O16014922   4.612   6.802   8.018  0.0626  0.2474 -0.0636
   62MOL   C16114923   4.497   6.747   7.986  0.9067 -0.0724  0.3344
   62MOL   C16214924   4.412   6.696   0.083 -1.0856 -0.6920 -0.0655
   62MOL   O16314925   4.466   6.737   7.869  0.8477 -0.6344  0.4373
   62MOL   H16414926   4.885   6.815   0.038  0.7483  0.4697 -1.3813
   62MOL   H16514927   4.923   6.759   7.900  0.5898 -0.1542  0.5351
   62MOL   H16614928   4.694   6.780   7.824  4.2538  0.5329 -2.0324
   62MOL   H16714929   4.456   6.726   0.178  0.5418 -0.6420 -0.8296
   62MOL   H16814930   4.386   6.590   0.085 -1.4271 -0.6127 -0.1425
   62MOL   H16914931   4.319   6.752   0.095 -0.2177  0.5445  0.9708
   62MOL   C17014932   4.731   6.983   7.908  0.4597  0.2939 -0.2369
   62MOL   C17114933   4.736   7.030   7.756  0.1413 -0.5280 -0.0361
   62MOL   O17214934   4.608   7.052   7.704  0.0985  0.1989  0.1451
   62MOL   C17314935   4.565   6.974   7.602 -0.3652  0.0818 -0.1487
   62MOL   C17414936   4.421   7.007   7.558 -0.1489  0.1941 -0.2117
   62MOL   O17514937   4.626   6.879   7.552 -0.6848 -0.2957  0.2306
   62MOL   H17614938   4.640   7.012   7.962  0.6280 -0.0972  0.2626
   62MOL   H17714939   4.811   7.024   7.970  0.7432  0.6360 -0.8322
   62MOL   H17814940   4.794   6.955   7.702  0.9056  0.2470 -0.3083
   62MOL   H17914941   4.350   6.959   7.625 -1.4785 -1.9694 -3.0397
   62MOL   H18014942   4.404   6.970   7.457 -0.8607 -0.9488  0.3081
   62MOL   H18114943   4.405   7.114   7.573  0.9437  0.0469  2.1863
   62MOL   C18214944   4.815   7.161   7.751  0.3481 -0.3685 -0.4762
   62MOL   C18314945   4.851   7.231   7.622  0.1476 -0.4188 -0.5860
   62MOL   O18414946   4.898   7.366   7.641  0.1976 -0.1804  0.0919
   62MOL   C18514947   4.809   7.471   7.657 -0.9002  0.2674 -0.0152
   62MOL   C18614948   4.876   7.607   7.675 -0.3851  0.1972  1.0952
   62MOL   O18714949   4.692   7.457   7.672  0.2780  0.2163  0.0888
   62MOL   H18814950   4.769   7.238   7.812 -0.1037 -0.1410 -1.0977
   62MOL   H18914951   4.915   7.148   7.793  1.0320  3.0754 -0.8845
   62MOL   H19014952   4.758   7.227   7.566 -0.3303 -2.3027  0.3209
   62MOL   H19114953   4.864   7.637   7.779 -3.5503  1.7492  0.3516
   62MOL   H19214954   4.826   7.673   7.604  1.1354 -1.1448 -1.2782
   62MOL   H19314955   4.982   7.612   7.648 -0.2502  1.4242  1.7916
   62MOL   C19414956   4.957   7.159   7.546 -0.3198 -0.3223 -0.1340
   62MOL   C19514957   4.971   7.180   7.394 -0.3025  0.3698  1.0396
   62MOL   O19614958   4.851   7.141   7.320  0.3804  0.3305  0.2295
   62MOL   C19714959   4.838   7.038   7.233 -0.7587  0.0207  0.4246
   62MOL   C19814960   4.700   7.016   7.171  0.4001  0.2589 -0.3985
   62MOL   O19914961   4.932   6.953   7.223  0.3733  0.2789  0.4427
   62MOL   H20014962   5.054   7.178   7.591  0.0830  1.2025 -1.6064
   62MOL   H20114963   4.941   7.052   7.555 -1.4413 -0.3472 -2.0052
   62MOL   H20214964   5.050   7.113   7.363  0.7373  1.7287  0.6927
   62MOL   H20314965   4.693   7.035   7.063 -1.2865 -1.4807 -0.6215
   62MOL   H20414966   4.634   7.088   7.218  2.5254  0.1489  2.8809
   62MOL   H20514967   4.654   6.918   7.182 -1.9555  1.6223  2.5296
   62MOL   C20614968   5.015   7.320   7.354 -0.0814  0.1353  0.0621
   62MOL   C20714969   5.103   7.341   7.233  0.1955 -0.6163 -0.2370
   62MOL   O20814970   5.047   7.275   7.116 -0.6843  0.1407 -0.3512
   62MOL   C20914971   5.103   7.175   7.058  0.1823 -0.2344 -1.2045
   62MOL   C21014972   5.041   7.145   6.917 -0.1067  0.3262 -0.2874
   62MOL   O21114973   5.204   7.115   7.103  0.0387  0.1775 -0.0054
   62MOL   H21214974   4.928   7.384   7.337  0.0611  0.1295 -0.7190
   62MOL   H21314975   5.063   7.360   7.443 -1.7723 -1.0362  1.5282
   62MOL   H21414976   5.195   7.291   7.265 -0.1545 -0.7699  0.5372
   62MOL   H21514977   5.019   7.039   6.906  2.1914 -0.1859 -0.2905
   62MOL   H21614978   5.121   7.159   6.845 -0.5382 -0.5856 -0.9569
   62MOL   H21714979   4.968   7.217   6.881 -0.7246 -0.1381  0.0236
   62MOL   C21814980   5.126   7.486   7.189  0.2974  0.0048  0.0752
   62MOL   C21914981   5.203   7.569   7.295 -0.2447 -0.5989 -0.4131
   62MOL   O22014982   5.343   7.541   7.298 -0.6107  0.4558  0.0663
   62MOL   C22114983   5.394   7.460   7.396 -0.5214 -0.0175  0.2842
   62MOL   C22214984   5.544   7.459   7.409 -0.7337 -0.0598 -0.4708
   62MOL   O22314985   5.328   7.398   7.479 -0.1534 -0.6351  0.7061
   62MOL   H22414986   5.178   7.485   7.093 -1.3511 -0.9530 -0.8318
   62MOL   H22514987   5.029   7.530   7.168  0.4729 -1.0613 -3.2620
   62MOL   H22614988   5.167   7.559   7.397  0.6456  0.3253  0.0016
   62MOL   H22714989   5.605   7.465   7.318  0.7690 -0.3030  0.4899
   62MOL   H22814990   5.576   7.369   7.461 -1.1055  0.5180  0.7880
   62MOL   H22914991   5.588   7.524   7.486  2.1129 -3.2108  0.6937
   62MOL   C23014992   5.198   7.721   7.259 -0.1045 -0.0576  0.0890
   62MOL   C23114993   5.065   7.793   7.293 -0.1089 -1.5118  0.4561
   62MOL   O23214994   5.062   7.830   7.428  0.3103  0.2304  0.0911
   62MOL   C23314995   4.998   7.944   7.464 -0.7123 -0.7624  0.2422
   62MOL   C23414996   5.038   7.990   7.601  0.3201 -0.3541  0.6249
   62MOL   O23514997   4.924   8.006   7.386  0.0920  0.0241 -0.3761
   62MOL   H23614998   5.287   7.768   7.299  0.7341 -1.4805 -0.0718
   62MOL   H23714999   5.206   7.733   7.151  0.8800 -1.5753 -0.0274
   62MOL   H23815000   4.980   7.726   7.276 -0.6283 -0.7434 -0.0033
   62MOL   H23915001   4.961   7.953   7.669 -0.3941 -0.5533 -0.2932
   62MOL   H24015002   5.051   0.076   7.614 -0.9618  0.0347 -1.2110
   62MOL   H24115003   5.138   7.957   7.633  0.2631 -1.1092  0.0370
   62MOL   H24215004   5.039   7.872   7.223  0.8478 -0.8546  0.8454
   63MOL     C115005   3.313   5.002   3.364 -0.2468  0.2804  0.7756
   63MOL     C215006   3.424   5.075   3.443 -0.6628 -0.0864  0.2495
   63MOL     O315007   3.492   5.151   3.350  0.4990  0.1040  0.3757
   63MOL     C415008   3.626   5.143   3.362  0.2598  0.1182 -1.1069
   63MOL     C515009   3.693   5.245   3.278 -0.1231  0.7329  0.5157
   63MOL     O615010   3.693   5.060   3.421 -0.3027 -0.3335 -0.2879
   63MOL     H715011   3.257   5.074   3.304  1.0005  1.6898  1.2687
   63MOL     H815012   3.251   4.945   3.434  0.8375  0.4715  1.9180
   63MOL     H915013   3.475   4.993   3.495  2.7909 -0.0813 -2.8913
   63MOL    H1015014   3.620   5.311   3.231 -1.9222 -1.2978  0.4110
   63MOL    H1115015   3.757   5.202   3.201 -0.5075  0.3233  0.4221
   63MOL    H1215016   3.760   5.301   3.343 -0.0543 -1.5902  2.5175
   63MOL    H1315017   3.360   4.941   3.287 -0.5823  0.0818  0.7311
   63MOL    C1415018   3.350   5.168   3.538 -0.0405 -0.1948  0.3651
   63MOL    C1515019   3.449   5.260   3.622  0.5909  0.7078  0.4090
   63MOL    O1615020   3.372   5.362   3.693 -0.2406 -0.0826 -0.0920
   63MOL    C1715021   3.375   5.483   3.643  0.1935 -0.2332 -0.7368
   63MOL    C1815022   3.311   5.588   3.728 -0.4181 -0.1214  0.5025
   63MOL    O1915023   3.413   5.522   3.537  0.0690  0.1341 -0.3655
   63MOL    H2015024   3.281   5.234   3.484 -1.2679 -1.2165  0.6663
   63MOL    H2115025   3.283   5.115   3.605 -1.2977  0.3878 -0.4077
   63MOL    H2215026   3.534   5.299   3.565 -1.3914  0.9780 -2.4714
   63MOL    H2315027   3.317   5.691   3.692 -1.9688  0.2148  1.1866
   63MOL    H2415028   3.343   5.576   3.831  0.4859 -1.4377  0.0798
   63MOL    H2515029   3.205   5.562   3.724 -0.6022  0.6730 -0.0838
   63MOL    C2615030   3.515   5.166   3.724  0.0570 -0.1466  0.5374
   63MOL    C2715031   3.648   5.217   3.787  0.2043 -0.1839  0.1365
   63MOL    O2815032   3.758   5.218   3.692 -0.8622  0.1992  0.7398
   63MOL    C2915033   3.875   5.157   3.723  0.2521 -0.0577 -0.1930
   63MOL    C3015034   3.980   5.177   3.615 -0.0494 -0.3385 -0.2445
   63MOL    O3115035   3.905   5.111   3.831  0.0704 -0.5579  0.7001
   63MOL    H3215036   3.448   5.155   3.810  1.0121  0.1723  1.3286
   63MOL    H3315037   3.537   5.066   3.686 -0.0384 -0.5948  1.6352
   63MOL    H3415038   3.672   5.149   3.869 -1.0123  0.6892  1.2262
   63MOL    H3515039   3.985   5.283   3.593 -0.8989 -0.6934 -2.2851
   63MOL    H3615040   3.954   5.119   3.526 -0.4669  1.0348 -1.0292
   63MOL    H3715041   4.080   5.150   3.649 -0.4095 -1.0518  0.2633
   63MOL    C3815042   3.635   5.354   3.848 -0.4640  0.4008 -0.2645
   63MOL    C3915043   3.748   5.385   3.949  0.2170 -0.3979 -0.3874
   63MOL    O4015044   3.728   5.520   3.985 -0.0871 -0.3612 -0.3499
   63MOL    C4115045   3.786   5.627   3.926  0.2454 -0.1647 -0.1865
   63MOL    C4215046   3.731   5.757   3.979  0.8318  0.5106 -0.3610
   63MOL    O4315047   3.878   5.619   3.848  0.1665 -0.3865  0.2538
   63MOL    H4415048   3.610   5.432   3.776  0.5065  0.8491 -0.1238
   63MOL    H4515049   3.545   5.363   3.908 -2.7338 -0.7371 -3.3474
   63MOL    H4615050   3.843   5.374   3.897  0.3211 -0.3540 -0.2042
   63MOL    H4715051   3.679   5.749   4.074 -0.3975 -1.8750 -1.2004
   63MOL    H4815052   3.663   5.783   3.898 -1.4818  2.4041  2.1060
   63MOL    H4915053   3.820   5.820   3.986  1.1836 -0.1760  1.3926
   63MOL    C5015054   3.757   5.298   4.081  0.5371  1.3689  0.0699
   63MOL    C5115055   3.891   5.305   4.158  0.0672 -0.1794 -0.4955
   63MOL    O5215056   3.904   5.429   4.231  0.3067 -0.0313 -0.0359
   63MOL    C5315057   4.014   5.505   4.217  0.4851 -0.0800 -0.0884
   63MOL    C5415058   4.009   5.645   4.286  0.1733  0.0429  0.2599
   63MOL    O5515059   4.115   5.479   4.149 -0.3562  0.4082  0.3816
   63MOL    H5615060   3.669   5.316   4.143  0.3735 -0.4240  0.3809
   63MOL    H5715061   3.756   5.193   4.054 -0.5529  1.4939 -0.4009
   63MOL    H5815062   3.977   5.306   4.091  0.7932 -0.6543  0.4246
   63MOL    H5915063   4.001   5.639   4.395  1.8179  1.5033  0.4974
   63MOL    H6015064   3.926   5.705   4.248 -1.6707 -1.4019  1.9005
   63MOL    H6115065   4.104   5.693   4.262 -0.9752  0.9979 -2.5224
   63MOL    C6215066   3.895   5.192   4.261  0.5445 -0.2420 -0.5345
   63MOL    C6315067   4.036   5.171   4.311  0.0382  0.1736 -0.0675
   63MOL    O6415068   4.045   5.100   4.435 -0.1910 -0.2529 -0.1433
   63MOL    C6515069   4.149   5.117   4.508 -0.4990  0.5004 -0.6456
   63MOL    C6615070   4.150   5.040   4.635  0.3353 -0.1377 -0.9528
   63MOL    O6715071   4.248   5.189   4.488  0.1062  0.3478  0.0290
   63MOL    H6815072   3.821   5.220   4.337  0.7972  1.6551 -0.9587
   63MOL    H6915073   3.864   5.098   4.217  1.9821  0.1895 -2.5356
   63MOL    H7015074   4.081   5.264   4.346 -0.6725 -0.9818  4.3209
   63MOL    H7115075   4.048   5.002   4.646  0.1110  1.0753  1.3879
   63MOL    H7215076   4.171   5.110   4.715  0.8632  1.2830 -2.3248
   63MOL    H7315077   4.222   4.959   4.645 -0.3909 -0.7812 -0.8567
   63MOL    C7415078   4.126   5.101   4.207  0.5885  0.4903  0.7704
   63MOL    C7515079   4.099   4.949   4.183 -0.1377 -0.8678  0.1996
   63MOL    O7615080   4.039   4.926   4.056 -0.3244 -0.3148 -0.2848
   63MOL    C7715081   3.945   4.831   4.046  0.7549 -0.4722  0.4681
   63MOL    C7815082   3.893   4.809   3.905  0.2296  0.2319 -0.4062
   63MOL    O7915083   3.920   4.757   4.135 -0.1042 -0.0232 -0.0291
   63MOL    H8015084   4.107   5.151   4.112 -0.0999  1.5927  1.4731
   63MOL    H8115085   4.232   5.119   4.221  0.8084 -1.1730  1.3965
   63MOL    H8215086   4.048   4.912   4.273 -1.1949  0.4174  0.1376
   63MOL    H8315087   3.972   4.825   3.832 -1.3223  3.6752 -1.4263
   63MOL    H8415088   3.824   4.890   3.879  0.4438  0.6751  0.3871
   63MOL    H8515089   3.842   4.714   3.912 -0.4646  0.6649  0.5788
   63MOL    C8615090   4.228   4.863   4.184 -0.6727  0.7870  0.9083
   63MOL    C8715091   4.259   4.790   4.324 -0.4901 -0.0439  0.2834
   63MOL    O8815092   4.173   4.682   4.334  0.1809  0.0310  0.2248
   63MOL    C8915093   4.090   4.676   4.447  0.2095 -0.1542  0.6167
   63MOL    C9015094   4.027   4.541   4.457  0.0016  0.0202 -0.7312
   63MOL    O9115095   4.061   4.772   4.519 -0.0546  0.1366 -0.5645
   63MOL    H9215096   4.236   4.799   4.096 -0.8473 -0.0485  1.4888
   63MOL    H9315097   4.312   4.924   4.151 -1.7685  1.3486 -0.9000
   63MOL    H9415098   4.251   4.860   4.407 -0.1289 -4.0028  3.7795
   63MOL    H9515099   4.111   4.471   4.457 -0.0659 -0.0633  0.1678
   63MOL    H9615100   3.961   4.523   4.372  0.5329  0.6919 -1.2961
   63MOL    H9715101   3.962   4.536   4.544  1.1898 -0.8748  0.1155
   63MOL    C9815102   4.406   4.746   4.331  0.2357 -0.3246 -0.1291
   63MOL    C9915103   4.467   4.725   4.481  0.4747 -0.5336  0.2083
   63MOL   O10015104   4.467   4.844   4.564  0.5509  0.5638  0.3895
   63MOL   C10115105   4.573   4.871   4.644  0.1769 -0.3866 -0.5900
   63MOL   C10215106   4.547   4.982   4.749  0.1137  0.3379  0.5396
   63MOL   O10315107   4.686   4.816   4.645  0.0979 -0.5579  0.0672
   63MOL   H10415108   4.419   4.662   4.262  1.3294 -0.5942  0.3895
   63MOL   H10515109   4.473   4.827   4.303  1.2988 -2.0737 -2.8136
   63MOL   H10615110   4.570   4.693   4.471  0.5762  0.4202 -1.9281
   63MOL   H10715111   4.617   4.968   4.831  2.0568  0.1482 -1.1060
   63MOL   H10815112   4.450   4.956   4.793  0.0986  1.4600  1.1927
   63MOL   H10915113   4.549   5.079   4.700 -0.7468  0.1581  0.1411
   63MOL   C11015114   4.392   4.611   4.546 -0.8480  0.1284 -0.2395
   63MOL   C11115115   4.467   4.544   4.655 -0.4563  0.4636  0.0263
   63MOL   O11215116   4.373   4.475   4.737 -0.0375  0.8317 -0.3662
   63MOL   C11315117   4.396   4.469   4.870 -0.5258  0.2648 -0.4281
   63MOL   C11415118   4.279   4.415   4.952  0.4779  0.6333  0.1596
   63MOL   O11515119   4.505   4.478   4.923 -0.0798  0.1040 -0.1160
   63MOL   H11615120   4.299   4.655   4.581 -0.4040  1.9068 -1.1902
   63MOL   H11715121   4.379   4.532   4.472 -3.0537  0.8886 -0.6889
   63MOL   H11815122   4.515   4.617   4.720  0.7648  0.7918 -1.2153
   63MOL   H11915123   4.311   4.315   4.980 -0.7682 -0.4472 -2.1676
   63MOL   H12015124   4.186   4.401   4.896  0.0644 -0.0336  0.9869
   63MOL   H12115125   4.268   4.490   5.030  0.7220 -0.0142  0.8264
   63MOL   C12215126   4.577   4.446   4.614 -0.5121  0.2637 -0.1820
   63MOL   C12315127   4.727   4.502   4.598  0.4825 -0.9176 -0.0841
   63MOL   O12415128   4.790   4.516   4.730 -0.2127 -0.1015 -0.1820
   63MOL   C12515129   4.897   4.592   4.749 -0.9635  0.3586  0.2421
   63MOL   C12615130   4.936   4.612   4.896 -0.6070  0.3045 -0.3313
   63MOL   O12715131   4.953   4.646   4.655 -0.3093 -0.1723  0.8697
   63MOL   H12815132   4.590   4.364   4.685 -0.0956 -0.7694 -1.4435
   63MOL   H12915133   4.540   4.406   4.520 -0.9903 -0.6175  0.3639
   63MOL   H13015134   4.734   4.605   4.564  1.1740 -0.9038  0.0985
   63MOL   H13115135   4.871   4.550   4.958 -0.3922 -0.6291 -1.0430
   63MOL   H13215136   4.924   4.716   4.928 -0.6689 -0.1767  1.2528
   63MOL   H13315137   5.040   4.581   4.906 -0.0088  2.1985 -0.3886
   63MOL   C13415138   4.810   4.404   4.510  0.5876  0.1403  0.1094
   63MOL   C13515139   4.811   4.453   4.366 -0.3230 -0.3939 -0.1824
   63MOL   O13615140   4.888   4.578   4.367  0.3252  0.5200  0.0530
   63MOL   C13715141   4.833   4.692   4.320 -0.1513 -0.0263 -0.2113
   63MOL   C13815142   4.923   4.811   4.347 -0.0077 -0.3341 -0.2100
   63MOL   O13915143   4.737   4.701   4.243  0.4143  0.9165  0.2463
   63MOL   H14015144   4.911   4.382   4.545  1.2069  0.8039 -1.2183
   63MOL   H14115145   4.767   4.304   4.513  0.7475  0.1131  2.1785
   63MOL   H14215146   4.710   4.469   4.330 -0.5415  1.3973  1.1476
   63MOL   H14315147   5.009   4.793   4.411  0.0811 -1.4102 -0.6292
   63MOL   H14415148   4.857   4.879   4.401  1.6850  0.3467  1.0381
   63MOL   H14515149   4.956   4.855   4.253  0.7763  0.9299  0.6428
   63MOL   C14615150   4.871   4.352   4.273 -0.2720 -0.0238  0.3982
   63MOL   C14715151   4.796   4.222   4.236  0.2460  0.1319 -0.4176
   63MOL   O14815152   4.687   4.240   4.146 -0.0168 -0.2811  0.1817
   63MOL   C14915153   4.560   4.255   4.183 -1.1605  0.2371 -0.2009
   63MOL   C15015154   4.471   4.265   4.061  0.5964  0.0783 -0.1693
   63MOL   O15115155   4.511   4.268   4.297  0.0940 -0.5713 -0.1754
   63MOL   H15215156   4.894   4.398   4.177  0.7723 -2.1690 -0.4135
   63MOL   H15315157   4.966   4.325   4.320  0.2668 -0.0555 -0.6940
   63MOL   H15415158   4.761   4.174   4.328 -1.5626  1.2393 -0.4835
   63MOL   H15515159   4.429   4.363   4.040  1.8621  0.4191 -1.2176
   63MOL   H15615160   4.391   4.193   4.075  1.2500 -1.4722 -3.9076
   63MOL   H15715161   4.524   4.236   3.970  1.4370 -0.3459  0.4404
   63MOL   C15815162   4.903   4.129   4.161 -0.5733 -0.0503 -0.7633
   63MOL   C15915163   4.840   3.994   4.134 -0.1751  0.3808  0.5523
   63MOL   O16015164   4.781   3.989   3.999  0.2265  0.5205  0.0430
   63MOL   C16115165   4.670   3.907   3.972  0.1628  0.0643 -0.2533
   63MOL   C16215166   4.621   3.921   3.831  0.5832  0.2822 -0.5237
   63MOL   O16315167   4.620   3.833   4.059 -0.2484  0.1278  0.4647
   63MOL   H16415168   4.948   4.180   4.076  0.3880 -0.5029 -0.5358
   63MOL   H16515169   4.989   4.116   4.227 -0.2559  2.5970 -0.5829
   63MOL   H16615170   4.769   3.968   4.212  0.3120  0.6892  1.1056
   63MOL   H16715171   4.515   3.914   3.808  0.4197 -0.4284  0.3912
   63MOL   H16815172   4.678   3.858   3.762 -0.6650 -2.8671  1.1883
   63MOL   H16915173   4.636   4.024   3.800  0.4169  0.8746  1.3149
   63MOL   C17015174   4.948   3.882   4.126 -0.6761  0.1877  0.2376
   63MOL   C17115175   4.996   3.834   4.269  0.2502 -0.0329 -0.0127
   63MOL   O17215176   4.882   3.789   4.354 -0.2006  0.5329  0.1005
   63MOL   C17315177   4.884   3.814   4.491  1.0306  0.0887 -0.2556
   63MOL   C17415178   4.757   3.786   4.555 -0.3800  0.8946 -0.6282
   63MOL   O17515179   4.983   3.861   4.550 -0.5317 -0.2036  0.0049
   63MOL   H17615180   4.915   3.802   4.059  1.1125 -1.1908  0.9721
   63MOL   H17715181   5.037   3.926   4.081  0.3911  0.4612  2.5851
   63MOL   H17815182   5.038   3.928   4.306  0.8890 -0.0304 -0.7315
   63MOL   H17915183   4.733   3.684   4.526 -1.4884  1.1196 -0.5513
   63MOL   H18015184   4.672   3.841   4.513 -0.6383  0.7760 -0.2615
   63MOL   H18115185   4.768   3.797   4.663 -2.2460  2.0839 -0.5263
   63MOL   C18215186   5.106   3.730   4.275 -0.2269  0.3301 -0.3433
   63MOL   C18315187   5.250   3.764   4.232  0.3082 -0.2565 -0.4416
   63MOL   O18415188   5.249   3.769   4.092  0.0001 -0.3573  0.2039
   63MOL   C18515189   5.301   3.679   4.013  0.8079 -0.4216  0.2547
   63MOL   C18615190   5.312   3.710   3.868  0.5119  0.1070  0.0971
   63MOL   O18715191   5.338   3.567   4.056  0.0479 -0.0132 -0.5826
   63MOL   H18815192   5.132   3.713   4.379 -1.0460  1.8952  0.1318
   63MOL   H18915193   5.080   3.631   4.239  0.1754  0.1973 -0.2687
   63MOL   H19015194   5.318   3.687   4.267  1.0372  1.0668  1.1224
   63MOL   H19115195   5.219   3.682   3.817  0.2347  2.5089 -0.8074
   63MOL   H19215196   5.389   3.650   3.819 -0.4221 -0.7426 -0.3651
   63MOL   H19315197   5.326   3.815   3.843 -1.5869  0.6506  1.0428
   63MOL   C19415198   5.309   3.893   4.275 -0.6682  0.1386 -0.4244
   63MOL   C19515199   5.361   3.905   4.418  0.4554  0.6145 -0.0883
   63MOL   O19615200   5.467   3.807   4.452 -0.4865  0.3003 -0.0075
   63MOL   C19715201   5.436   3.703   4.530 -0.1292 -0.2269 -0.1779
   63MOL   C19815202   5.556   3.622   4.561 -0.4049  0.2061  0.8495
   63MOL   O19915203   5.326   3.669   4.559 -0.0453  0.2236  0.1781
   63MOL   H20015204   5.389   3.915   4.204  0.0795 -1.5472 -0.1070
   63MOL   H20115205   5.230   3.967   4.255  0.6189  1.8244  0.5688
   63MOL   H20215206   5.281   3.898   4.492 -1.0747  0.5933 -1.6993
   63MOL   H20315207   5.641   3.619   4.493  0.0725 -2.9056  1.5103
   63MOL   H20415208   5.523   3.519   4.568  2.5807 -0.8149  0.6945
   63MOL   H20515209   5.593   3.643   4.661  1.2396  1.8686 -0.0802
   63MOL   C20615210   5.424   4.042   4.440 -0.2478 -0.0841  1.0306
   63MOL   C20715211   5.317   4.161   4.454  0.6084  0.0590  0.1879
   63MOL   O20815212   5.234   4.138   4.571  0.1047 -0.4357  0.0294
   63MOL   C20915213   5.100   4.155   4.576  0.0597  0.0999  0.0914
   63MOL   C21015214   5.047   4.151   4.714  0.3822 -0.2289 -0.5618
   63MOL   O21115215   5.031   4.172   4.476 -0.1960 -0.1723 -0.0080
   63MOL   H21215216   5.481   4.031   4.533  0.4260 -1.4048  0.4741
   63MOL   H21315217   5.488   4.066   4.356  1.2295  2.6239  2.8580
   63MOL   H21415218   5.246   4.162   4.371  0.7061  0.9228  0.1100
   63MOL   H21515219   4.975   4.232   4.721 -0.1928 -0.7032 -1.0024
   63MOL   H21615220   5.125   4.187   4.782 -1.5074  0.0859  1.4986
   63MOL   H21715221   5.012   4.051   4.742  0.0573  0.1410  0.3746
   63MOL   C21815222   5.378   4.302   4.472 -0.1516  0.4852  0.5553
   63MOL   C21915223   5.284   4.411   4.422 -0.7511 -0.0310  0.3358
   63MOL   O22015224   5.300   4.531   4.501  0.2354  0.3303  0.2882
   63MOL   C22115225   5.256   4.531   4.631  0.2198 -0.2061 -0.0041
   63MOL   C22215226   5.276   4.665   4.702 -0.7590 -0.0631 -0.5370
   63MOL   O22315227   5.193   4.441   4.691  0.0648  0.1921  0.0684
   63MOL   H22415228   5.422   4.304   4.571  0.8483  0.2118  0.1221
   63MOL   H22515229   5.473   4.297   4.419 -0.4072 -2.2099  0.2685
   63MOL   H22615230   5.182   4.374   4.427 -1.3648  1.6086  0.3174
   63MOL   H22715231   5.222   4.740   4.645  1.0180  1.5621 -0.1321
   63MOL   H22815232   5.374   4.712   4.704 -1.2559  0.9214  1.7503
   63MOL   H22915233   5.227   4.660   4.799  0.0356  0.1180 -0.1214
   63MOL   C23015234   5.313   4.442   4.276 -0.5690 -0.1375 -0.1351
   63MOL   C23115235   5.231   4.553   4.215 -0.4453 -0.4126 -0.1305
   63MOL   O23215236   5.242   4.560   4.072  0.1594 -0.0591 -0.1118
   63MOL   C23315237   5.176   4.468   3.995  0.0979 -0.2575 -0.0279
   63MOL   C23415238   5.205   4.484   3.848  0.2738 -0.0070 -0.1046
   63MOL   O23515239   5.089   4.386   4.034 -0.5148  0.3566  0.0323
   63MOL   H23615240   5.421   4.454   4.268 -0.1021 -1.4315  3.3270
   63MOL   H23715241   5.286   4.354   4.217  0.8925 -0.6321 -0.0813
   63MOL   H23815242   5.270   4.654   4.228 -0.1014 -0.2733 -2.1212
   63MOL   H23915243   5.311   4.468   3.827  0.0573  0.6067 -1.7036
   63MOL   H24015244   5.188   4.587   3.817 -1.6823 -0.7381 -1.5721
   63MOL   H24115245   5.139   4.419   3.791  1.6933 -2.1942  0.6774
   63MOL   H24215246   5.131   4.545   4.257 -1.7879  0.4194 -3.0669
   64MOL     C115247   5.306   4.779   6.968 -0.1088  0.4503 -0.5329
   64MOL     C215248   5.247   4.647   6.930 -0.6504  0.7281 -0.7666
   64MOL     O315249   5.106   4.667   6.895 -0.1005  0.4542 -0.2387
   64MOL     C415250   5.008   4.646   6.986  0.1197 -0.0736 -0.1625
   64MOL     C515251   4.866   4.677   6.934 -0.5740  0.2290  0.0027
   64MOL     O615252   5.017   4.611   7.102  0.0241  0.5121 -0.0405
   64MOL     H715253   5.405   4.758   7.009  0.7777  3.6595 -0.8650
   64MOL     H815254   5.244   4.833   7.039 -0.9472 -1.7014  0.4149
   64MOL     H915255   5.248   4.573   7.010 -1.8078 -0.2473 -1.6390
   64MOL    H1015256   4.863   4.779   6.895 -3.9152  0.1466 -0.1384
   64MOL    H1115257   4.800   4.656   7.018 -0.0214 -2.4054 -0.1753
   64MOL    H1215258   4.835   4.614   6.850 -1.3841  0.0626  0.4159
   64MOL    H1315259   5.315   4.842   6.880 -1.0379  0.8750 -0.3318
   64MOL    C1415260   5.318   4.588   6.808 -0.3050 -0.1380  0.2298
   64MOL    C1515261   5.302   4.436   6.789 -0.0867 -0.5297  0.6899
   64MOL    O1615262   5.163   4.401   6.795  0.0473 -0.0756  0.2846
   64MOL    C1715263   5.113   4.314   6.870 -0.7851  0.3220 -0.0899
   64MOL    C1815264   4.970   4.295   6.837  0.0180  0.0623 -0.0637
   64MOL    O1915265   5.167   4.240   6.952 -0.0608  0.2360 -0.2638
   64MOL    H2015266   5.280   4.639   6.719 -0.6938  0.3315  0.6594
   64MOL    H2115267   5.423   4.616   6.804 -0.8961  2.3151  0.7225
   64MOL    H2215268   5.360   4.386   6.866  0.9338  0.1267  0.3523
   64MOL    H2315269   4.923   4.235   6.915 -0.1230  0.7090  0.3446
   64MOL    H2415270   4.954   4.241   6.743 -1.4326 -0.1889  0.3113
   64MOL    H2515271   4.918   4.388   6.817  0.0876  0.4597  1.5812
   64MOL    C2615272   5.358   4.377   6.657  0.1044 -0.0732 -0.1949
   64MOL    C2715273   5.388   4.226   6.656 -0.3993 -0.0243  0.1354
   64MOL    O2815274   5.403   4.199   6.517  0.8457  0.6360  0.6252
   64MOL    C2915275   5.303   4.161   6.444 -0.0053 -0.3589  0.3772
   64MOL    C3015276   5.335   4.143   6.297  0.2440 -0.1992  0.2569
   64MOL    O3115277   5.193   4.143   6.484  0.3755 -0.2302  0.0723
   64MOL    H3215278   5.283   4.393   6.580 -0.6131 -3.8790 -0.3725
   64MOL    H3315279   5.451   4.427   6.630  0.7839 -0.7947  0.7729
   64MOL    H3415280   5.303   4.169   6.692 -0.4870  0.0412  0.0277
   64MOL    H3515281   5.244   4.112   6.246  0.0864 -0.2809  0.5855
   64MOL    H3615282   5.409   4.065   6.278 -1.6549 -2.2343  0.9071
   64MOL    H3715283   5.372   4.236   6.255 -1.8987  1.6561  2.3561
   64MOL    C3815284   5.509   4.190   6.736  0.2400 -0.4735  0.1405
   64MOL    C3915285   5.528   4.041   6.758  0.0610 -0.2946 -0.2912
   64MOL    O4015286   5.668   4.018   6.794  0.1078 -0.5928 -0.6300
   64MOL    C4115287   5.755   3.940   6.732  0.0980 -0.5245 -0.8702
   64MOL    C4215288   5.876   3.906   6.818 -0.2112 -0.3049 -0.5872
   64MOL    O4315289   5.736   3.897   6.620 -0.2917  0.2363  0.1834
   64MOL    H4415290   5.593   4.230   6.680 -0.1696  0.7920  0.4069
   64MOL    H4515291   5.514   4.248   6.829 -1.3234  0.8150 -0.5526
   64MOL    H4615292   5.504   3.996   6.661 -1.2646  0.0828 -0.1393
   64MOL    H4715293   5.855   3.936   6.921 -0.6477 -3.2793  0.2417
   64MOL    H4815294   5.979   3.934   6.797  0.2494  0.7338  2.7728
   64MOL    H4915295   5.871   3.798   6.827 -2.0017 -0.2614 -0.8230
   64MOL    C5015296   5.438   4.003   6.880 -0.0116  0.3326  0.2326
   64MOL    C5115297   5.423   3.855   6.922  0.0388 -0.1804  0.1313
   64MOL    O5215298   5.552   3.817   6.969 -0.2391 -0.3375  0.0395
   64MOL    C5315299   5.584   3.688   7.007  0.0686 -0.1876  0.5830
   64MOL    C5415300   5.727   3.677   7.056 -0.3721  0.1258 -0.8192
   64MOL    O5515301   5.514   3.585   6.998  0.1775 -0.2612  0.2409
   64MOL    H5615302   5.447   4.073   6.963  1.3354  1.6892 -1.0267
   64MOL    H5715303   5.336   4.024   6.849 -0.2349  0.3362  0.9482
   64MOL    H5815304   5.390   3.784   6.846  0.4487 -1.7110  1.3492
   64MOL    H5915305   5.784   3.629   6.976  0.1963 -0.6566  0.0449
   64MOL    H6015306   5.732   3.609   7.142 -1.9080  1.4926  0.3814
   64MOL    H6115307   5.774   3.770   7.089  0.8159 -1.4300  2.1055
   64MOL    C6215308   5.310   3.856   7.029  0.4488 -0.1506  0.1151
   64MOL    C6315309   5.184   3.798   6.975  0.5397  0.1534  0.0635
   64MOL    O6415310   5.182   3.656   6.992  0.2903 -0.0254  0.2856
   64MOL    C6515311   5.179   3.575   6.881  0.5592  0.2070 -0.9606
   64MOL    C6615312   5.195   3.424   6.915  0.2170 -0.1172 -0.3097
   64MOL    O6715313   5.165   3.610   6.762  0.6289 -0.0094 -0.5660
   64MOL    H6815314   5.349   3.796   7.112  1.8567  2.3807  1.3489
   64MOL    H6915315   5.287   3.952   7.075 -2.4499 -0.5663 -0.3895
   64MOL    H7015316   5.178   3.832   6.872 -0.3833 -1.3744 -0.4006
   64MOL    H7115317   5.301   3.402   6.905  0.4301  1.1647 -0.9491
   64MOL    H7215318   5.132   3.361   6.852 -1.5317  0.6624  0.6304
   64MOL    H7315319   5.183   3.401   7.021  2.8704 -2.0607 -0.3807
   64MOL    C7415320   5.061   3.850   7.053  0.1758  0.3333  0.0608
   64MOL    C7515321   4.937   3.826   6.965  0.1915  0.2745  0.1038
   64MOL    O7615322   4.825   3.844   7.054 -0.0748 -0.1919  0.6873
   64MOL    C7715323   4.742   3.745   7.089 -0.2714 -0.7732 -0.6612
   64MOL    C7815324   4.656   3.782   7.211 -0.1568 -0.1205  0.3527
   64MOL    O7915325   4.740   3.637   7.031 -0.3838  0.4513 -0.1189
   64MOL    H8015326   5.042   3.801   7.148  0.9091 -1.3835 -0.6652
   64MOL    H8115327   5.073   3.955   7.079  0.2320  0.4375 -0.3732
   64MOL    H8215328   4.945   3.723   6.932  0.4251  0.7806 -1.4811
   64MOL    H8315329   4.700   3.860   7.272  0.4603  0.1392 -0.4241
   64MOL    H8415330   4.652   3.695   7.277 -0.9399  0.6837  1.3845
   64MOL    H8515331   4.554   3.802   7.178  0.2635  0.4259 -0.6374
   64MOL    C8615332   4.924   3.927   6.846 -0.0417  0.6638 -0.2557
   64MOL    C8715333   4.827   3.887   6.735 -0.0143  0.0021 -0.8497
   64MOL    O8815334   4.821   4.006   6.656  0.7780 -0.1294  0.8955
   64MOL    C8915335   4.706   4.080   6.667  1.0067 -0.1275 -0.2806
   64MOL    C9015336   4.684   4.169   6.552  0.3496  0.1452 -0.0293
   64MOL    O9115337   4.620   4.057   6.753 -0.4507 -0.3716 -0.7978
   64MOL    H9215338   4.896   4.020   6.896 -0.6974  1.4640 -2.0941
   64MOL    H9315339   5.022   3.949   6.803 -0.1634  1.9943  0.1213
   64MOL    H9415340   4.732   3.853   6.776  0.9430 -1.3915  0.2914
   64MOL    H9515341   4.580   4.164   6.518 -0.1077  0.9978  1.1918
   64MOL    H9615342   4.749   4.149   6.467 -1.4756 -1.2986 -1.1394
   64MOL    H9715343   4.686   4.269   6.595 -1.8144 -0.2159  1.0026
   64MOL    C9815344   4.888   3.775   6.651  0.0974 -0.3005  1.1134
   64MOL    C9915345   4.795   3.708   6.545 -0.5444 -0.4730 -0.2268
   64MOL   O10015346   4.768   3.800   6.438 -0.5392 -0.4989  0.3215
   64MOL   C10115347   4.648   3.807   6.382  0.3163  0.0884 -0.4203
   64MOL   C10215348   4.642   3.897   6.255 -0.1942  0.7684 -0.1987
   64MOL   O10315349   4.543   3.759   6.422  0.8154  0.1898  0.2299
   64MOL   H10415350   4.973   3.812   6.593  1.4904 -2.3828  1.7693
   64MOL   H10515351   4.937   3.697   6.709  2.3749  0.0750 -0.2306
   64MOL   H10615352   4.703   3.688   6.600  0.5023 -1.8476  1.0964
   64MOL   H10715353   4.551   3.957   6.247  0.9976  2.6901  0.4313
   64MOL   H10815354   4.660   3.839   6.165  0.5042  1.3634 -0.4483
   64MOL   H10915355   4.718   3.974   6.266  0.6590 -0.2932  1.5379
   64MOL   C11015356   4.840   3.575   6.475 -0.0910 -0.7470  0.2796
   64MOL   C11115357   4.869   3.458   6.577 -0.1151 -0.1976  0.3174
   64MOL   O11215358   4.751   3.449   6.661  0.0253  0.2551  0.1133
   64MOL   C11315359   4.767   3.423   6.793  0.7725  0.2645 -0.0109
   64MOL   C11415360   4.637   3.380   6.860 -0.2539 -0.1077  0.3415
   64MOL   O11515361   4.871   3.412   6.855 -0.5874  0.1874 -0.0713
   64MOL   H11615362   4.766   3.543   6.401 -1.4201  1.4921  0.5925
   64MOL   H11715363   4.933   3.590   6.421 -0.0713 -3.2968 -0.4752
   64MOL   H11815364   4.956   3.481   6.639 -0.2086  0.6112  0.1487
   64MOL   H11915365   4.649   3.290   6.920 -0.4817 -0.5761 -0.3088
   64MOL   H12015366   4.586   3.342   6.771  2.8222 -0.8600 -1.1797
   64MOL   H12115367   4.580   3.453   6.917 -0.0361  1.5769 -1.5362
   64MOL   C12215368   4.898   3.324   6.503  0.1673  0.5238  0.0355
   64MOL   C12315369   4.769   3.275   6.427 -0.3519 -0.3525 -0.0088
   64MOL   O12415370   4.756   3.335   6.293 -0.2960  0.1330 -0.5921
   64MOL   C12515371   4.634   3.355   6.242  0.9835 -0.0066  0.4899
   64MOL   C12615372   4.631   3.411   6.104  0.0211 -0.3329 -0.1316
   64MOL   O12715373   4.531   3.329   6.301 -0.6224  0.4680  0.4159
   64MOL   H12815374   4.971   3.343   6.425  0.0775  0.0136 -0.1709
   64MOL   H12915375   4.947   3.253   6.569  0.0170 -0.1994 -0.6214
   64MOL   H13015376   4.683   3.300   6.489  0.3958 -0.6420  1.1513
   64MOL   H13115377   4.578   3.365   6.020  0.7582  0.3403 -0.9851
   64MOL   H13215378   4.727   3.412   6.053 -0.6939 -1.4447 -1.5357
   64MOL   H13315379   4.599   3.515   6.108 -1.4830 -0.8164  0.9639
   64MOL   C13415380   4.780   3.120   6.407  0.0427  0.3516 -1.0133
   64MOL   C13515381   4.710   3.045   6.519 -0.0657 -0.2253  0.5537
   64MOL   O13615382   4.766   3.077   6.649  0.2787  0.4258 -0.4708
   64MOL   C13715383   4.872   3.010   6.700  0.2736  0.0216  0.2346
   64MOL   C13815384   4.915   3.065   6.834  0.1535 -0.9252 -0.1179
   64MOL   O13915385   4.930   2.918   6.650  0.1009 -0.5758  0.0427
   64MOL   H14015386   4.736   3.074   6.319  0.1309 -0.3789 -0.6767
   64MOL   H14115387   4.882   3.083   6.402 -0.1388 -0.3898  0.4791
   64MOL   H14215388   4.723   2.939   6.497 -0.3653 -0.3300  0.8754
   64MOL   H14315389   4.895   3.172   6.838  1.3443 -0.6680 -0.9391
   64MOL   H14415390   5.021   3.041   6.840  0.6725  1.4516  0.8607
   64MOL   H14515391   4.859   3.011   6.911  0.0303 -0.2547  0.2626
   64MOL   C14615392   4.557   3.072   6.521  0.0999 -0.4145 -0.1541
   64MOL   C14715393   4.489   2.987   6.636  0.1954 -0.2508  0.2793
   64MOL   O14815394   4.521   3.023   6.771 -0.5789  0.4899  0.1770
   64MOL   C14915395   4.529   2.923   6.861  0.3666  1.0084 -0.2397
   64MOL   C15015396   4.600   2.957   6.997 -0.0399 -0.0095 -0.0048
   64MOL   O15115397   4.470   2.814   6.840 -0.2221 -0.4358  0.7529
   64MOL   H15215398   4.540   3.179   6.532  4.6571  0.3083  1.0001
   64MOL   H15315399   4.522   3.040   6.423 -0.0658 -2.3213  0.5141
   64MOL   H15415400   4.509   2.880   6.626  0.1427 -0.1623 -0.8402
   64MOL   H15515401   4.649   3.054   6.992  0.5412 -0.3057 -0.2033
   64MOL   H15615402   4.676   2.880   7.016  0.3091  0.6891  1.5247
   64MOL   H15715403   4.533   2.957   7.083  1.0213  0.0697  0.8489
   64MOL   C15815404   4.337   2.998   6.620  0.4594 -0.2502 -0.0752
   64MOL   C15915405   4.290   2.897   6.517 -0.8660 -0.2601 -0.3331
   64MOL   O16015406   4.230   2.792   6.586 -0.8368  0.5765 -0.6688
   64MOL   C16115407   4.274   2.664   6.576 -1.0154  1.1583  0.0585
   64MOL   C16215408   4.230   2.568   6.686  0.1218  0.2414  0.7531
   64MOL   O16315409   4.353   2.621   6.487  0.0135 -0.0207 -0.3087
   64MOL   H16415410   4.282   2.983   6.714 -1.8140  1.6516 -1.0480
   64MOL   H16515411   4.310   3.100   6.591  0.2876 -0.5553 -0.9958
   64MOL   H16615412   4.381   2.851   6.480 -0.1167  0.6618  0.3350
   64MOL   H16715413   4.205   2.471   6.644 -1.9114  1.8361 -1.8046
   64MOL   H16815414   4.137   2.596   6.735 -0.1373 -3.1594  2.3243
   64MOL   H16915415   4.305   2.559   6.765  2.3259  1.4973 -1.1225
   64MOL   C17015416   4.214   2.961   6.399 -0.6163 -0.0935 -0.2772
   64MOL   C17115417   4.173   2.865   6.288  0.5173 -0.1191 -0.4291
   64MOL   O17215418   4.047   2.827   6.338  0.1502 -0.2338 -0.4588
   64MOL   C17315419   3.986   2.711   6.312 -0.9761 -0.1387  0.8411
   64MOL   C17415420   3.857   2.691   6.390 -0.2185 -0.0884  0.0911
   64MOL   O17515421   4.023   2.624   6.232  0.3991  0.1998 -0.5476
   64MOL   H17615422   4.134   3.023   6.441 -0.3215  0.7035 -0.8880
   64MOL   H17715423   4.288   3.030   6.360 -2.2376  0.9597 -1.5313
   64MOL   H17815424   4.244   2.783   6.300 -1.2124 -1.4379  1.0374
   64MOL   H17915425   3.892   2.708   6.492 -0.2758  1.0194 -0.0705
   64MOL   H18015426   3.820   2.591   6.369 -0.9822  0.0664  0.6704
   64MOL   H18115427   3.785   2.767   6.359  2.0818  0.4186 -4.3857
   64MOL   C18215428   4.164   2.929   6.148 -0.3879 -0.2237 -1.1945
   64MOL   C18315429   4.145   2.838   6.025 -0.2062 -0.5000 -0.3398
   64MOL   O18415430   4.123   2.939   5.916 -0.0072  0.0099 -0.5118
   64MOL   C18515431   4.090   2.908   5.794  0.1696 -0.0055  0.3068
   64MOL   C18615432   4.062   3.029   5.707 -0.3312 -0.1787 -0.1424
   64MOL   O18715433   4.080   2.797   5.745  0.2652 -0.2563 -0.4472
   64MOL   H18815434   4.080   2.998   6.159 -2.0538 -2.1141 -1.6451
   64MOL   H18915435   4.257   2.979   6.123  0.4238 -1.2063 -0.1923
   64MOL   H19015436   4.058   2.773   6.034 -1.3514  0.6749 -2.4964
   64MOL   H19115437   4.154   3.086   5.702 -0.7169  0.3065 -2.1644
   64MOL   H19215438   3.987   3.100   5.740 -0.4501 -0.7463  0.8320
   64MOL   H19315439   4.029   2.983   5.613  2.2005 -1.0325 -0.6471
   64MOL   C19415440   4.251   2.732   6.012  0.4913  0.1570  0.6905
   64MOL   C19515441   4.389   2.797   5.983  0.1983  0.4545 -0.2026
   64MOL   O19615442   4.474   2.754   6.090 -0.2981  0.1341 -0.6589
   64MOL   C19715443   4.524   2.834   6.183 -0.1033  0.3737  0.3573
   64MOL   C19815444   4.611   2.755   6.281 -0.7820  0.2869 -0.0908
   64MOL   O19915445   4.519   2.954   6.192 -0.1437  0.2042 -0.1789
   64MOL   H20015446   4.260   2.672   6.103 -1.9311 -1.0887  0.1612
   64MOL   H20115447   4.226   2.658   5.936  0.2613 -0.2384  1.1488
   64MOL   H20215448   4.381   2.905   5.992  0.6706  0.3978  0.9860
   64MOL   H20315449   4.692   2.825   6.302 -0.5582  0.2024 -0.6693
   64MOL   H20415450   4.647   2.661   6.237 -2.1184  0.2920 -1.2185
   64MOL   H20515451   4.572   2.747   6.383  2.1502  1.5846  1.1930
   64MOL   C20615452   4.446   2.751   5.847  0.1974 -0.3399  0.3542
   64MOL   C20715453   4.585   2.810   5.816  0.0882 -0.0241 -0.3979
   64MOL   O20815454   4.640   2.745   5.699 -0.4813 -0.0363 -0.4756
   64MOL   C20915455   4.770   2.686   5.705  0.4242 -0.6148 -0.2155
   64MOL   C21015456   4.814   2.626   5.571 -0.5532  0.7402 -0.3454
   64MOL   O21115457   4.854   2.687   5.796 -0.0962  0.3280  0.2793
   64MOL   H21215458   4.458   2.643   5.854 -0.9443 -0.6399 -1.7878
   64MOL   H21315459   4.370   2.761   5.769 -0.9435 -0.9657  1.3584
   64MOL   H21415460   4.645   2.781   5.902  1.9589 -0.9823 -1.9670
   64MOL   H21515461   4.831   2.705   5.497  2.0271  0.1462 -0.4465
   64MOL   H21615462   4.731   2.565   5.537  0.9088 -0.6659 -1.4799
   64MOL   H21715463   4.895   2.555   5.587  0.4408  1.4536 -2.0961
   64MOL   C21815464   4.577   2.965   5.794  0.2620  0.2318  0.2544
   64MOL   C21915465   4.453   3.024   5.716  0.7167 -0.0766  0.2409
   64MOL   O22015466   4.459   3.165   5.704  0.0028 -0.0536  0.1371
   64MOL   C22115467   4.423   3.243   5.811  0.5009  1.1143  0.4681
   64MOL   C22215468   4.433   3.392   5.784  0.1377  0.1375  0.6724
   64MOL   O22315469   4.381   3.198   5.915 -0.5683 -0.3347  0.8233
   64MOL   H22415470   4.561   3.004   5.894 -2.5279 -2.3027  0.8862
   64MOL   H22515471   4.673   3.004   5.761  0.4527 -0.2208  0.2771
   64MOL   H22615472   4.363   2.995   5.771  0.1886  1.5278  0.2348
   64MOL   H22715473   4.419   3.418   5.679 -2.4477  1.5079  1.2999
   64MOL   H22815474   4.533   3.421   5.818  0.6224 -0.9265  0.1639
   64MOL   H22915475   4.358   3.446   5.844 -1.7419  0.2232 -1.6968
   64MOL   C23015476   4.426   2.974   5.577  0.2944  0.2190  0.5993
   64MOL   C23115477   4.548   2.992   5.485  0.0132  0.4466  0.4923
   64MOL   O23215478   4.512   2.969   5.353 -0.5581 -0.2592  0.0221
   64MOL   C23315479   4.552   2.857   5.287  0.4242 -0.2309  0.0353
   64MOL   C23415480   4.513   2.853   5.141  0.0223 -0.2468 -0.7317
   64MOL   O23515481   4.623   2.765   5.332 -0.5775  0.0685 -1.0370
   64MOL   H23615482   4.409   2.867   5.572  2.2718 -0.0370 -1.8919
   64MOL   H23715483   4.331   3.021   5.551 -0.5133 -1.2996  0.7506
   64MOL   H23815484   4.634   2.933   5.516 -1.2205 -1.1935  0.8246
   64MOL   H23915485   4.507   2.956   5.107 -0.7027 -0.3214 -0.8381
   64MOL   H24015486   4.422   2.792   5.133 -0.1809 -0.1912  1.0742
   64MOL   H24115487   4.590   2.799   5.086 -0.8114 -0.0926 -2.0710
   64MOL   H24215488   4.572   3.099   5.490  1.2681  0.1583  0.8289
   65MOL     C115489   7.072   6.570   5.969 -0.1744 -0.3401  0.5079
   65MOL     C215490   6.988   6.506   5.859  0.5446  0.2507  0.4185
   65MOL     O315491   7.045   6.533   5.728 -0.2208  0.0161 -0.3290
   65MOL     C415492   7.027   6.656   5.676  0.2347 -0.4882 -0.0689
   65MOL     C515493   7.074   6.667   5.530 -0.4266 -0.0245 -0.3457
   65MOL     O615494   6.975   6.750   5.737 -0.2151  0.3041 -0.2378
   65MOL     H715495   7.181   6.563   5.968 -0.1776 -0.8683  2.1025
   65MOL     H815496   7.038   6.533   6.066 -1.8869  0.2895  0.1655
   65MOL     H915497   6.888   6.548   5.866  0.8463  0.7716  1.6153
   65MOL    H1015498   7.078   6.774   5.510 -3.4114  0.1467 -0.2644
   65MOL    H1115499   7.001   6.621   5.463  0.5792 -1.2285 -0.6294
   65MOL    H1215500   7.167   6.612   5.520 -0.3467  0.0342  0.0522
   65MOL    H1315501   7.047   6.675   5.978  0.4492 -0.1783  0.3436
   65MOL    C1415502   6.956   6.358   5.870 -0.6165 -0.7373 -0.3379
   65MOL    C1515503   6.862   6.314   5.982 -0.2703 -0.2231 -0.6410
   65MOL    O1615504   6.725   6.381   5.968  0.1462  0.0408  0.0453
   65MOL    C1715505   6.697   6.474   6.057  0.1292 -0.2201 -0.1638
   65MOL    C1815506   6.551   6.508   6.071  0.6260  0.2104 -0.0987
   65MOL    O1915507   6.779   6.526   6.128  0.3649  0.5186  0.4669
   65MOL    H2015508   6.913   6.335   5.772 -2.2925  1.5617 -0.1833
   65MOL    H2115509   7.050   6.303   5.878  0.0628  0.3334 -0.7882
   65MOL    H2215510   6.912   6.349   6.072  2.6349 -2.8237 -1.1618
   65MOL    H2315511   6.537   6.538   6.175  0.6075  1.8447 -0.5530
   65MOL    H2415512   6.491   6.422   6.043  0.4191  0.2234  0.3004
   65MOL    H2515513   6.522   6.599   6.018 -0.5199 -0.5054 -0.7127
   65MOL    C2615514   6.848   6.162   5.972 -0.8196 -0.0245 -0.5379
   65MOL    C2715515   6.781   6.097   6.092 -0.0219  0.2283 -0.1526
   65MOL    O2815516   6.688   6.008   6.036 -0.7676  0.6706 -0.4406
   65MOL    C2915517   6.563   6.045   6.035  0.4868  0.3804  0.2741
   65MOL    C3015518   6.486   5.938   5.960  0.3552 -0.4549  0.4415
   65MOL    O3115519   6.500   6.138   6.092 -0.7366 -0.2162  0.1595
   65MOL    H3215520   6.795   6.146   5.878 -3.3789 -0.3161  0.9141
   65MOL    H3315521   6.946   6.117   5.957 -0.3919  1.2508 -1.7448
   65MOL    H3415522   6.741   6.164   6.169  1.6550 -0.8025  1.6658
   65MOL    H3515523   6.378   5.934   5.979 -0.3415 -0.1082 -3.1705
   65MOL    H3615524   6.525   5.839   5.982  0.8281 -0.6275 -1.1469
   65MOL    H3715525   6.500   5.960   5.854 -2.8282 -1.3295 -0.2194
   65MOL    C3815526   6.881   6.011   6.173 -0.0086  0.0809  0.2845
   65MOL    C3915527   6.966   6.078   6.273 -0.1015 -0.9046  0.8313
   65MOL    O4015528   6.884   6.137   6.382 -0.4487  0.1094 -0.2482
   65MOL    C4115529   6.886   6.265   6.406  0.3819 -0.6003  0.7571
   65MOL    C4215530   6.788   6.300   6.517  0.6477 -0.2836  0.4212
   65MOL    O4315531   6.946   6.352   6.337  0.3854  0.6212 -0.3689
   65MOL    H4415532   6.820   5.945   6.233 -1.3014  1.5180  0.5859
   65MOL    H4515533   6.936   5.950   6.101  0.0050 -1.2556  1.4060
   65MOL    H4615534   7.027   6.157   6.229 -0.0331 -1.1548  0.4697
   65MOL    H4715535   6.693   6.254   6.487  0.4829  0.4820 -0.2515
   65MOL    H4815536   6.773   6.407   6.527 -0.2035 -0.3835  0.2846
   65MOL    H4915537   6.842   6.268   6.606  1.8593 -1.2300 -0.6388
   65MOL    C5015538   7.063   5.979   6.341  0.6515 -0.7568 -0.2717
   65MOL    C5115539   7.175   6.047   6.415  0.0298 -0.0852  0.0626
   65MOL    O5215540   7.130   6.085   6.544  0.0682  0.2398 -0.1311
   65MOL    C5315541   7.167   6.209   6.596  0.8429  0.6774  0.4625
   65MOL    C5415542   7.127   6.219   6.738  0.4290 -0.2517  0.4130
   65MOL    O5515543   7.217   6.301   6.534 -0.3883  0.2651  0.1599
   65MOL    H5615544   7.000   5.918   6.406 -0.0617  0.4126  0.1544
   65MOL    H5715545   7.095   5.922   6.254  0.5505 -0.2603 -0.6360
   65MOL    H5815546   7.203   6.138   6.362 -0.5404  0.0453 -0.0157
   65MOL    H5915547   7.213   6.180   6.792  1.0288  1.2083  0.5491
   65MOL    H6015548   7.037   6.158   6.747 -0.1355  0.3993 -0.6893
   65MOL    H6115549   7.113   6.323   6.769 -0.7518 -0.6298  1.1972
   65MOL    C6215550   7.298   5.953   6.428 -0.6387  0.8787 -0.7929
   65MOL    C6315551   7.433   6.031   6.445  0.1474  0.3045  0.1645
   65MOL    O6415552   7.527   5.946   6.511 -0.3375 -0.0592  0.5780
   65MOL    C6515553   7.542   5.944   6.645 -0.0530 -0.0856 -0.0907
   65MOL    C6615554   7.635   5.832   6.692  0.3331  0.0890  0.6586
   65MOL    O6715555   7.490   6.023   6.723  0.7164  0.1604  0.0713
   65MOL    H6815556   7.280   5.876   6.503 -0.9863  1.8157  0.1053
   65MOL    H6915557   7.296   5.906   6.329  0.4670  0.2346 -0.5103
   65MOL    H7015558   7.416   6.120   6.506  1.3910  0.6784 -0.0276
   65MOL    H7115559   7.580   5.742   6.718 -0.0253  0.1110 -0.0105
   65MOL    H7215560   7.685   5.867   6.783  1.4022 -1.4239  0.6737
   65MOL    H7315561   7.702   5.805   6.610  0.7682  1.2042  0.6414
   65MOL    C7415562   7.500   6.048   6.303 -0.2704  0.3142  0.3367
   65MOL    C7515563   7.426   6.124   6.195  0.2156  0.6542  0.7359
   65MOL    O7615564   7.381   6.258   6.233  0.4547  0.3115  0.3655
   65MOL    C7715565   7.274   6.322   6.174 -0.3493  0.6031  0.0552
   65MOL    C7815566   7.265   6.457   6.246 -0.0908 -0.3844 -0.1959
   65MOL    O7915567   7.210   6.276   6.080  0.1908 -0.3078 -0.6045
   65MOL    H8015568   7.597   6.090   6.329  0.7635 -2.0632  0.5085
   65MOL    H8115569   7.525   5.946   6.272  2.4565  1.6000 -1.8533
   65MOL    H8215570   7.340   6.058   6.185  1.6037 -1.2998  1.4841
   65MOL    H8315571   7.292   6.442   6.350  0.3741  3.0018  0.2227
   65MOL    H8415572   7.165   6.498   6.231  0.4185  0.9626 -0.0015
   65MOL    H8515573   7.336   6.525   6.199  1.2070 -2.3496 -1.1711
   65MOL    C8615574   7.503   6.125   6.062  0.0387  0.0123  0.0487
   65MOL    C8715575   7.503   5.990   5.988  0.1525  0.6393  0.3519
   65MOL    O8815576   7.387   5.988   5.899  0.5069 -0.4649  0.3800
   65MOL    C8915577   7.284   5.905   5.934  0.0559 -0.5593 -0.1368
   65MOL    C9015578   7.174   5.909   5.828 -1.8971 -0.3432 -0.0682
   65MOL    O9115579   7.272   5.827   6.027  0.2902  0.7985 -0.2421
   65MOL    H9215580   7.466   6.202   5.994 -0.4621  0.5430  0.9078
   65MOL    H9315581   7.604   6.151   6.095  0.1188 -0.9298  0.5406
   65MOL    H9415582   7.500   5.903   6.055  2.4637  1.5207  1.6603
   65MOL    H9515583   7.120   6.002   5.845 -2.1260 -0.3569 -0.7429
   65MOL    H9615584   7.114   5.823   5.856 -2.4413  0.5454  1.6110
   65MOL    H9715585   7.209   5.894   5.726  0.2415 -0.2194  0.6100
   65MOL    C9815586   7.608   5.980   5.881  0.1822 -0.4707  0.4350
   65MOL    C9915587   7.614   5.849   5.792  0.3117 -0.1703  0.5685
   65MOL   O10015588   7.728   5.844   5.708 -0.6681  0.4349 -0.2469
   65MOL   C10115589   7.736   5.908   5.592 -0.2768  0.4919 -0.4395
   65MOL   C10215590   7.853   5.855   5.507 -0.3327  0.0016 -0.4309
   65MOL   O10315591   7.667   5.998   5.553 -0.2146 -0.1241  0.2968
   65MOL   H10415592   7.601   6.070   5.821  0.2417 -1.9373 -1.8509
   65MOL   H10515593   7.709   5.995   5.920  0.0156 -1.0328  1.0789
   65MOL   H10615594   7.520   5.852   5.737  1.6770  0.1533 -1.8475
   65MOL   H10715595   7.917   5.936   5.472 -0.1382 -0.7364 -1.8233
   65MOL   H10815596   7.816   5.803   5.419  0.8064 -1.4549 -0.0747
   65MOL   H10915597   7.920   5.788   5.561  0.8926 -0.2136 -2.1988
   65MOL   C11015598   7.632   5.728   5.890 -0.1192  0.7733  0.4566
   65MOL   C11115599   7.606   5.588   5.831 -0.0827 -0.3524  0.2317
   65MOL   O11215600   7.712   5.539   5.752  0.2065  0.3843  0.2668
   65MOL   C11315601   7.706   5.542   5.621  0.3918  0.2513  0.0347
   65MOL   C11415602   7.819   5.474   5.546 -0.4563  0.1307  0.1829
   65MOL   O11515603   7.623   5.594   5.557  0.3006 -0.1362 -0.3301
   65MOL   H11615604   7.731   5.747   5.932  0.2658 -1.0862  0.4641
   65MOL   H11715605   7.563   5.726   5.974 -2.5601 -0.0029 -1.4999
   65MOL   H11815606   7.513   5.593   5.773  0.8020  1.2109 -1.0875
   65MOL   H11915607   7.796   5.443   5.444 -0.1868  0.9575 -0.1339
   65MOL   H12015608   7.848   5.379   5.590  0.7647 -0.2756 -1.4587
   65MOL   H12115609   7.908   5.536   5.543  0.9197 -1.8044 -0.2092
   65MOL   C12215610   7.581   5.478   5.938  0.2914 -0.2424  0.2032
   65MOL   C12315611   7.678   5.467   6.057 -0.4594 -0.4563 -0.4812
   65MOL   O12415612   7.627   5.509   6.182 -0.2117 -0.1259 -0.5716
   65MOL   C12515613   7.687   5.622   6.235 -0.6130 -0.6406 -0.2204
   65MOL   C12615614   7.626   5.664   6.367 -0.5526  0.5112  0.1526
   65MOL   O12715615   7.762   5.702   6.176 -0.4159  0.4389 -0.0426
   65MOL   H12815616   7.483   5.496   5.982  1.2428  1.3211  1.7018
   65MOL   H12915617   7.559   5.388   5.879  0.6301 -0.0060 -0.2901
   65MOL   H13015618   7.762   5.528   6.024 -0.0632 -1.1511 -0.7798
   65MOL   H13115619   7.547   5.736   6.345 -2.4764 -1.5984 -0.0675
   65MOL   H13215620   7.710   5.713   6.415 -1.2627  1.2193  0.6656
   65MOL   H13315621   7.589   5.580   6.426  2.9262  0.6195  2.6657
   65MOL   C13415622   7.739   5.330   6.081  0.2489  0.3661  0.1433
   65MOL   C13515623   7.892   5.322   6.080  0.1972  0.0268  0.5292
   65MOL   O13615624   7.927   5.355   6.214  0.7471 -0.3587  0.1627
   65MOL   C13715625   8.002   5.463   6.234  0.2871  0.0461 -0.5426
   65MOL   C13815626   0.020   5.473   6.384  0.1214 -0.6368 -0.1041
   65MOL   O13915627   0.007   5.543   6.144 -0.3988 -0.4219  0.2166
   65MOL   H14015628   7.703   5.282   6.172  2.1222  0.6313  1.0397
   65MOL   H14115629   7.710   5.262   6.001  1.4398  1.0810 -0.9234
   65MOL   H14215630   7.930   5.400   6.014 -1.7391  2.2655  1.9448
   65MOL   H14315631   7.993   5.398   6.446 -3.0774  0.4745 -1.1465
   65MOL   H14415632   8.010   5.567   6.430  0.4497  0.0428 -1.2426
   65MOL   H14515633   0.126   5.475   6.410 -0.3643  0.0357  1.8819
   65MOL   C14615634   7.955   5.195   6.026 -0.7263  0.6361 -0.5864
   65MOL   C14715635   0.085   5.178   6.040 -0.6823  0.1167  0.7222
   65MOL   O14815636   0.101   5.132   6.171  0.3075 -0.4958  0.6268
   65MOL   C14915637   0.225   5.137   6.235 -0.2385 -0.1161  0.0007
   65MOL   C15015638   0.215   5.091   6.376  0.3152 -0.2098 -0.6199
   65MOL   O15115639   0.336   5.174   6.190  0.1433  0.0228  0.2927
   65MOL   H15215640   7.907   5.111   6.077 -0.2279 -0.3844 -1.7703
   65MOL   H15315641   7.917   5.176   5.925 -0.7481  0.4210 -0.5387
   65MOL   H15415642   0.124   5.279   6.042  0.5365 -0.3237  0.0184
   65MOL   H15515643   0.177   4.989   6.368 -1.1687  0.4042 -1.5042
   65MOL   H15615644   0.142   5.148   6.433 -0.1850 -1.7719  0.3317
   65MOL   H15715645   0.313   5.096   6.424  1.5572 -2.9040 -2.7086
   65MOL   C15815646   0.155   5.088   5.937 -0.3790  0.4573 -0.6258
   65MOL   C15915647   0.154   4.938   5.969 -0.1493 -0.5326  0.2051
   65MOL   O16015648   0.024   4.898   5.932  0.1892  0.1241  0.0061
   65MOL   C16115649   7.989   4.785   5.985  0.8487 -0.7108 -0.0170
   65MOL   C16215650   7.860   4.750   5.919  0.0762 -0.4025 -0.3815
   65MOL   O16315651   0.010   4.713   6.079  0.3315 -0.3996 -0.4440
   65MOL   H16415652   0.101   5.110   5.845  0.0035  1.0078 -0.7221
   65MOL   H16515653   0.256   5.126   5.925 -0.4628  1.4865  1.5908
   65MOL   H16615654   0.166   4.940   6.078 -2.9396 -0.6312  0.5580
   65MOL   H16715655   7.836   4.831   5.851 -1.3236 -1.0444 -0.6662
   65MOL   H16815656   7.788   4.731   5.999 -0.8450  1.1497 -0.8280
   65MOL   H16915657   7.860   4.654   5.867 -0.0189  0.0816 -1.2731
   65MOL   C17015658   0.274   4.869   5.894  0.0800  0.6507  0.3779
   65MOL   C17115659   0.394   4.835   5.985 -0.3250  0.2958 -0.2146
   65MOL   O17215660   0.363   4.722   6.065 -0.7400 -0.3022 -0.1306
   65MOL   C17315661   0.355   4.729   6.195  0.4472 -0.1960 -0.4047
   65MOL   C17415662   0.306   4.592   6.246 -0.5687 -0.4973 -0.3072
   65MOL   O17515663   0.410   4.813   6.265 -0.1016  0.0634  0.0789
   65MOL   H17615664   0.245   4.774   5.850 -1.6053  0.1019  2.5389
   65MOL   H17715665   0.304   4.919   5.801  1.6618 -0.5803  0.2138
   65MOL   H17815666   0.414   4.916   6.055 -0.3341  0.8352 -0.8216
   65MOL   H17915667   0.198   4.602   6.249 -0.4767  0.1982  0.6364
   65MOL   H18015668   0.355   4.566   6.340  0.5031  2.2706 -0.0651
   65MOL   H18115669   0.336   4.517   6.173  0.2628 -0.6290  0.1635
   65MOL   C18215670   0.522   4.811   5.907  0.1255 -0.5138  0.2427
   65MOL   C18315671   0.644   4.889   5.948 -0.0982 -0.9870  0.7104
   65MOL   O18415672   0.613   5.033   5.922 -0.2059  0.3083  0.0932
   65MOL   C18515673   0.713   5.126   5.918  0.2883 -0.5416 -0.3563
   65MOL   C18615674   0.650   5.269   5.909  0.7580  0.6195  0.0869
   65MOL   O18715675   0.835   5.105   5.935 -0.1571 -0.1794  0.3535
   65MOL   H18815676   0.541   4.703   5.908  0.7260 -0.4190 -0.6046
   65MOL   H18915677   0.504   4.841   5.804 -0.7978  0.3914  0.6603
   65MOL   H19015678   0.732   4.862   5.890  1.0208  0.5596  1.6343
   65MOL   H19115679   0.589   5.275   5.999 -0.1981 -1.5499 -0.3861
   65MOL   H19215680   0.595   5.271   5.815 -1.8250 -0.3799  1.5488
   65MOL   H19315681   0.728   5.346   5.900 -0.0615  1.8096  2.6133
   65MOL   C19415682   0.676   4.860   6.095 -0.1530 -0.1630 -0.7744
   65MOL   C19515683   0.697   4.710   6.135  0.4379 -0.0074  0.5608
   65MOL   O19615684   0.799   4.651   6.060  0.2750  0.1903 -0.7815
   65MOL   C19715685   0.777   4.548   5.973 -0.4561  0.3226 -0.1719
   65MOL   C19815686   0.896   4.513   5.882  0.3510 -0.1760 -0.0433
   65MOL   O19915687   0.678   4.475   5.980 -0.3664 -0.5507  0.0723
   65MOL   H20015688   0.772   4.908   6.118 -0.0356 -0.4282 -0.7111
   65MOL   H20115689   0.602   4.912   6.155  0.1628 -1.2102  0.5563
   65MOL   H20215690   0.606   4.651   6.126  0.1594  0.6805 -1.1726
   65MOL   H20315691   0.969   4.594   5.879  1.5863 -1.0721  3.3412
   65MOL   H20415692   0.866   4.507   5.778 -0.0826  1.6059 -0.0386
   65MOL   H20515693   0.951   4.424   5.912 -1.3263 -1.4599 -0.6977
   65MOL   C20615694   0.730   4.696   6.285 -0.3972  0.0626  0.1829
   65MOL   C20715695   0.783   4.560   6.330  0.3446  0.3088 -0.0749
   65MOL   O20815696   0.837   4.569   6.459  0.3039 -0.2298  0.1844
   65MOL   C20915697   0.959   4.523   6.489  0.3189 -0.1166  0.4837
   65MOL   C21015698   0.987   4.549   6.631  0.1093  0.2945  0.3927
   65MOL   O21115699   1.036   4.453   6.424 -0.7527 -0.9168  0.5273
   65MOL   H21215700   0.806   4.772   6.301 -0.8791  0.8314 -1.1055
   65MOL   H21315701   0.650   4.735   6.347  0.2484  3.0054 -0.7311
   65MOL   H21415702   0.860   4.532   6.257 -0.3509 -0.0336 -0.6912
   65MOL   H21515703   1.093   4.532   6.646  0.0223 -0.1135  0.5639
   65MOL   H21615704   0.922   4.502   6.705 -0.2038  2.7309  1.6975
   65MOL   H21715705   0.972   4.657   6.631 -1.1129  0.1372  1.4589
   65MOL   C21815706   0.674   4.444   6.325 -0.0933 -0.0466 -0.4467
   65MOL   C21915707   0.722   4.302   6.377 -0.2709  0.6836  0.1480
   65MOL   O22015708   0.615   4.226   6.443 -0.6065 -0.2147 -0.3914
   65MOL   C22115709   0.497   4.199   6.382  0.6923  0.3129 -0.7665
   65MOL   C22215710   0.399   4.131   6.479  0.0469  0.2773  0.4869
   65MOL   O22315711   0.472   4.230   6.263 -0.1456  0.1292  0.1603
   65MOL   H22415712   0.587   4.483   6.379 -0.1181 -0.5762 -0.0998
   65MOL   H22515713   0.645   4.440   6.220  1.5372 -0.2448 -0.9090
   65MOL   H22615714   0.793   4.312   6.459 -2.2180  3.6026  1.5915
   65MOL   H22715715   0.350   4.196   6.552  1.6197  1.2296  0.7149
   65MOL   H22815716   0.443   4.045   6.530  0.0083  1.3310  2.3302
   65MOL   H22915717   0.318   4.098   6.414 -0.1114  0.3934  0.6254
   65MOL   C23015718   0.773   4.213   6.268  0.4462 -0.1429  0.5918
   65MOL   C23115719   0.918   4.244   6.223 -0.1921 -0.3054  0.0980
   65MOL   O23215720   0.949   4.169   6.105  0.0939  0.0582 -0.2234
   65MOL   C23315721   1.077   4.175   6.062 -0.3911 -0.4611  0.8915
   65MOL   C23415722   1.095   4.090   5.934  0.3169 -0.5690 -0.5494
   65MOL   O23515723   1.168   4.247   6.109  0.1123 -0.0458 -0.0387
   65MOL   H23615724   0.753   4.110   6.297 -1.4877  0.6799  2.2768
   65MOL   H23715725   0.703   4.219   6.185  0.2456  0.8649  0.8351
   65MOL   H23815726   0.977   4.196   6.301  0.1419  1.4110  0.9043
   65MOL   H23915727   1.092   3.985   5.961  2.3869 -1.1113 -2.2643
   65MOL   H24015728   1.192   4.114   5.889  0.2967  0.7050  0.0508
   65MOL   H24115729   1.016   4.121   5.866 -0.7709 -0.2063  0.8521
   65MOL   H24215730   0.938   4.350   6.209 -2.4237  0.4338  2.1620
   66MOL     C115731   0.220   0.722   2.451 -0.4933 -0.1244 -0.4402
   66MOL     C215732   0.342   0.728   2.547 -0.6851 -0.6604 -0.3322
   66MOL     O315733   0.283   0.770   2.675 -0.3937 -0.9524 -0.1868
   66MOL     C415734   0.289   0.895   2.718  0.3018 -0.1466 -0.0540
   66MOL     C515735   0.192   0.931   2.835  0.0924  0.4058  1.0051
   66MOL     O615736   0.363   0.981   2.664  0.8485  0.0361 -0.0363
   66MOL     H715737   0.170   0.819   2.452 -0.5558 -0.1309 -1.9381
   66MOL     H815738   0.157   0.640   2.482 -1.5335  0.8162 -0.0395
   66MOL     H915739   0.415   0.801   2.513 -1.2619  0.9723  1.8459
   66MOL    H1015740   0.091   0.893   2.820  0.8875 -1.1195 -0.6290
   66MOL    H1115741   0.181   1.040   2.827  1.9269  0.5600  0.4076
   66MOL    H1215742   0.225   0.916   2.938 -2.1293 -0.4432  1.6091
   66MOL    H1315743   0.252   0.696   2.350  1.4322  1.8727 -0.3859
   66MOL    C1415744   0.399   0.586   2.578  0.2108 -0.7556 -0.0783
   66MOL    C1515745   0.470   0.518   2.461  0.4152 -0.0645  0.1491
   66MOL    O1615746   0.608   0.554   2.463  0.0645  0.2797 -0.4372
   66MOL    C1715747   0.653   0.655   2.408  0.7544  0.5177 -0.5500
   66MOL    C1815748   0.806   0.678   2.429  0.0650  0.2270 -0.2493
   66MOL    O1915749   0.591   0.735   2.339 -0.3092  1.2244  0.2993
   66MOL    H2015750   0.476   0.599   2.654  1.8258 -0.0505 -1.8104
   66MOL    H2115751   0.318   0.529   2.625  1.1038 -1.1391  1.0105
   66MOL    H2215752   0.431   0.542   2.362  2.6367  0.3123 -0.6733
   66MOL    H2315753   0.849   0.642   2.335  1.0238 -0.1735  0.3349
   66MOL    H2415754   0.844   0.630   2.519 -0.2018 -1.4841 -1.0291
   66MOL    H2515755   0.817   0.785   2.445  2.0968  0.0781 -0.5122
   66MOL    C2615756   0.463   0.363   2.469 -0.2295 -0.0822 -0.0801
   66MOL    C2715757   0.331   0.304   2.410 -0.5085 -0.3493  0.7256
   66MOL    O2815758   0.331   0.346   2.272  0.4833  0.4132  0.4977
   66MOL    C2915759   0.230   0.424   2.218 -0.2998  0.3199  0.0240
   66MOL    C3015760   0.254   0.450   2.071  0.1673  0.4482 -0.1688
   66MOL    O3115761   0.135   0.469   2.281  0.3290 -0.0380  0.0340
   66MOL    H3215762   0.546   0.336   2.404  0.0754  0.2913  0.1542
   66MOL    H3315763   0.474   0.326   2.571 -0.3379  0.6434  0.1960
   66MOL    H3415764   0.241   0.342   2.459 -0.0366 -1.6158  2.6369
   66MOL    H3515765   0.359   0.477   2.059  0.3931 -0.2456  0.2179
   66MOL    H3615766   0.196   0.541   2.051  0.6953  1.6423  3.3760
   66MOL    H3715767   0.216   0.370   2.008  3.0548 -1.3387  0.2942
   66MOL    C3815768   0.342   0.153   2.418  0.4440 -0.6851 -0.1204
   66MOL    C3915769   0.317   0.085   2.549 -0.1176 -0.1192  0.3967
   66MOL    O4015770   0.185   0.121   2.596  0.1822 -0.1666  0.6177
   66MOL    C4115771   0.157   0.120   2.729  0.1967  0.0047 -0.4126
   66MOL    C4215772   0.006   0.158   2.748  0.2194  0.2652 -0.8945
   66MOL    O4315773   0.230   0.079   2.824 -0.5355 -0.9878  0.3092
   66MOL    H4415774   0.263   0.131   2.347 -0.5254 -0.7334  0.9707
   66MOL    H4515775   0.443   0.124   2.390  0.6888  0.1003 -0.0739
   66MOL    H4615776   0.398   0.118   2.614  1.0393 -0.7211 -0.7109
   66MOL    H4715777   7.981   0.147   2.846  0.1382 -0.4084 -1.0041
   66MOL    H4815778   7.963   0.087   2.696  1.7115 -2.6558  1.1350
   66MOL    H4915779   8.006   0.258   2.711  0.1688  0.6644  0.2042
   66MOL    C5015780   0.315   7.954   2.547 -0.2848 -0.6865  0.0387
   66MOL    C5115781   0.441   7.886   2.489  1.1573 -0.3281  0.0931
   66MOL    O5215782   0.538   7.889   2.600  0.3607  0.6362 -0.4331
   66MOL    C5315783   0.655   7.949   2.593 -0.5916 -0.9487 -0.0213
   66MOL    C5415784   0.714   7.954   2.734  0.2373 -0.0391 -0.2494
   66MOL    O5515785   0.709   8.013   2.500  0.0326 -0.7825  0.2173
   66MOL    H5615786   0.286   7.909   2.641  2.2474  1.0838  1.7330
   66MOL    H5715787   0.240   7.932   2.471  0.2588 -3.3109  0.2115
   66MOL    H5815788   0.484   7.942   2.406  1.3810  0.9924  1.0947
   66MOL    H5915789   0.770   0.022   2.762  0.7516 -0.9968  1.8285
   66MOL    H6015790   0.772   7.862   2.733  1.0336  0.4574 -0.2285
   66MOL    H6115791   0.638   7.940   2.810 -1.1598  3.6822 -0.8244
   66MOL    C6215792   0.419   7.737   2.452 -0.8261  0.6226 -0.3334
   66MOL    C6315793   0.352   7.701   2.309 -0.3786 -0.4757  0.1191
   66MOL    O6415794   0.435   7.740   2.207 -0.0528  0.0404  0.0467
   66MOL    C6515795   0.406   7.851   2.141  0.1891  0.5933 -0.3817
   66MOL    C6615796   0.515   7.886   2.045 -0.5509 -0.3854  0.1465
   66MOL    O6715797   0.298   7.907   2.155  0.1682  0.0297 -0.0064
   66MOL    H6815798   0.514   7.685   2.464 -0.4547  1.7031  1.6023
   66MOL    H6915799   0.362   7.695   2.535  1.7364  0.6292  1.4655
   66MOL    H7015800   0.253   7.746   2.302 -0.2220  0.2509  2.1941
   66MOL    H7115801   0.615   7.879   2.088 -1.2494 -1.1392  1.6755
   66MOL    H7215802   0.506   7.993   2.022 -0.7679 -0.8036 -1.7860
   66MOL    H7315803   0.510   7.824   1.956  1.4021 -0.1422 -0.1496
   66MOL    C7415804   0.330   7.552   2.286  0.0690  0.2113 -0.3830
   66MOL    C7515805   0.236   7.525   2.170 -0.1070  0.1009  0.4812
   66MOL    O7615806   0.254   7.387   2.135 -0.3136 -0.5421 -0.7498
   66MOL    C7715807   0.263   7.355   2.004  0.7726  0.1739 -0.2176
   66MOL    C7815808   0.287   7.206   1.996  0.7176 -0.0553 -0.1395
   66MOL    O7915809   0.256   7.428   1.911 -0.4518  0.4290 -0.3085
   66MOL    H8015810   0.417   7.501   2.245 -0.7155 -0.8184 -0.7967
   66MOL    H8115811   0.328   7.491   2.376 -0.2579 -0.6080 -0.9415
   66MOL    H8215812   0.266   7.583   2.082 -0.5089  1.8122  1.4494
   66MOL    H8315813   0.240   7.155   2.080  1.5362  1.3892  1.2353
   66MOL    H8415814   0.395   7.193   2.000  0.9750  1.5545 -1.0542
   66MOL    H8515815   0.255   7.165   1.901  1.0045  0.6400 -0.5382
   66MOL    C8615816   0.089   7.561   2.202 -0.0554 -0.2642 -0.6076
   66MOL    C8715817   0.027   7.517   2.335  0.8707  0.6226  0.4926
   66MOL    O8815818   7.932   7.598   2.354 -0.1762 -0.2206  0.7407
   66MOL    C8915819   7.939   7.715   2.411  0.4082 -0.3226  0.1891
   66MOL    C9015820   7.812   7.799   2.408 -0.2658  0.0140  0.5008
   66MOL    O9115821   0.018   7.757   2.479 -0.8302  0.2286  0.3080
   66MOL    H9215822   0.088   7.669   2.183 -0.2487 -0.2742 -0.6460
   66MOL    H9315823   0.017   7.533   2.126 -3.7591 -0.6291  2.8957
   66MOL    H9415824   0.098   7.527   2.418 -0.4171  1.3266  1.5290
   66MOL    H9515825   7.773   7.808   2.510 -2.1880  1.5429 -0.3226
   66MOL    H9615826   7.742   7.746   2.343  0.2700 -1.4579  1.0950
   66MOL    H9715827   7.831   7.897   2.365 -0.9662 -0.3234 -0.6161
   66MOL    C9815828   8.011   7.367   2.344 -0.0182  0.0954  0.1149
   66MOL    C9915829   7.998   7.308   2.488  0.8886 -0.0751  0.4013
   66MOL   O10015830   0.096   7.333   2.555 -0.9368  0.2164 -0.0598
   66MOL   C10115831   0.197   7.243   2.537  0.6006 -0.0910 -0.0422
   66MOL   C10215832   0.325   7.290   2.603 -0.1715 -0.2676 -0.8272
   66MOL   O10315833   0.189   7.142   2.468  0.2458 -0.1048  0.0906
   66MOL   H10415834   7.918   7.351   2.289 -0.4789 -0.2352  0.9888
   66MOL   H10515835   0.071   7.320   2.288 -1.0279 -0.5215 -0.8621
   66MOL   H10615836   7.980   7.201   2.477 -0.2526  0.3392 -2.0799
   66MOL   H10715837   0.314   7.377   2.669 -1.7714 -2.0990  1.4187
   66MOL   H10815838   0.397   7.322   2.528  0.0307 -0.9688 -0.9304
   66MOL   H10915839   0.367   7.212   2.667  0.0373  1.4503  1.1906
   66MOL   C11015840   7.872   7.355   2.567 -0.0158 -0.1985 -0.1049
   66MOL   C11115841   7.885   7.310   2.716  0.4167 -0.2251 -1.0001
   66MOL   O11215842   7.784   7.376   2.793 -0.2120 -0.0138 -0.0563
   66MOL   C11315843   7.811   7.487   2.871  1.0805  0.2446  0.2947
   66MOL   C11415844   7.687   7.550   2.921  0.2038  0.0123 -0.1380
   66MOL   O11515845   7.922   7.535   2.896 -0.4969 -0.0540  0.0671
   66MOL   H11615846   7.855   7.463   2.563 -0.2673 -0.2668 -1.0341
   66MOL   H11715847   7.778   7.311   2.534 -1.4531  0.6731  2.6329
   66MOL   H11815848   7.984   7.348   2.742 -0.6284  1.1364  1.1704
   66MOL   H11915849   7.709   7.655   2.941 -0.1393 -0.0765  0.7317
   66MOL   H12015850   7.661   7.500   3.014  1.9813 -2.4895 -0.9400
   66MOL   H12115851   7.607   7.549   2.848  0.7884  0.6433 -0.7996
   66MOL   C12215852   7.860   7.162   2.745 -0.2415 -0.6211 -0.1867
   66MOL   C12315853   7.901   7.122   2.889  0.5375 -0.0609  0.1263
   66MOL   O12415854   7.802   7.030   2.944  0.6344 -0.0174  0.6226
   66MOL   C12515855   7.685   7.082   2.992 -0.3136  0.3009 -0.7055
   66MOL   C12615856   7.591   6.974   3.056  0.3005 -0.0644  0.2194
   66MOL   O12715857   7.653   7.199   2.987  0.2076  0.0499 -0.0473
   66MOL   H12815858   7.754   7.138   2.735 -0.0121 -2.8197  2.1788
   66MOL   H12915859   7.919   7.100   2.678 -0.7405 -0.1160 -1.0999
   66MOL   H13015860   7.903   7.204   2.961  0.2686 -0.6896  0.8593
   66MOL   H13115861   7.488   6.990   3.023 -0.1821 -1.0081  1.2567
   66MOL   H13215862   7.591   6.977   3.165 -3.1655  2.7123  0.2533
   66MOL   H13315863   7.627   6.878   3.019 -1.2452 -0.1614 -1.0587
   66MOL   C13415864   0.023   7.062   2.891 -0.5970 -0.2772  0.1142
   66MOL   C13515865   0.097   7.095   3.024 -0.0211 -0.4638 -0.2723
   66MOL   O13615866   0.126   7.233   3.035 -0.0636  0.0297 -0.0993
   66MOL   C13715867   0.238   7.288   2.975  0.8503  0.3133  0.1386
   66MOL   C13815868   0.237   7.439   2.978  0.1931  0.6506 -0.0935
   66MOL   O13915869   0.332   7.223   2.932 -0.8370  0.0462 -0.3036
   66MOL   H14015870   0.014   6.953   2.891  1.4181 -0.4637  1.3359
   66MOL   H14115871   0.082   7.086   2.804  1.3208  0.6945  1.6563
   66MOL   H14215872   0.188   7.036   3.013  0.1400 -0.0404 -1.2520
   66MOL   H14315873   0.260   7.483   3.076 -0.6059  1.0014 -0.0647
   66MOL   H14415874   0.140   7.471   2.940  0.4893 -0.9299 -2.2609
   66MOL   H14515875   0.304   7.476   2.900  0.5826  0.6559  0.2404
   66MOL   C14615876   0.020   7.059   3.153 -0.5289  0.5469  0.5453
   66MOL   C14715877   0.096   7.064   3.284  0.2495 -0.6022  0.3597
   66MOL   O14815878   0.127   7.202   3.316 -0.0838  0.4668  0.4880
   66MOL   C14915879   0.256   7.250   3.329  0.5945  0.1412  0.3289
   66MOL   C15015880   0.251   7.396   3.379  0.3210  0.4561 -0.0539
   66MOL   O15115881   0.357   7.192   3.300  0.0438 -0.2024  0.2213
   66MOL   H15215882   7.949   7.116   3.151  0.2938  1.9562  1.4532
   66MOL   H15315883   8.015   6.955   3.138  2.6615 -0.1599 -0.6534
   66MOL   H15415884   0.192   7.011   3.287  2.4374  3.2597  1.6484
   66MOL   H15515885   0.146   7.425   3.380 -0.3755 -1.7688 -2.3276
   66MOL   H15615886   0.304   7.464   3.313 -0.1937 -1.0544 -2.0748
   66MOL   H15715887   0.294   7.402   3.479  1.3703  1.3934 -0.5537
   66MOL   C15815888   0.004   6.996   3.395 -0.2165  0.5977  1.0160
   66MOL   C15915889   0.081   6.945   3.520  0.1022  0.1997 -0.7710
   66MOL   O16015890   8.013   6.878   3.603  0.0102 -0.4212 -0.1781
   66MOL   C16115891   7.955   6.954   3.696  0.1935 -0.4047  0.4636
   66MOL   C16215892   7.882   6.878   3.812 -0.2307  0.1769  0.0406
   66MOL   O16315893   7.956   7.078   3.707 -0.0734 -0.0752 -0.7411
   66MOL   H16415894   7.956   7.065   3.441 -0.4657  1.4961 -0.6585
   66MOL   H16515895   7.978   6.909   3.348  1.4228  1.4688 -2.4378
   66MOL   H16615896   0.133   7.028   3.568 -0.2035  0.1845 -0.4143
   66MOL   H16715897   7.788   6.922   3.845  0.8616  1.5072  1.4227
   66MOL   H16815898   7.930   6.864   3.909 -1.4284 -0.8947  0.5077
   66MOL   H16915899   7.856   6.780   3.771  0.6722 -0.2456  0.4608
   66MOL   C17015900   0.193   6.832   3.504 -0.3414 -0.5523 -0.3571
   66MOL   C17115901   0.179   6.721   3.390  0.2053 -0.2468 -0.3579
   66MOL   O17215902   0.298   6.740   3.311 -0.6047 -0.2296  0.2250
   66MOL   C17315903   0.288   6.770   3.179  0.1112 -0.2624 -0.9121
   66MOL   C17415904   0.427   6.801   3.116 -0.0135 -0.2093  1.0492
   66MOL   O17515905   0.187   6.769   3.113 -0.1829 -0.4622  0.2021
   66MOL   H17615906   0.293   6.875   3.500  0.1901 -1.7069  0.1728
   66MOL   H17715907   0.198   6.780   3.600 -0.0761 -1.1073 -0.6660
   66MOL   H17815908   0.087   6.744   3.337  0.6318 -0.0433 -1.0206
   66MOL   H17915909   0.467   6.900   3.135 -0.3318  0.5901 -2.1506
   66MOL   H18015910   0.399   6.805   3.010 -1.1969 -0.6170  1.3349
   66MOL   H18115911   0.504   6.727   3.136 -0.8937 -1.8281 -1.2907
   66MOL   C18215912   0.166   6.576   3.444  1.0042  0.1088 -1.1866
   66MOL   C18315913   0.030   6.542   3.517  0.0672 -0.1934  0.7168
   66MOL   O18415914   7.949   6.557   3.412 -0.2511  0.1547  0.3334
   66MOL   C18515915   7.841   6.626   3.431 -0.4347  0.7982  0.5767
   66MOL   C18615916   7.770   6.661   3.301  0.1229 -0.9924  0.0594
   66MOL   O18715917   7.804   6.654   3.542 -0.6699 -0.5744 -0.1025
   66MOL   H18815918   0.182   6.500   3.368 -0.5665 -1.0812 -0.3433
   66MOL   H18915919   0.249   6.556   3.511 -2.4780 -2.6007  2.5334
   66MOL   H19015920   0.018   6.626   3.585  2.1256 -1.3475  2.5832
   66MOL   H19115921   7.671   6.703   3.319  0.2836 -1.4165  2.0354
   66MOL   H19215922   7.773   6.576   3.232  1.4208  0.2425 -1.4305
   66MOL   H19315923   7.820   6.740   3.245  1.5429 -1.8378  0.1061
   66MOL   C19415924   0.009   6.401   3.581 -0.3118  0.7526 -0.6082
   66MOL   C19515925   0.095   6.382   3.714 -0.3733 -0.0198  0.1655
   66MOL   O19615926   0.029   6.462   3.807  0.1198  0.6480 -0.6307
   66MOL   C19715927   0.090   6.570   3.871 -0.3026  0.0023  0.1912
   66MOL   C19815928   0.004   6.641   3.981  0.2907  0.6303 -0.8254
   66MOL   O19915929   0.199   6.602   3.844 -0.9258  0.1313 -0.0672
   66MOL   H20015930   7.927   6.379   3.606 -0.0611  2.1939  1.8976
   66MOL   H20115931   0.040   6.324   3.510 -0.8204 -0.6704  0.6614
   66MOL   H20215932   0.200   6.399   3.690  0.5020 -1.2271  2.9373
   66MOL   H20315933   0.046   6.741   3.984 -0.2049  0.7813  1.4043
   66MOL   H20415934   0.017   6.596   4.079 -2.6314  0.3106 -0.5464
   66MOL   H20515935   7.917   6.635   3.971  0.2968  1.1831 -1.2686
   66MOL   C20615936   0.084   6.252   3.775 -0.1102 -0.3289  0.1642
   66MOL   C20715937   0.185   6.227   3.897  0.1442 -0.5075 -0.0179
   66MOL   O20815938   0.108   6.196   4.011  0.1115 -0.8873 -0.1356
   66MOL   C20915939   0.088   6.290   4.111  0.0281  0.1276 -0.1975
   66MOL   C21015940   7.984   6.253   4.186 -0.7126 -0.1652  0.3376
   66MOL   O21115941   0.154   6.389   4.143 -0.5121  0.0283 -0.0317
   66MOL   H21215942   8.005   6.234   3.813  0.1653  0.4532  1.2813
   66MOL   H21315943   0.084   6.182   3.691 -1.7447  0.2602 -0.3254
   66MOL   H21415944   0.229   6.318   3.935 -0.5165  0.0572 -0.5863
   66MOL   H21515945   7.901   6.225   4.121 -2.1876  1.2945  1.5385
   66MOL   H21615946   7.953   6.333   4.253 -1.7770 -1.3596  1.3065
   66MOL   H21715947   7.995   6.170   4.256  1.0730  0.8435  1.2687
   66MOL   C21815948   0.280   6.113   3.867 -0.0596 -0.1232 -0.2459
   66MOL   C21915949   0.397   6.173   3.785  0.3872  0.6519 -0.6478
   66MOL   O22015950   0.453   6.281   3.852 -0.2957  0.7397 -0.2677
   66MOL   C22115951   0.465   6.401   3.797  0.3690  0.2953 -0.1732
   66MOL   C22215952   0.553   6.507   3.868  0.5247  0.0734  1.0200
   66MOL   O22315953   0.427   6.421   3.683  0.5405  0.3186  0.4420
   66MOL   H22415954   0.325   6.080   3.961  1.1617  1.9678 -0.0463
   66MOL   H22515955   0.219   6.044   3.809 -0.3748  0.5602 -0.7421
   66MOL   H22615956   0.353   6.201   3.689 -1.2151 -1.1475 -0.4655
   66MOL   H22715957   0.652   6.471   3.841  0.4354  0.9717 -0.5918
   66MOL   H22815958   0.534   6.500   3.975 -1.0275 -0.8412  0.7039
   66MOL   H22915959   0.538   6.609   3.832 -0.4833 -0.8272 -1.1923
   66MOL   C23015960   0.508   6.074   3.748  0.1645  0.0639 -0.4299
   66MOL   C23115961   0.452   5.941   3.693  0.4746 -0.2885  0.6910
   66MOL   O23215962   0.367   5.957   3.581 -0.1668  0.3243  0.4704
   66MOL   C23315963   0.419   5.964   3.454  0.3632  0.5144 -0.1715
   66MOL   C23415964   0.324   6.007   3.349 -0.0016 -0.0338 -0.8154
   66MOL   O23515965   0.539   5.955   3.428 -0.4105  0.0008  0.3722
   66MOL   H23615966   0.567   6.123   3.671  1.4994 -0.1102  0.4827
   66MOL   H23715967   0.583   6.049   3.823 -0.0669 -0.0799 -0.2459
   66MOL   H23815968   0.394   5.891   3.771  0.6257  0.0134  0.9996
   66MOL   H23915969   0.372   6.029   3.254  2.3729 -0.0310  0.3577
   66MOL   H24015970   0.273   6.097   3.382  0.4183  0.5501 -1.7526
   66MOL   H24115971   0.264   5.918   3.327  2.7605 -1.8022 -1.4509
   66MOL   H24215972   0.528   5.872   3.657  0.8192 -0.4950  1.7997
   67MOL     C115973   7.503   2.630   7.796  0.9258 -0.7163 -0.2791
   67MOL     C215974   7.373   2.644   7.874 -0.6867 -0.1060  0.2787
   67MOL     O315975   7.380   2.776   7.925  0.0102 -0.1172 -0.1284
   67MOL     C415976   7.321   2.817   0.019 -0.1531 -0.0940 -0.5490
   67MOL     C515977   7.355   2.961   0.050  0.3141 -0.4796  0.2873
   67MOL     O615978   7.256   2.741   0.090 -0.2474  0.4712  0.1061
   67MOL     H715979   7.503   2.532   7.748 -0.8019 -1.8481  1.9712
   67MOL     H815980   7.590   2.634   7.861  0.0622 -0.8029  0.8786
   67MOL     H915981   7.374   2.565   7.949 -1.0482 -0.6939 -0.3302
   67MOL    H1015982   7.307   2.984   0.145 -4.1665 -2.3358 -1.4015
   67MOL    H1115983   7.312   3.029   7.998  0.3532  0.3655  1.0386
   67MOL    H1215984   7.462   2.984   0.052 -0.0257  1.4692 -1.7082
   67MOL    H1315985   7.515   2.698   7.711 -1.2875 -2.8629 -2.3795
   67MOL    C1415986   7.238   2.645   7.788 -0.1311 -0.2882 -0.2668
   67MOL    C1515987   7.202   2.503   7.735 -0.0341  0.3532  0.1993
   67MOL    O1615988   7.161   2.423   7.847 -0.2492  0.2907 -0.7797
   67MOL    C1715989   7.244   2.334   7.897  0.3641 -0.0450 -0.0522
   67MOL    C1815990   7.181   2.282   0.007 -0.0790 -0.0584 -0.3934
   67MOL    O1915991   7.348   2.289   7.847  0.3027 -0.8295  0.2478
   67MOL    H2015992   7.151   2.673   7.848 -1.1055 -2.2607 -0.7163
   67MOL    H2115993   7.224   2.721   7.711  0.1514 -0.5929 -0.6238
   67MOL    H2215994   7.289   2.458   7.688  1.9994  0.1545  4.0459
   67MOL    H2315995   7.258   2.254   0.078 -0.0561  1.0601  0.0216
   67MOL    H2415996   7.130   2.190   7.998  1.5626 -0.8905 -0.6829
   67MOL    H2515997   7.102   2.346   0.046 -0.9077 -1.8966  1.0082
   67MOL    C2615998   7.086   2.516   7.625  0.1113 -0.1872  0.2189
   67MOL    C2715999   7.125   2.538   7.477 -0.4412  0.3071 -0.0576
   67MOL    O2816000   7.225   2.436   7.455  0.1571  0.1247  0.3684
   67MOL    C2916001   7.359   2.464   7.435  0.8417 -0.1344  0.2612
   67MOL    C3016002   7.442   2.334   7.441  0.3940 -0.9279  0.2637
   67MOL    O3116003   7.404   2.574   7.430  0.4527 -0.3653 -0.2203
   67MOL    H3216004   7.024   2.427   7.620 -0.5106  0.2345  0.2372
   67MOL    H3316005   7.005   2.583   7.657 -0.6583 -1.9843  2.1467
   67MOL    H3416006   7.172   2.633   7.452  1.4664 -0.6049 -0.0362
   67MOL    H3516007   7.480   2.296   7.347  0.2194 -0.5953  0.0566
   67MOL    H3616008   7.382   2.258   7.492 -0.7800 -0.1811  0.0257
   67MOL    H3716009   7.525   2.359   7.507  0.9995  2.7725 -1.7559
   67MOL    C3816010   7.006   2.522   7.376 -0.3627 -0.0711  0.1823
   67MOL    C3916011   6.883   2.624   7.394  0.0901  0.5386 -0.5387
   67MOL    O4016012   6.941   2.748   7.371  0.5424  0.5786 -0.2358
   67MOL    C4116013   6.899   2.861   7.433  0.0744  0.8929  0.5999
   67MOL    C4216014   6.982   2.978   7.392 -0.3774 -0.4023 -0.9476
   67MOL    O4316015   6.809   2.877   7.511  0.5614  0.0374 -0.0188
   67MOL    H4416016   7.046   2.534   7.275  1.2890 -1.7979  0.5964
   67MOL    H4516017   6.973   2.419   7.384 -2.5000  0.5658 -0.1848
   67MOL    H4616018   6.838   2.614   7.493  0.0799 -0.5039 -0.6425
   67MOL    H4716019   7.016   2.974   7.288  2.3406 -0.4388 -0.0830
   67MOL    H4816020   7.075   2.979   7.449 -1.8151  1.2135  1.4318
   67MOL    H4916021   6.913   3.059   7.415  1.2078 -0.0850  2.9972
   67MOL    C5016022   6.778   2.600   7.279 -0.2247 -0.1162  0.2612
   67MOL    C5116023   6.649   2.672   7.287  0.1430 -0.9329 -0.7590
   67MOL    O5216024   6.573   2.663   7.167  0.0006 -0.1569  0.4957
   67MOL    C5316025   6.497   2.762   7.112 -0.1695  0.1670  0.6192
   67MOL    C5416026   6.444   2.717   6.977  0.2742  0.1493  0.0060
   67MOL    O5516027   6.459   2.861   7.169 -0.3947  0.3281  0.4998
   67MOL    H5616028   6.824   2.622   7.182 -0.1956 -0.3033  0.2324
   67MOL    H5716029   6.747   2.496   7.272 -0.8125  0.0398  0.5444
   67MOL    H5816030   6.679   2.776   7.300 -0.9836 -0.7528  0.5289
   67MOL    H5916031   6.514   2.660   6.916 -1.2113 -0.6596 -0.9482
   67MOL    H6016032   6.408   2.810   6.933  1.1767 -0.6224 -2.4278
   67MOL    H6116033   6.359   2.650   6.981 -1.4121  2.1721 -0.9308
   67MOL    C6216034   6.553   2.631   7.409  0.2717 -0.1300 -0.1403
   67MOL    C6316035   6.515   2.480   7.418 -0.2598 -0.0690 -0.8104
   67MOL    O6416036   6.619   2.411   7.486 -0.1885  0.2042  0.7337
   67MOL    C6516037   6.646   2.284   7.425  0.8106 -0.2051  0.6011
   67MOL    C6616038   6.752   2.211   7.493 -0.5600  0.1341  0.1572
   67MOL    O6716039   6.604   2.229   7.329 -0.1785 -0.6010  0.4561
   67MOL    H6816040   6.604   2.656   7.502  1.1976 -1.7180 -0.1911
   67MOL    H6916041   6.465   2.693   7.393 -0.8181 -1.6361 -0.1564
   67MOL    H7016042   6.502   2.443   7.316  0.4061  0.2332 -1.0016
   67MOL    H7116043   6.781   2.260   7.586  0.3140  0.2381 -0.1613
   67MOL    H7216044   6.836   2.210   7.424 -0.7270  0.3555 -0.0505
   67MOL    H7316045   6.720   2.110   7.518 -0.4578  0.0858  0.0877
   67MOL    C7416046   6.379   2.454   7.503  0.4810  0.5876 -0.7495
   67MOL    C7516047   6.315   2.310   7.468  0.8851 -0.2943 -0.1303
   67MOL    O7616048   6.209   2.283   7.550  0.1968 -0.2632 -0.1070
   67MOL    C7716049   6.170   2.165   7.598 -0.1734  0.4340  0.0349
   67MOL    C7816050   6.034   2.153   7.657 -0.7191  0.2800  0.0613
   67MOL    O7916051   6.239   2.066   7.593 -0.0729 -0.6739  0.3201
   67MOL    H8016052   6.396   2.449   7.610 -2.2581 -0.4860 -0.3150
   67MOL    H8116053   6.303   2.530   7.483 -1.4785 -0.7652  1.2465
   67MOL    H8216054   6.391   2.232   7.476  0.3833 -0.8006 -0.2937
   67MOL    H8316055   5.978   2.246   7.643 -2.4017 -0.7009  0.1343
   67MOL    H8416056   6.043   2.141   7.765 -3.1172  0.2388  0.2897
   67MOL    H8516057   5.986   2.070   7.606 -2.0909  1.3030 -0.3517
   67MOL    C8616058   6.268   2.292   7.321 -0.0859  0.5934 -0.0466
   67MOL    C8716059   6.151   2.377   7.266  0.3654  0.2620  0.4033
   67MOL    O8816060   6.178   2.518   7.265 -0.0495 -0.1828 -0.1480
   67MOL    C8916061   6.098   2.608   7.320 -0.0112  0.3889 -0.4229
   67MOL    C9016062   6.153   2.745   7.322 -0.7903 -0.0971 -0.0254
   67MOL    O9116063   5.987   2.593   7.372 -0.5505 -0.5923 -0.3441
   67MOL    H9216064   6.364   2.300   7.270 -0.0516 -1.7622 -0.3835
   67MOL    H9316065   6.235   2.188   7.314  2.9579 -0.4409  0.1615
   67MOL    H9416066   6.062   2.362   7.327  0.4149 -0.8316  0.2208
   67MOL    H9516067   6.259   2.731   7.302 -0.2575 -0.5538  2.9619
   67MOL    H9616068   6.141   2.791   7.420 -1.4901 -1.0748  0.3522
   67MOL    H9716069   6.107   2.809   7.246 -0.7822 -0.0216  0.0337
   67MOL    C9816070   6.107   2.336   7.123  0.0834 -0.1095 -0.3875
   67MOL    C9916071   6.195   2.346   6.996  0.7771  0.1963 -0.1513
   67MOL   O10016072   6.307   2.262   7.016 -0.1197 -0.1935 -0.5125
   67MOL   C10116073   6.428   2.294   6.997 -0.2245 -0.2278  0.9078
   67MOL   C10216074   6.527   2.186   7.028  0.5662  0.1116  0.3199
   67MOL   O10316075   6.465   2.400   6.946 -0.4232  0.5239 -0.4649
   67MOL   H10416076   6.073   2.233   7.135 -4.8674  1.3393 -1.1332
   67MOL   H10516077   6.010   2.379   7.098  0.1910 -0.5914 -1.7054
   67MOL   H10616078   6.221   2.452   6.992 -0.2772  0.6367  2.8028
   67MOL   H10716079   6.629   2.224   7.018 -0.1702  1.5831 -1.9291
   67MOL   H10816080   6.528   2.109   6.951  1.6023  0.6971 -0.2668
   67MOL   H10916081   6.519   2.144   7.129  0.1273 -2.3361 -0.7011
   67MOL   C11016082   6.115   2.315   6.874  0.0923 -0.1486 -0.4084
   67MOL   C11116083   6.152   2.400   6.750  0.1544  0.2973 -0.3662
   67MOL   O11216084   6.228   2.310   6.665 -0.0271  0.4066 -0.1952
   67MOL   C11316085   6.343   2.337   6.613  0.4419 -0.3393 -0.7973
   67MOL   C11416086   6.402   2.217   6.538  0.1121 -0.5195 -0.1944
   67MOL   O11516087   6.397   2.445   6.625  0.4020 -0.5329  0.4732
   67MOL   H11616088   6.120   2.211   6.840  2.0353 -1.0015  2.3011
   67MOL   H11716089   6.010   2.340   6.890  0.5087  2.1077 -1.0829
   67MOL   H11816090   6.204   2.488   6.790  1.4243 -0.3337 -0.5958
   67MOL   H11916091   6.320   2.150   6.511 -0.7599  0.6872 -0.5364
   67MOL   H12016092   6.486   2.165   6.584  1.0532 -0.1715 -1.4892
   67MOL   H12116093   6.450   2.250   6.446  0.3992 -1.1393 -0.2780
   67MOL   C12216094   6.030   2.461   6.669 -0.0042 -0.1718 -1.0824
   67MOL   C12316095   5.952   2.364   6.586 -0.3861 -0.4797  0.3165
   67MOL   O12416096   5.813   2.392   6.616  0.1400 -0.2018 -0.3631
   67MOL   C12516097   5.719   2.291   6.633  0.6243  0.1437  0.6732
   67MOL   C12616098   5.582   2.332   6.671  0.4035  0.0052  0.4320
   67MOL   O12716099   5.742   2.169   6.627 -0.5031  0.0794 -0.3678
   67MOL   H12816100   5.963   2.511   6.740  0.7997  1.0679 -1.1749
   67MOL   H12916101   6.065   2.545   6.609  0.2669  1.5464  1.4247
   67MOL   H13016102   5.979   2.263   6.617  0.4783 -0.1662  0.5993
   67MOL   H13116103   5.571   2.330   6.779 -1.2581  0.2071  0.2745
   67MOL   H13216104   5.504   2.277   6.618 -0.2494  1.0336  0.3186
   67MOL   H13316105   5.571   2.439   6.656 -0.1479 -0.0088  0.7188
   67MOL   C13416106   5.986   2.393   6.436  0.2421 -0.8045 -0.5433
   67MOL   C13516107   5.892   2.311   6.339 -0.8217  0.0415 -0.1054
   67MOL   O13616108   5.889   2.378   6.214  0.1538 -0.1524 -0.4789
   67MOL   C13716109   5.797   2.477   6.193  0.2883  0.1280 -0.5670
   67MOL   C13816110   5.806   2.551   6.059 -0.2578  0.3628  0.1763
   67MOL   O13916111   5.701   2.504   6.268 -0.0789  0.0547 -0.6181
   67MOL   H14016112   5.951   2.494   6.417  0.2493 -0.2578  2.1306
   67MOL   H14116113   6.091   2.385   6.408  0.8341  0.8081  1.1241
   67MOL   H14216114   5.793   2.307   6.384 -0.1423 -2.8993  1.2652
   67MOL   H14316115   5.847   2.650   6.075  3.0328 -0.8506 -0.4566
   67MOL   H14416116   5.706   2.546   6.015 -0.1609 -2.2638  0.1423
   67MOL   H14516117   5.874   2.488   6.002  2.4614  2.7017  0.7636
   67MOL   C14616118   5.947   2.173   6.315  0.4879 -0.2351 -0.9904
   67MOL   C14716119   5.850   2.079   6.234  0.7142  0.0003  0.3694
   67MOL   O14816120   5.844   2.118   6.098 -0.2281 -0.1628 -0.1377
   67MOL   C14916121   5.724   2.134   6.021 -0.5259  0.7472 -0.2818
   67MOL   C15016122   5.748   2.211   5.891  0.0280 -0.8564 -0.3505
   67MOL   O15116123   5.616   2.089   6.049  0.4060  0.1585  0.0255
   67MOL   H15216124   6.049   2.185   6.278 -0.5410  2.2499 -3.1206
   67MOL   H15316125   5.949   2.129   6.415 -2.3327  1.6700 -0.0649
   67MOL   H15416126   5.753   2.103   6.280  0.0413  1.2045 -1.6029
   67MOL   H15516127   5.817   2.163   5.821  0.3591  0.3988 -0.9007
   67MOL   H15616128   5.816   2.293   5.912 -1.1570 -0.2063  1.0858
   67MOL   H15716129   5.659   2.255   5.844  1.1606  0.8643 -0.9101
   67MOL   C15816130   5.888   1.931   6.248 -0.4658 -0.3467  0.5279
   67MOL   C15916131   5.786   1.814   6.216  0.6693 -0.6064 -0.1195
   67MOL   O16016132   5.847   1.690   6.264  0.2585  0.2353  0.5078
   67MOL   C16116133   5.948   1.634   6.187 -0.6335  0.2171 -0.0211
   67MOL   C16216134   5.991   1.491   6.220  0.0764 -0.2092 -0.5839
   67MOL   O16316135   5.998   1.688   6.092 -0.1920 -0.2851  0.0537
   67MOL   H16416136   5.971   1.921   6.178 -0.1960 -1.3132  0.9778
   67MOL   H16516137   5.928   1.916   6.349  1.4960 -1.9935 -0.4428
   67MOL   H16616138   5.764   1.812   6.110  1.6063 -1.3742 -0.3108
   67MOL   H16716139   6.092   1.492   6.262 -0.6407 -0.2678  1.2083
   67MOL   H16816140   5.993   1.436   6.127  0.8028  1.2477 -1.4606
   67MOL   H16916141   5.926   1.435   6.287  0.8261 -0.2605  0.1103
   67MOL   C17016142   5.655   1.831   6.301  0.7687  0.1985 -0.6340
   67MOL   C17116143   5.531   1.746   6.257  0.1664  0.5045 -0.4474
   67MOL   O17216144   5.539   1.613   6.303 -0.5529 -1.0480  0.7165
   67MOL   C17316145   5.524   1.505   6.226  0.3611 -0.1194  0.3027
   67MOL   C17416146   5.534   1.376   6.303  0.1825  0.3109 -0.9087
   67MOL   O17516147   5.497   1.506   6.102 -0.6497 -0.4952 -0.0775
   67MOL   H17616148   5.676   1.814   6.407 -3.6634  0.7820  0.4532
   67MOL   H17716149   5.621   1.934   6.292 -0.4181 -0.0931  0.3467
   67MOL   H17816150   5.512   1.747   6.150 -2.1534 -0.5287 -0.0733
   67MOL   H17916151   5.542   1.389   6.411 -0.6225 -2.1457 -0.5157
   67MOL   H18016152   5.631   1.341   6.269 -0.0448  0.0000 -1.2444
   67MOL   H18116153   5.454   1.304   6.286  0.5768  0.0185 -1.5058
   67MOL   C18216154   5.407   1.823   6.324  0.3170  0.1429  0.0401
   67MOL   C18316155   5.274   1.756   6.303  0.3471  0.3524 -0.1997
   67MOL   O18416156   5.263   1.673   6.419 -0.2458  0.3516  0.1418
   67MOL   C18516157   5.216   1.551   6.410 -0.6312 -0.2549 -0.2738
   67MOL   C18616158   5.250   1.465   6.532  0.2008  0.1458 -0.0360
   67MOL   O18716159   5.145   1.507   6.319 -0.0451  0.2581 -0.2049
   67MOL   H18816160   5.416   1.836   6.432  0.1958 -1.0280  0.1923
   67MOL   H18916161   5.412   1.918   6.270 -0.1280  0.0890 -0.0997
   67MOL   H19016162   5.275   1.692   6.214  1.0436  0.6395 -0.4052
   67MOL   H19116163   5.295   1.528   6.609 -0.1971  0.3611  0.0219
   67MOL   H19216164   5.318   1.390   6.492  0.5072  0.0857  0.5834
   67MOL   H19316165   5.158   1.421   6.570  0.1994  0.1747 -0.0051
   67MOL   C19416166   5.158   1.855   6.315  0.3140 -0.2377 -0.1271
   67MOL   C19516167   5.137   1.949   6.194 -0.0287  0.0914 -0.2305
   67MOL   O19616168   5.097   1.876   6.073 -0.1114  0.7390  0.0006
   67MOL   C19716169   5.186   1.860   5.971 -0.1825 -0.4064  0.3780
   67MOL   C19816170   5.134   1.788   5.848  0.4224  0.3814  0.4150
   67MOL   O19916171   5.308   1.897   5.975 -0.1665  0.5045  0.3002
   67MOL   H20016172   5.067   1.798   6.334  0.5334 -0.3264  0.6673
   67MOL   H20116173   5.179   1.918   6.402  0.6262  1.3521 -1.3364
   67MOL   H20216174   5.235   1.996   6.187 -0.4679  0.9143 -0.9633
   67MOL   H20316175   5.027   1.805   5.853  0.2652 -0.4710  0.1224
   67MOL   H20416176   5.153   1.682   5.864  2.4457  0.5728 -0.5552
   67MOL   H20516177   5.181   1.829   5.758  0.2674  0.2476  0.2725
   67MOL   C20616178   5.036   2.064   6.212  0.8336 -0.6353 -0.2069
   67MOL   C20716179   5.073   2.170   6.325  0.3503  0.3822 -0.2841
   67MOL   O20816180   5.177   2.255   6.263  0.6948  0.3398  0.0052
   67MOL   C20916181   5.300   2.231   6.301 -0.5156  0.2096  0.6052
   67MOL   C21016182   5.416   2.305   6.237 -0.5319 -0.4776 -0.3019
   67MOL   O21116183   5.338   2.140   6.376  0.0206 -0.2920  0.1665
   67MOL   H21216184   5.034   2.114   6.116  0.8798 -2.4584 -1.1786
   67MOL   H21316185   4.933   2.034   6.229  0.1592  1.6336 -0.1408
   67MOL   H21416186   5.097   2.116   6.416 -0.1054 -0.1696 -0.4870
   67MOL   H21516187   5.506   2.274   6.291 -1.1709 -0.1274  0.9869
   67MOL   H21616188   5.397   2.412   6.251 -0.4963 -0.7218  1.9009
   67MOL   H21716189   5.433   2.282   6.132 -2.9029 -2.2034 -0.3418
   67MOL   C21816190   4.966   2.273   6.359  0.1188 -0.5212 -0.0803
   67MOL   C21916191   4.831   2.225   6.427 -0.3794  0.5433  0.6665
   67MOL   O22016192   4.853   2.147   6.544  0.2273  0.4262 -0.3154
   67MOL   C22116193   4.826   2.020   6.550 -0.3078  0.0551  0.3969
   67MOL   C22216194   4.852   1.956   6.687  0.3323 -0.3511 -0.1208
   67MOL   O22316195   4.775   1.949   6.463  0.4951  0.3103 -0.2316
   67MOL   H22416196   5.010   2.344   6.429  1.6823 -1.4681 -0.0946
   67MOL   H22516197   4.942   2.328   6.268  1.8405 -0.4507 -0.4990
   67MOL   H22616198   4.765   2.176   6.356 -0.8549 -0.4854  1.7872
   67MOL   H22716199   4.914   2.020   6.749 -1.4429  2.2442 -0.9128
   67MOL   H22816200   4.899   1.862   6.658 -0.4819 -1.6470  2.5848
   67MOL   H22916201   4.767   1.921   6.745 -0.0783 -2.3464 -1.8674
   67MOL   C23016202   4.742   2.348   6.475  0.2924  0.1088 -0.1619
   67MOL   C23116203   4.636   2.372   6.374  0.1327  0.5455 -0.8178
   67MOL   O23216204   4.704   2.438   6.271  0.5039  0.3960 -0.1400
   67MOL   C23316205   4.659   2.438   6.148 -0.4693  0.3245 -0.2082
   67MOL   C23416206   4.751   2.495   6.047 -0.8624 -0.1299  0.0415
   67MOL   O23516207   4.546   2.392   6.112 -0.3099 -0.4740 -0.7978
   67MOL   H23616208   4.709   2.324   6.576  2.0180 -2.5539 -0.1730
   67MOL   H23716209   4.793   2.442   6.492  0.9191 -0.2615  0.0102
   67MOL   H23816210   4.555   2.431   6.417  1.3279  0.4552  1.6904
   67MOL   H23916211   4.736   2.448   5.950 -1.2328  1.0133 -0.4730
   67MOL   H24016212   4.856   2.474   6.062 -0.0395  3.0700 -0.8176
   67MOL   H24116213   4.727   2.601   6.039 -0.0734 -0.1427 -2.9217
   67MOL   H24216214   4.577   2.283   6.352 -0.5282  0.5200  0.9348
   68MOL     C116215   4.088   0.402   1.444  0.8061 -0.2419  0.4263
   68MOL     C216216   4.102   0.264   1.380 -0.3336  0.1347 -0.7028
   68MOL     O316217   4.189   0.282   1.273 -0.5756 -0.5035 -0.4469
   68MOL     C416218   4.198   0.204   1.170  0.3931 -0.1777  0.0621
   68MOL     C516219   4.315   0.230   1.078  0.2407 -0.7042  0.2157
   68MOL     O616220   4.104   0.135   1.136  0.2681  0.0380 -0.3156
   68MOL     H716221   4.047   0.402   1.546  0.2593 -0.2707  0.2108
   68MOL     H816222   4.029   0.463   1.375  0.3343 -0.3582  0.7189
   68MOL     H916223   4.004   0.233   1.344 -0.8978  1.3846 -0.2572
   68MOL    H1016224   4.274   0.195   0.984 -3.7627 -1.8694  2.2873
   68MOL    H1116225   4.405   0.174   1.103  0.5714 -1.6382 -2.8553
   68MOL    H1216226   4.338   0.333   1.050 -2.0756 -0.5915 -1.3455
   68MOL    H1316227   4.183   0.451   1.461  0.2097  1.2365 -0.4603
   68MOL    C1416228   4.173   0.157   1.467  0.0287 -0.4496 -0.3347
   68MOL    C1516229   4.102   0.143   1.608 -0.4205  0.7648 -0.7366
   68MOL    O1616230   3.966   0.112   1.577 -0.3017  0.4811  0.5407
   68MOL    C1716231   3.864   0.149   1.659 -0.3433 -0.1634 -0.1405
   68MOL    C1816232   3.725   0.117   1.611  0.5685  0.2891  0.6314
   68MOL    O1916233   3.877   0.207   1.768 -0.8159  0.3388 -0.0329
   68MOL    H2016234   4.179   0.062   1.414 -0.3387 -0.5549 -0.1875
   68MOL    H2116235   4.273   0.199   1.479 -0.2423  0.3092 -0.6959
   68MOL    H2216236   4.117   0.240   1.656 -1.6105  0.3615  0.4769
   68MOL    H2316237   3.684   0.184   1.535  1.9367 -0.2120 -0.5540
   68MOL    H2416238   3.650   0.104   1.689 -0.7925  1.2834 -0.4727
   68MOL    H2516239   3.720   0.023   1.556 -0.7279  0.0753  1.0914
   68MOL    C2616240   4.167   0.031   1.693 -0.3796 -0.4622 -0.6605
   68MOL    C2716241   4.307   0.054   1.747 -0.1720 -0.4377  0.8087
   68MOL    O2816242   4.296   0.168   1.831  0.3111 -0.0213  0.5185
   68MOL    C2916243   4.391   0.257   1.831 -0.2294  0.4975 -0.2602
   68MOL    C3016244   4.357   0.388   1.910  0.4054  0.0291 -0.5497
   68MOL    O3116245   4.494   0.249   1.768 -0.6991 -0.9605  0.1014
   68MOL    H3216246   4.104   8.020   1.776 -0.5147 -0.8636 -0.9148
   68MOL    H3316247   4.169   7.964   1.628  0.4744  0.9530 -2.6226
   68MOL    H3416248   4.360   0.074   1.654 -0.4937 -1.4737  0.3921
   68MOL    H3516249   4.404   0.474   1.862 -2.0491  1.5269 -0.3245
   68MOL    H3616250   4.387   0.388   2.015 -0.9779  2.2643 -0.1245
   68MOL    H3716251   4.254   0.421   1.899  1.0019  2.0873 -0.2139
   68MOL    C3816252   4.351   7.949   1.820 -0.4345  0.1489  0.2185
   68MOL    C3916253   4.502   7.948   1.852 -0.0328  0.4717  0.4631
   68MOL    O4016254   4.543   7.835   1.924 -0.5518  0.1454  0.2813
   68MOL    C4116255   4.648   7.847   2.006  0.4377  0.3387  0.3328
   68MOL    C4216256   4.672   7.720   2.094 -0.5132  0.0917 -0.7020
   68MOL    O4316257   4.713   7.948   2.024  0.0821  0.6770 -0.0297
   68MOL    H4416258   4.303   7.936   1.917  0.5525  2.4366  1.0411
   68MOL    H4516259   4.332   7.855   1.768 -1.2569 -0.2712  1.2487
   68MOL    H4616260   4.522   0.014   1.914  0.4412  2.0882 -1.9193
   68MOL    H4716261   4.684   7.749   2.198  2.0415 -0.9689 -0.6623
   68MOL    H4816262   4.767   7.667   2.084 -1.7414 -2.2412 -0.5474
   68MOL    H4916263   4.586   7.652   2.092 -2.9386  3.0701 -1.1023
   68MOL    C5016264   4.596   7.959   1.728 -0.2874 -0.2238  0.0894
   68MOL    C5116265   4.571   7.846   1.620  0.4669  0.4120 -1.2511
   68MOL    O5216266   4.644   7.883   1.507 -0.2120  0.1765  0.8325
   68MOL    C5316267   4.580   7.923   1.395 -0.2210 -0.1321 -0.2555
   68MOL    C5416268   4.673   7.951   1.276  0.1117 -0.6557 -0.1857
   68MOL    O5516269   4.458   7.949   1.389 -0.3004 -0.0344  0.4576
   68MOL    H5616270   4.590   0.039   1.689  1.0833 -0.3857 -0.5844
   68MOL    H5716271   4.699   7.939   1.760 -0.4416 -0.4372  0.4622
   68MOL    H5816272   4.466   7.832   1.592  0.5102  0.2213 -1.3153
   68MOL    H5916273   4.607   7.957   1.190  1.3706  2.2315 -1.0064
   68MOL    H6016274   4.747   7.870   1.269  1.0384  0.0902  0.7883
   68MOL    H6116275   4.723   0.027   1.274 -3.1176  1.0462 -1.8208
   68MOL    C6216276   4.626   7.709   1.655 -0.4046  0.2894  0.1377
   68MOL    C6316277   4.578   7.600   1.552  0.7687  0.1201 -0.4700
   68MOL    O6416278   4.675   7.491   1.568  0.3761 -0.0360  0.1252
   68MOL    C6516279   4.793   7.494   1.498  0.9558  0.1958  0.0824
   68MOL    C6616280   4.875   7.370   1.525  0.3746 -0.5874 -0.9010
   68MOL    O6716281   4.830   7.576   1.411 -0.0008 -0.2064 -0.1255
   68MOL    H6816282   4.735   7.706   1.643 -0.4309 -1.0879  0.1673
   68MOL    H6916283   4.608   7.665   1.753  1.8875 -0.9388  0.0530
   68MOL    H7016284   4.589   7.634   1.449 -0.7266 -1.1791 -1.0737
   68MOL    H7116285   4.825   7.275   1.507 -1.0914 -0.0671  0.2857
   68MOL    H7216286   4.903   7.380   1.630  2.8356  0.2650 -1.6011
   68MOL    H7316287   4.963   7.369   1.462  0.5976  0.0268 -0.6030
   68MOL    C7416288   4.436   7.541   1.578  0.0046  0.5847 -0.0162
   68MOL    C7516289   4.407   7.414   1.496  0.6286  0.3898 -0.2319
   68MOL    O7616290   4.348   7.312   1.589 -0.2787 -0.0224  0.2214
   68MOL    C7716291   4.379   7.182   1.578 -0.6478 -0.1498 -0.8569
   68MOL    C7816292   4.311   7.095   1.683  0.1887  0.4088  0.4881
   68MOL    O7916293   4.467   7.135   1.501 -0.1443 -0.2420  0.2077
   68MOL    H8016294   4.417   7.539   1.686 -2.2217  0.6850 -0.3829
   68MOL    H8116295   4.371   7.622   1.544  0.2690  0.0908 -1.7301
   68MOL    H8216296   4.494   7.367   1.451 -0.9370 -1.8553 -1.0246
   68MOL    H8316297   4.219   7.135   1.724 -1.3773 -0.8433 -1.7037
   68MOL    H8416298   4.388   7.090   1.760  0.4668  0.5178  0.2210
   68MOL    H8516299   4.297   6.994   1.645  1.1016  0.9614 -1.4018
   68MOL    C8616300   4.295   7.431   1.395 -0.5212  0.1178  0.4013
   68MOL    C8716301   4.316   7.522   1.265  0.2638  0.0318 -0.5711
   68MOL    O8816302   4.283   7.659   1.309 -0.7641  0.2077  0.1895
   68MOL    C8916303   4.157   7.706   1.299  0.0821  0.3200  0.1915
   68MOL    C9016304   4.135   7.850   1.356  0.4186  0.4111  0.1998
   68MOL    O9116305   4.064   7.646   1.246 -0.5530 -0.4645  0.2073
   68MOL    H9216306   4.289   7.331   1.351  1.4241  0.1733 -0.0349
   68MOL    H9316307   4.201   7.454   1.445  0.0788 -0.0184  1.6074
   68MOL    H9416308   4.251   7.484   1.186 -2.7413  1.2580  1.2487
   68MOL    H9516309   4.201   7.852   1.443 -1.7618  0.3937  1.9096
   68MOL    H9616310   4.029   7.860   1.383  0.4888  0.2979  0.5241
   68MOL    H9716311   4.166   7.916   1.275  3.1826 -0.3721  0.5684
   68MOL    C9816312   4.459   7.507   1.204 -0.1910 -0.1498  0.0614
   68MOL    C9916313   4.471   7.566   1.058  0.0140 -0.4116  0.3819
   68MOL   O10016314   4.449   7.706   1.065  0.1769 -0.0964  0.1904
   68MOL   C10116315   4.368   7.758   0.970 -0.5018 -0.4997 -0.3873
   68MOL   C10216316   4.368   7.913   0.977 -0.2083 -0.8491 -0.3684
   68MOL   O10316317   4.303   7.698   0.884  0.0312 -0.3320 -0.1097
   68MOL   H10416318   4.539   7.538   1.271 -0.2516 -0.2624  0.1882
   68MOL   H10516319   4.474   7.399   1.193 -2.5251 -0.6074  0.9063
   68MOL   H10616320   4.397   7.526   0.988 -0.2051  2.5505 -1.1962
   68MOL   H10716321   4.296   7.939   1.054  0.5663  0.9318 -0.2187
   68MOL   H10816322   4.337   7.951   0.879 -0.1142  0.8420  0.2389
   68MOL   H10916323   4.463   7.961   0.999 -1.5066  2.0631 -0.8020
   68MOL   C11016324   4.616   7.554   0.991  0.2319 -0.2732  0.1129
   68MOL   C11116325   4.623   7.416   0.918  0.4467 -0.4129  0.4357
   68MOL   O11216326   4.560   7.437   0.795  0.0273 -0.2826 -0.2661
   68MOL   C11316327   4.488   7.337   0.744 -0.4879  0.5572  0.2533
   68MOL   C11416328   4.388   7.388   0.644 -0.2542 -0.1874 -0.1344
   68MOL   O11516329   4.499   7.218   0.778  0.4156  0.0264  0.2408
   68MOL   H11616330   4.627   7.639   0.923  1.6439 -0.6520 -0.1514
   68MOL   H11716331   4.702   7.573   1.055  0.0472 -0.8829  0.5482
   68MOL   H11816332   4.582   7.334   0.976  3.1707  0.7202  4.0839
   68MOL   H11916333   4.338   7.304   0.595 -1.8582  1.1874 -0.8892
   68MOL   H12016334   4.433   7.460   0.576  2.6900 -0.9217  0.9517
   68MOL   H12116335   4.319   7.443   0.708 -1.2814 -0.1900 -1.2196
   68MOL   C12216336   4.767   7.379   0.893  0.6432  0.5981 -0.2197
   68MOL   C12316337   4.838   7.341   1.018 -0.4459 -0.2591 -0.5791
   68MOL   O12416338   4.775   7.225   1.073  0.2471  0.0606 -0.5799
   68MOL   C12516339   4.728   7.219   1.196  0.1079 -0.1732  0.8748
   68MOL   C12616340   4.654   7.082   1.226  0.2755  0.0686  0.2954
   68MOL   O12716341   4.732   7.310   1.278 -0.6042 -0.0088  0.2427
   68MOL   H12816342   4.778   7.302   0.817  2.1254  0.1974  0.3932
   68MOL   H12916343   4.816   7.466   0.849  1.9244 -0.1331 -0.2549
   68MOL   H13016344   4.841   7.423   1.090  0.3553 -1.3988  0.7110
   68MOL   H13116345   4.580   7.097   1.304 -0.9540  1.3836 -1.0928
   68MOL   H13216346   4.714   7.001   1.266 -1.0273 -0.3856  1.3504
   68MOL   H13316347   4.603   7.041   1.139  2.5934 -0.6328 -0.7927
   68MOL   C13416348   4.977   7.299   0.983  0.5569  0.1141 -0.2312
   68MOL   C13516349   5.058   7.397   0.900 -0.2569 -0.1259 -0.0598
   68MOL   O13616350   5.056   7.508   0.985 -0.3255 -0.4543 -0.2789
   68MOL   C13716351   5.057   7.637   0.940 -0.5063 -0.0922 -0.6726
   68MOL   C13816352   5.024   7.743   1.047 -0.3941 -0.4246  0.2380
   68MOL   O13916353   5.080   7.664   0.819  0.5291 -0.1033 -0.2448
   68MOL   H14016354   5.039   7.277   1.070 -0.0957 -0.6032  0.0560
   68MOL   H14116355   4.968   7.206   0.926 -1.2084  1.1670 -1.7268
   68MOL   H14216356   5.020   7.411   0.798  1.5253 -1.0056 -0.8657
   68MOL   H14316357   5.092   7.760   1.131  1.5914  1.6725 -1.7256
   68MOL   H14416358   4.918   7.736   1.069 -0.8141  0.2611 -1.5369
   68MOL   H14516359   5.036   7.842   1.003  0.5833 -0.6567 -0.0271
   68MOL   C14616360   5.212   7.351   0.881  0.2929 -0.2896  0.3588
   68MOL   C14716361   5.224   7.220   0.799  0.3443 -0.0011 -0.3884
   68MOL   O14816362   5.178   7.249   0.673  0.0270 -0.2180 -0.1227
   68MOL   C14916363   5.086   7.180   0.611  0.0873  0.6578  0.2819
   68MOL   C15016364   5.051   7.236   0.479  1.0301 -0.4521 -0.2380
   68MOL   O15116365   5.040   7.068   0.651  0.1007 -0.1924 -0.4651
   68MOL   H15216366   5.261   7.428   0.821  0.1863 -0.4249  0.0970
   68MOL   H15316367   5.259   7.338   0.979 -2.5703 -1.5215  1.6239
   68MOL   H15416368   5.162   7.152   0.858  0.8828 -1.7758 -1.8265
   68MOL   H15516369   5.147   7.250   0.430  0.0005  0.7677 -1.9770
   68MOL   H15616370   4.987   7.323   0.495 -0.1740 -1.3185 -0.3252
   68MOL   H15716371   5.003   7.157   0.421 -0.7947  0.0512  0.5428
   68MOL   C15816372   5.373   7.180   0.810  0.0162  0.1262  0.4914
   68MOL   C15916373   5.414   7.045   0.748 -0.7030  0.3354  0.0088
   68MOL   O16016374   5.550   7.007   0.762  0.0399  0.2499 -0.6951
   68MOL   C16116375   5.608   6.950   0.661  0.0895 -0.1902  0.0043
   68MOL   C16216376   5.745   6.898   0.694  0.4024  0.5774 -0.2545
   68MOL   O16316377   5.564   6.942   0.550 -0.0314 -0.1370  0.6853
   68MOL   H16416378   5.429   7.262   0.765  1.2721 -1.4672 -0.9257
   68MOL   H16516379   5.406   7.181   0.914 -0.8004  0.2315  0.7535
   68MOL   H16616380   5.403   7.058   0.640  0.1430 -2.7158 -0.4886
   68MOL   H16716381   5.772   6.934   0.793 -0.2498 -1.0067  0.5196
   68MOL   H16816382   5.828   6.912   0.624  0.3324  0.0449 -0.4511
   68MOL   H16916383   5.726   6.790   0.695  3.0061  0.0634 -0.8505
   68MOL   C17016384   5.330   6.924   0.787  0.5918 -0.6045  0.6066
   68MOL   C17116385   5.317   6.914   0.935 -0.4077 -0.1461  0.2392
   68MOL   O17216386   5.225   6.809   0.964  0.6874 -0.0194 -0.1333
   68MOL   C17316387   5.103   6.841   1.030  0.0586 -0.2014  0.3631
   68MOL   C17416388   5.020   6.722   1.083 -0.2096  0.0587 -0.0991
   68MOL   O17516389   5.052   6.955   1.042 -0.7084 -0.5774 -0.1252
   68MOL   H17616390   5.225   6.928   0.757  0.7194  2.1768  0.4578
   68MOL   H17716391   5.376   6.835   0.744  0.5233  0.0328 -0.7908
   68MOL   H17816392   5.276   7.008   0.972  0.6833  0.2901  0.3356
   68MOL   H17916393   5.082   6.634   1.097  0.2360  0.2540 -0.8278
   68MOL   H18016394   4.942   6.691   1.014  2.3971 -2.3211 -2.1108
   68MOL   H18116395   4.991   6.751   1.184 -0.1581  0.7314 -0.2726
   68MOL   C18216396   5.450   6.886   1.017 -0.1935  0.4393  0.2807
   68MOL   C18316397   5.433   6.880   1.169 -0.1304  0.0892 -0.1350
   68MOL   O18416398   5.554   6.858   1.241  0.2697  0.2723 -0.2460
   68MOL   C18516399   5.616   6.741   1.246  0.3537 -0.2298  0.0808
   68MOL   C18616400   5.736   6.739   1.348 -0.2762  0.2072  0.3539
   68MOL   O18716401   5.585   6.645   1.175  0.0986 -0.1144  0.6137
   68MOL   H18816402   5.493   6.791   0.985 -0.7689 -0.2464  1.4837
   68MOL   H18916403   5.523   6.964   0.997  0.1166  0.1610  0.3226
   68MOL   H19016404   5.367   6.794   1.181 -0.4285  0.0262 -2.0616
   68MOL   H19116405   5.707   6.679   1.434  1.0697 -1.2472 -0.1719
   68MOL   H19216406   5.762   6.844   1.365  0.0722 -0.0982  1.7900
   68MOL   H19316407   5.821   6.690   1.299 -0.7719  1.4171 -1.8002
   68MOL   C19416408   5.373   7.010   1.235  0.5632  0.1572 -0.0888
   68MOL   C19516409   5.302   6.966   1.374 -0.0247  0.4127 -0.0431
   68MOL   O19616410   5.404   6.945   1.473  0.2768  0.1431  0.1677
   68MOL   C19716411   5.383   6.846   1.560  0.1113 -0.1223  0.1632
   68MOL   C19816412   5.513   6.818   1.633 -0.0670  0.0206 -0.1226
   68MOL   O19916413   5.280   6.787   1.582 -0.4405 -0.1782 -0.1895
   68MOL   H20016414   5.430   7.103   1.239  0.2957  0.2538  3.2060
   68MOL   H20116415   5.287   7.042   1.177  0.1306 -1.9530 -0.6599
   68MOL   H20216416   5.247   6.873   1.363  0.3166  0.1685  0.3050
   68MOL   H20316417   5.600   6.838   1.570 -0.4086  1.1564 -0.2466
   68MOL   H20416418   5.518   6.714   1.664 -0.5051 -0.9739 -3.2757
   68MOL   H20516419   5.525   6.878   1.724  0.0755  0.2299 -0.2788
   68MOL   C20616420   5.210   7.077   1.424  0.1195 -0.1799  0.5191
   68MOL   C20716421   5.279   7.212   1.454  0.6471 -0.3151  0.6274
   68MOL   O20816422   5.203   7.323   1.417  0.5525 -0.4439  0.1430
   68MOL   C20916423   5.232   7.392   1.303  0.3885 -0.4695 -0.5983
   68MOL   C21016424   5.148   7.518   1.280 -0.7950  0.2477  0.5379
   68MOL   O21116425   5.322   7.364   1.224 -0.3076 -0.6481  0.2159
   68MOL   H21216426   5.127   7.093   1.356  0.0779  0.4173  0.7059
   68MOL   H21316427   5.171   7.043   1.520  1.7159  1.7042  1.8677
   68MOL   H21416428   5.366   7.212   1.388 -2.9036 -0.2027 -4.3619
   68MOL   H21516429   5.120   7.552   1.380 -0.8131  0.6100  0.4099
   68MOL   H21616430   5.054   7.489   1.233 -1.7540  0.7688  2.1063
   68MOL   H21716431   5.204   7.593   1.224  2.9255 -1.2461  2.0992
   68MOL   C21816432   5.341   7.229   1.603 -0.2387 -0.5427  0.2746
   68MOL   C21916433   5.237   7.228   1.719 -0.0297 -0.0768 -0.4011
   68MOL   O22016434   5.196   7.097   1.747 -0.1703  0.3414  0.3298
   68MOL   C22116435   5.065   7.070   1.771  0.1517 -0.5799 -0.3871
   68MOL   C22216436   5.040   6.913   1.778  0.0507 -0.1235  0.2934
   68MOL   O22316437   4.988   7.161   1.791 -0.4368  0.8226 -0.1785
   68MOL   H22416438   5.423   7.163   1.632  0.3991  0.5201  0.9317
   68MOL   H22516439   5.378   7.331   1.594 -2.1741  0.0275 -1.5224
   68MOL   H22616440   5.155   7.288   1.680 -0.2694  1.0089  1.7183
   68MOL   H22716441   4.933   6.901   1.760  0.0863  1.3994 -1.0934
   68MOL   H22816442   5.067   6.882   1.879 -2.1192  0.1694  1.0132
   68MOL   H22916443   5.088   6.852   1.703  0.6590  2.5303 -1.5618
   68MOL   C23016444   5.295   7.283   1.861 -0.5322  0.5973 -0.7005
   68MOL   C23116445   5.403   7.202   1.935 -0.1085  0.5067 -1.0186
   68MOL   O23216446   5.528   7.216   1.864  1.1400  0.4390 -0.3185
   68MOL   C23316447   5.593   7.328   1.857 -0.5660  0.0171 -0.8800
   68MOL   C23416448   5.710   7.329   1.758 -0.1878 -0.9848  0.3817
   68MOL   O23516449   5.569   7.427   1.921 -0.2578 -0.4460 -0.0463
   68MOL   H23616450   5.329   7.387   1.856  1.8482  0.0167  2.0937
   68MOL   H23716451   5.204   7.299   1.919 -0.0724  0.7978 -0.0182
   68MOL   H23816452   5.380   7.095   1.934 -1.8173  0.8401  0.3120
   68MOL   H23916453   5.807   7.320   1.809 -0.0899  0.7646  0.5594
   68MOL   H24016454   5.725   7.427   1.713 -0.6622 -1.1459 -0.1237
   68MOL   H24116455   5.699   7.247   1.687  1.5835  0.3794 -1.5437
   68MOL   H24216456   5.423   7.239   2.036  2.0385  0.9225 -1.5561
   69MOL     C116457   0.929   5.445   0.280 -0.5213  0.0128  0.0429
   69MOL     C216458   0.936   5.297   0.302 -0.1858  0.1169  0.0266
   69MOL     O316459   1.043   5.247   0.224 -0.6645  0.1862  0.6040
   69MOL     C416460   1.032   5.116   0.180  0.0233  0.2567 -0.1496
   69MOL     C516461   1.158   5.070   0.116 -0.4549 -0.6474 -0.7060
   69MOL     O616462   0.935   5.042   0.188  0.5608  0.6142 -0.4623
   69MOL     H716463   0.905   5.466   0.176 -1.9718  1.7353  0.7127
   69MOL     H816464   1.023   5.488   0.314 -0.9424 -0.3128  1.6430
   69MOL     H916465   0.845   5.256   0.260  1.0051  0.4787 -3.0122
   69MOL    H1016466   1.241   5.137   0.136  0.6927 -2.0202 -0.7742
   69MOL    H1116467   1.141   5.070   0.008  0.3327 -1.5387 -0.8437
   69MOL    H1216468   1.184   4.969   0.149 -0.2946 -0.8611 -1.4672
   69MOL    H1316469   0.851   5.489   0.342  1.0957  0.2692  1.9381
   69MOL    C1416470   0.951   5.271   0.454 -0.4830 -0.0122 -0.2050
   69MOL    C1516471   0.817   5.282   0.543 -1.0765  0.0702  0.5576
   69MOL    O1616472   0.733   5.178   0.501 -0.0059 -0.2975 -0.2772
   69MOL    C1716473   0.632   5.206   0.421  0.9491  0.1049 -0.5177
   69MOL    C1816474   0.560   5.077   0.370  0.0736  0.3717  0.4079
   69MOL    O1916475   0.606   5.318   0.383  0.9171 -0.2277 -0.1434
   69MOL    H2016476   0.984   5.168   0.466  0.4177  0.1439 -1.2783
   69MOL    H2116477   1.024   5.346   0.483  1.8897 -2.3099 -0.1098
   69MOL    H2216478   0.766   5.378   0.546 -1.1396  0.0446  0.3688
   69MOL    H2316479   0.569   4.999   0.446 -0.5174  0.2101  0.3129
   69MOL    H2416480   0.625   5.044   0.289 -3.8760  0.7300 -3.1052
   69MOL    H2516481   0.458   5.074   0.331  0.5668 -0.5268 -0.8463
   69MOL    C2616482   0.862   5.250   0.690 -1.1342  0.4580 -0.2153
   69MOL    C2716483   0.761   5.259   0.808 -0.7892 -0.4845  0.4614
   69MOL    O2816484   0.843   5.241   0.933  0.8158  0.1508 -0.3261
   69MOL    C2916485   0.817   5.131   0.998  0.0865 -0.9551 -0.1010
   69MOL    C3016486   0.897   5.134   1.129  0.8268 -0.1305 -0.4239
   69MOL    O3116487   0.754   5.029   0.956 -0.3555  0.0904 -0.0658
   69MOL    H3216488   0.887   5.144   0.680 -0.5796  0.5536  0.1604
   69MOL    H3316489   0.953   5.308   0.708  0.7880 -2.8553  1.2299
   69MOL    H3416490   0.691   5.175   0.800 -1.5094 -0.0843  2.2327
   69MOL    H3516491   0.885   5.232   1.175  1.4866  1.4738 -3.5601
   69MOL    H3616492   1.002   5.108   1.116  0.6477 -1.2077  0.2072
   69MOL    H3716493   0.846   5.064   1.195  1.8114  1.4419  2.0757
   69MOL    C3816494   0.687   5.395   0.816 -0.1296 -0.2789  0.5062
   69MOL    C3916495   0.545   5.401   0.748  0.5222 -0.0568  0.2795
   69MOL    O4016496   0.463   5.315   0.833 -0.2644  0.0686  0.2790
   69MOL    C4116497   0.419   5.200   0.784  0.5965  0.4849 -0.0846
   69MOL    C4216498   0.320   5.149   0.882 -0.5719 -0.2025  0.0259
   69MOL    O4316499   0.452   5.141   0.682 -0.2822 -0.8859 -0.0352
   69MOL    H4416500   0.674   5.431   0.918 -3.5565  0.9164 -0.2689
   69MOL    H4516501   0.755   5.465   0.769  2.7177 -2.4475  1.2765
   69MOL    H4616502   0.560   5.358   0.649 -3.0774  0.2664 -0.4604
   69MOL    H4716503   0.372   5.101   0.965 -0.9613 -1.3592 -0.3861
   69MOL    H4816504   0.257   5.069   0.843  0.2962  0.2346 -2.3796
   69MOL    H4916505   0.245   5.225   0.906  0.5127  1.4605 -1.7428
   69MOL    C5016506   0.485   5.545   0.730 -0.1893  0.8516 -0.8225
   69MOL    C5116507   0.359   5.533   0.644  0.3055  0.8006 -0.3901
   69MOL    O5216508   0.259   5.626   0.683 -0.6069 -0.1506  0.9179
   69MOL    C5316509   0.149   5.590   0.745  0.4919 -0.0644 -0.1244
   69MOL    C5416510   0.068   5.710   0.785  0.2506 -0.1279 -0.2329
   69MOL    O5516511   0.103   5.476   0.759 -0.2317  0.2475  0.1210
   69MOL    H5616512   0.465   5.584   0.829  0.1952  1.0545 -0.8221
   69MOL    H5716513   0.556   5.613   0.683  1.1741 -1.0599 -1.6133
   69MOL    H5816514   0.326   5.430   0.653  2.2071  0.3931  2.3808
   69MOL    H5916515   0.002   5.756   0.712  0.7307  0.1438 -0.4968
   69MOL    H6016516   0.141   5.774   0.834  1.0845 -1.2492  0.0150
   69MOL    H6116517   8.014   5.678   0.856 -0.0879  0.7687 -0.1836
   69MOL    C6216518   0.376   5.556   0.493 -0.2477  0.4315  0.2658
   69MOL    C6316519   0.275   5.488   0.401 -0.3596  0.2775  0.1418
   69MOL    O6416520   0.285   5.557   0.276 -0.3914  0.2007 -0.0983
   69MOL    C6516521   0.177   5.588   0.209  0.1852  0.4600 -0.0269
   69MOL    C6616522   0.202   5.625   0.069 -0.9379 -0.2012 -0.0265
   69MOL    O6716523   0.063   5.574   0.238  0.4756  0.3713 -0.2658
   69MOL    H6816524   0.365   5.661   0.465 -0.8555 -0.2371 -2.1693
   69MOL    H6916525   0.476   5.537   0.455 -0.3542  1.4227 -0.5451
   69MOL    H7016526   0.174   5.505   0.438 -0.4752  1.2556 -0.5909
   69MOL    H7116527   0.291   5.576   0.030 -0.6171  1.2292 -1.1477
   69MOL    H7216528   0.214   5.733   0.057  2.3711 -0.7498 -2.3745
   69MOL    H7316529   0.117   5.604   0.005 -1.5489  3.1090 -0.4062
   69MOL    C7416530   0.292   5.330   0.379  0.7683  0.0107  0.1693
   69MOL    C7516531   0.164   5.242   0.384 -0.3023  0.2376  0.2191
   69MOL    O7616532   0.188   5.135   0.296  0.3383  0.3377  0.4034
   69MOL    C7716533   0.155   5.150   0.166 -0.2384 -0.4836  0.5335
   69MOL    C7816534   0.182   5.031   0.075  0.3590 -0.0385  0.2512
   69MOL    O7916535   0.113   5.252   0.118 -0.0174  0.4098  0.3119
   69MOL    H8016536   0.339   5.318   0.282  2.0877 -1.0149  0.9197
   69MOL    H8116537   0.372   5.292   0.443 -0.2768 -1.6685  0.5085
   69MOL    H8216538   0.078   5.297   0.346 -0.5512 -2.6638 -3.8474
   69MOL    H8316539   0.254   4.957   0.109 -0.1238 -0.5266  0.2338
   69MOL    H8416540   0.214   5.072   8.001 -1.3504  3.4214  1.0933
   69MOL    H8516541   0.090   4.973   0.064  1.9806 -2.6076 -0.4325
   69MOL    C8616542   0.137   5.193   0.530 -0.4796 -0.9579 -0.7086
   69MOL    C8716543   8.013   5.166   0.553 -0.2289  0.4364  0.1775
   69MOL    O8816544   7.981   5.051   0.472 -0.0095 -0.0556 -0.9375
   69MOL    C8916545   7.854   5.042   0.420  0.2516  0.0437 -0.0825
   69MOL    C9016546   7.840   4.932   0.315 -0.3805  0.1706 -0.1861
   69MOL    O9116547   7.761   5.121   0.435 -0.2644 -0.1686  0.1279
   69MOL    H9216548   0.199   5.108   0.558 -2.1868 -1.4893  1.6910
   69MOL    H9316549   0.168   5.279   0.589  2.3698 -1.3821 -1.5133
   69MOL    H9416550   7.960   5.257   0.526 -0.3621  0.1022 -0.7145
   69MOL    H9516551   7.805   4.841   0.366  1.9708 -1.7427 -1.8610
   69MOL    H9616552   7.935   4.919   0.263  0.0950  0.1349  0.6742
   69MOL    H9716553   7.764   4.968   0.246 -0.5928 -2.8066 -1.5819
   69MOL    C9816554   7.983   5.152   0.706 -0.2851 -0.2957  0.2437
   69MOL    C9916555   7.838   5.170   0.753 -0.8844 -0.0392 -0.4238
   69MOL   O10016556   7.835   5.146   0.890 -0.0797 -0.4596  0.1158
   69MOL   C10116557   7.770   5.038   0.947  0.4475 -0.0010 -0.6452
   69MOL   C10216558   7.775   5.031   1.098 -0.4504 -0.2056 -0.5322
   69MOL   O10316559   7.700   4.956   0.888  0.7575 -0.1848 -0.3538
   69MOL   H10416560   0.008   5.058   0.735 -0.2921  0.3932  2.5772
   69MOL   H10516561   0.021   5.226   0.760 -0.8902  1.9913 -2.0796
   69MOL   H10616562   7.787   5.091   0.698  1.5052 -2.5316  0.8358
   69MOL   H10716563   7.855   4.960   1.119 -1.2448 -2.2782 -4.0710
   69MOL   H10816564   7.677   5.002   1.136 -0.7649 -0.9324 -1.8605
   69MOL   H10916565   7.797   5.130   1.137 -0.5105 -0.1150 -0.7310
   69MOL   C11016566   7.773   5.304   0.716  0.0650  0.1942 -0.2210
   69MOL   C11116567   7.682   5.375   0.821 -0.0065  0.2539  0.3478
   69MOL   O11216568   7.757   5.434   0.925 -0.2096  0.5040 -0.0568
   69MOL   C11316569   7.717   5.417   1.055 -0.0652  0.0871 -0.0945
   69MOL   C11416570   7.796   5.519   1.143 -0.1033 -0.0086 -0.1746
   69MOL   O11516571   7.648   5.327   1.103  0.0197 -0.2249  0.3283
   69MOL   H11616572   7.855   5.370   0.690  1.6416 -2.3972 -2.1064
   69MOL   H11716573   7.713   5.279   0.628 -1.1971 -1.9086  1.1888
   69MOL   H11816574   7.612   5.298   0.853  0.3683 -0.3102 -0.1692
   69MOL   H11916575   7.722   5.594   1.172 -0.7816  0.4593 -2.8974
   69MOL   H12016576   7.864   5.581   1.085 -1.7649  1.4274 -0.6334
   69MOL   H12116577   7.834   5.478   1.236 -0.4919 -0.4967 -0.2276
   69MOL   C12216578   7.595   5.483   0.759  0.4991  0.1457 -0.2680
   69MOL   C12316579   7.663   5.616   0.713  0.2610 -0.7194  0.2347
   69MOL   O12416580   7.724   5.694   0.815 -0.0490  0.2092  0.1421
   69MOL   C12516581   7.656   5.776   0.901 -0.1408  0.3543 -0.3283
   69MOL   C12616582   7.747   5.856   0.998 -0.6675  0.5777 -0.0723
   69MOL   O12716583   7.534   5.788   0.908 -0.3975  0.1141 -0.3438
   69MOL   H12816584   7.539   5.429   0.683 -2.1515  2.1117  0.2266
   69MOL   H12916585   7.519   5.491   0.836  0.5153 -1.3854 -0.0592
   69MOL   H13016586   7.587   5.678   0.666  0.9608 -0.3848 -0.4700
   69MOL   H13116587   7.845   5.811   1.014  0.1483  1.3898 -2.5745
   69MOL   H13216588   7.708   5.839   1.099  0.1485  0.0335  0.1554
   69MOL   H13316589   7.748   5.962   0.974  2.8722  0.6431  0.1088
   69MOL   C13416590   7.765   5.594   0.601  0.3462 -0.2232 -0.4868
   69MOL   C13516591   7.754   5.705   0.498 -0.3505  0.5666 -0.1369
   69MOL   O13616592   7.864   5.797   0.516 -0.5363 -0.5505  0.4631
   69MOL   C13716593   7.842   5.935   0.499 -0.3957  0.0831 -0.2220
   69MOL   C13816594   7.966   6.018   0.464  0.0494 -0.4370 -0.0065
   69MOL   O13916595   7.728   5.986   0.501  0.2081 -0.0872 -0.6588
   69MOL   H14016596   7.866   5.600   0.644  0.6843 -0.6485 -1.2125
   69MOL   H14116597   7.755   5.500   0.546 -1.2743  0.3935 -1.2575
   69MOL   H14216598   7.663   5.765   0.501 -1.5184 -1.0987 -1.0679
   69MOL   H14316599   7.940   6.107   0.406 -0.2268 -0.0122  0.7721
   69MOL   H14416600   0.014   5.966   0.398  1.2658  1.8270 -0.5428
   69MOL   H14516601   0.012   6.027   0.549 -0.6770 -1.7011  0.7162
   69MOL   C14616602   7.759   5.667   0.354 -0.1511  0.1356 -0.3379
   69MOL   C14716603   7.641   5.587   0.303  0.3154  0.0261 -0.6296
   69MOL   O14816604   7.531   5.670   0.317 -0.5730 -0.0196  0.6179
   69MOL   C14916605   7.409   5.622   0.355 -1.1170  0.2309  0.1824
   69MOL   C15016606   7.304   5.729   0.383  0.1394  0.6748 -0.1587
   69MOL   O15116607   7.381   5.505   0.375  0.0464 -0.3538  0.4021
   69MOL   H15216608   7.775   5.755   0.291 -0.0814 -0.1776 -0.7651
   69MOL   H15316609   7.852   5.610   0.345 -0.1026  0.0047  0.9300
   69MOL   H15416610   7.632   5.498   0.365  2.9251  0.3612  0.2565
   69MOL   H15516611   7.342   5.826   0.415 -2.3882  1.9202 -0.7720
   69MOL   H15616612   7.233   5.689   0.455  0.3336  0.5395 -0.0431
   69MOL   H15716613   7.251   5.743   0.288  0.2169 -0.7672 -0.4208
   69MOL   C15816614   7.649   5.544   0.154 -0.0749 -0.2702 -0.2639
   69MOL   C15916615   7.554   5.427   0.105 -0.4164  0.6103  0.1963
   69MOL   O16016616   7.573   5.401   7.985  0.0857 -0.0316 -0.6661
   69MOL   C16116617   7.489   5.450   7.896 -0.5850  0.1528 -0.3285
   69MOL   C16216618   7.516   5.397   7.754  0.6645  0.0290 -0.0247
   69MOL   O16316619   7.394   5.523   7.911  0.1885  0.2615 -0.2314
   69MOL   H16416620   7.641   5.631   0.090 -1.5030  0.0899  0.3902
   69MOL   H16516621   7.750   5.509   0.134 -0.1252  0.6582 -2.2115
   69MOL   H16616622   7.455   5.466   0.124  0.8725  3.2372  1.7706
   69MOL   H16716623   7.470   5.299   7.743 -3.6094  1.8351  0.5091
   69MOL   H16816624   7.621   5.404   7.728  0.5539 -0.2705 -0.5656
   69MOL   H16916625   7.455   5.452   7.682 -2.2632 -1.2740  1.3354
   69MOL   C17016626   7.572   5.291   0.184 -0.3918 -0.1754  0.0457
   69MOL   C17116627   7.467   5.184   0.149 -0.1843 -0.1460  0.0330
   69MOL   O17216628   7.498   5.135   0.018 -0.6212  0.3145 -0.0696
   69MOL   C17316629   7.398   5.094   7.955 -0.8689  0.2942 -0.5581
   69MOL   C17416630   7.445   5.028   7.823  0.5361  0.1198  0.4654
   69MOL   O17516631   7.278   5.103   7.976 -0.6103  0.3480  0.3818
   69MOL   H17616632   7.668   5.243   0.166 -0.2663  0.0389  0.1470
   69MOL   H17716633   7.549   5.314   0.288 -2.2060 -0.8463 -0.1833
   69MOL   H17816634   7.374   5.242   0.144  0.6952  1.2730 -0.1585
   69MOL   H17916635   7.499   4.944   7.869  1.2502 -0.0884 -0.7450
   69MOL   H18016636   7.513   5.086   7.761 -0.9782 -0.0355 -1.3708
   69MOL   H18116637   7.365   4.993   7.758  1.1111  0.2309 -0.3106
   69MOL   C18216638   7.469   5.080   0.263  0.7135 -0.9349 -0.2945
   69MOL   C18316639   7.383   4.960   0.246 -0.3933 -0.2303 -0.1647
   69MOL   O18416640   7.405   4.855   0.336  0.1320  0.4415 -0.1399
   69MOL   C18516641   7.500   4.762   0.307  0.0973  0.4548 -0.2766
   69MOL   C18616642   7.498   4.655   0.419  0.0372  0.1924 -0.2179
   69MOL   O18716643   7.584   4.765   0.218  0.1716 -0.0020 -0.5965
   69MOL   H18816644   7.571   5.043   0.278 -0.0434 -1.5534  3.6770
   69MOL   H18916645   7.455   5.134   0.357 -2.3279 -0.7356 -0.8108
   69MOL   H19016646   7.389   4.924   0.143  0.8122 -2.3889  0.6289
   69MOL   H19116647   7.595   4.606   0.406  0.0713  0.6428 -1.8326
   69MOL   H19216648   7.420   4.581   0.397  0.9958 -0.2091 -2.4002
   69MOL   H19316649   7.483   4.702   0.516  1.3536  2.2631 -0.9864
   69MOL   C19416650   7.239   5.006   0.266 -0.2510 -0.2962 -0.4309
   69MOL   C19516651   7.134   4.904   0.225 -0.4628  0.4050  0.6812
   69MOL   O19616652   7.125   4.793   0.325  0.0018 -0.1535 -0.3060
   69MOL   C19716653   7.129   4.661   0.296  0.6573 -0.1392 -0.1686
   69MOL   C19816654   7.125   4.578   0.424  0.1149 -0.0425  0.2602
   69MOL   O19916655   7.125   4.619   0.184  0.1095  0.6084  0.4979
   69MOL   H20016656   7.231   5.035   0.371  0.5242  0.1165 -0.4801
   69MOL   H20116657   7.222   5.100   0.213  0.6502 -0.6366 -1.3260
   69MOL   H20216658   7.170   4.859   0.132 -0.4537 -1.6243  1.6446
   69MOL   H20316659   7.158   4.477   0.400 -0.3557 -0.0644 -0.3005
   69MOL   H20416660   7.024   4.563   0.461 -0.2174 -0.6174 -0.8714
   69MOL   H20516661   7.182   4.637   0.496  1.8132 -1.1662 -0.1315
   69MOL   C20616662   6.998   4.973   0.208 -0.2897  0.3926 -0.1134
   69MOL   C20716663   6.897   4.907   0.098 -0.0857 -0.0334 -0.5368
   69MOL   O20816664   6.782   4.987   0.086  0.1007 -0.1552  0.1500
   69MOL   C20916665   6.654   4.936   0.080 -1.0993  0.0987  0.4194
   69MOL   C21016666   6.553   5.046   0.076  0.1407 -0.6469 -0.0825
   69MOL   O21116667   6.623   4.817   0.082 -0.2900  0.3110  0.1094
   69MOL   H21216668   6.956   4.971   0.308 -0.4940  0.6540 -0.1914
   69MOL   H21316669   7.009   5.079   0.184  1.0534  0.1377 -0.6611
   69MOL   H21416670   6.883   4.804   0.129  1.6419  0.0953  0.7564
   69MOL   H21516671   6.563   5.101   0.170 -0.1692  0.9208 -0.9587
   69MOL   H21616672   6.449   5.023   0.055 -0.4591  2.3944 -0.6616
   69MOL   H21716673   6.587   5.112   8.018 -0.1387 -1.1618 -0.6312
   69MOL   C21816674   6.961   4.905   7.979  0.0888  0.6917  0.3260
   69MOL   C21916675   6.885   4.829   7.867  0.4175  0.5407  0.6612
   69MOL   O22016676   6.964   4.838   7.750 -0.1191  0.0810  0.2205
   69MOL   C22116677   6.933   4.922   7.654 -0.0819 -0.3362 -0.6600
   69MOL   C22216678   7.018   4.910   7.531 -0.6937 -0.3813  0.3933
   69MOL   O22316679   6.841   5.007   7.656  0.0381  0.2220  0.0002
   69MOL   H22416680   6.978   5.007   7.943  0.2542  0.7119  0.4624
   69MOL   H22516681   7.057   4.856   7.992 -0.1978  0.1158  0.2963
   69MOL   H22616682   6.784   4.867   7.853  0.4776  0.8829  1.1480
   69MOL   H22716683   7.040   4.804   7.526  1.0301 -0.0852  1.3998
   69MOL   H22816684   7.111   4.966   7.544  0.0442 -2.3111  4.1210
   69MOL   H22916685   6.962   4.943   7.443  1.4618  1.5322 -0.3091
   69MOL   C23016686   6.885   4.676   7.900  0.5483  0.0800 -0.4070
   69MOL   C23116687   6.782   4.604   7.808 -0.4693  0.0441 -0.1128
   69MOL   O23216688   6.779   4.464   7.825 -0.2962  0.5788  0.3139
   69MOL   C23316689   6.682   4.406   7.897 -0.1073 -0.5524 -0.4025
   69MOL   C23416690   6.697   4.251   7.900  0.3960 -0.2131  0.2052
   69MOL   O23516691   6.600   4.468   7.962 -0.0135 -0.4495  0.1911
   69MOL   H23616692   6.986   4.637   7.905 -0.2231 -2.0081 -0.5446
   69MOL   H23716693   6.853   4.667   8.004  2.3418  0.0583  0.1563
   69MOL   H23816694   6.816   4.624   7.706 -1.0450  0.9725 -0.1307
   69MOL   H23916695   6.722   4.215   8.000 -2.0581 -3.1386 -0.1513
   69MOL   H24016696   6.792   4.226   7.852  1.0986 -0.2482  1.5923
   69MOL   H24116697   6.607   4.202   7.863  1.6917 -2.2918 -0.2999
   69MOL   H24216698   6.684   4.650   7.824  0.2040  0.7930  2.0079
   70MOL     C116699   7.154   1.711   4.700  0.0872 -0.0923 -0.6288
   70MOL     C216700   7.022   1.785   4.713  1.0988 -0.2377 -0.1676
   70MOL     O316701   6.930   1.689   4.772 -0.0271  0.1111 -0.0030
   70MOL     C416702   6.804   1.690   4.729  0.2764  0.1190  0.3400
   70MOL     C516703   6.724   1.619   4.834  0.8487 -0.1637  0.5550
   70MOL     O616704   6.755   1.734   4.627 -0.0173 -0.2596  0.5765
   70MOL     H716705   7.228   1.779   4.659  1.7171 -1.3365  0.2034
   70MOL     H816706   7.146   1.616   4.648 -0.0608  0.6987 -2.0637
   70MOL     H916707   7.005   1.818   4.611 -0.3655 -0.6564 -0.0583
   70MOL    H1016708   6.708   1.686   4.918 -1.1545 -0.0546  0.1297
   70MOL    H1116709   6.774   1.538   4.887  1.0618 -0.0853  0.4743
   70MOL    H1216710   6.628   1.588   4.792  0.3652  1.7715  0.1673
   70MOL    H1316711   7.182   1.694   4.804  1.7258  1.0617 -0.8716
   70MOL    C1416712   7.046   1.892   4.825 -1.0168 -0.2342 -0.6521
   70MOL    C1516713   6.926   1.980   4.861  0.5987 -0.3838  0.2802
   70MOL    O1616714   6.989   2.064   4.956  0.1591 -0.0480 -0.5226
   70MOL    C1716715   6.969   2.051   5.085  0.2412 -0.0594  0.2667
   70MOL    C1816716   7.009   2.172   5.167  0.5042 -0.5951 -0.0567
   70MOL    O1916717   6.917   1.955   5.142 -0.7504 -0.4002 -0.8192
   70MOL    H2016718   7.081   1.837   4.912 -1.4281  0.6284  0.0681
   70MOL    H2116719   7.132   1.957   4.813  0.1867 -1.0118  3.1458
   70MOL    H2216720   6.844   1.923   4.905 -0.2596  0.8545  0.3244
   70MOL    H2316721   7.006   2.149   5.274 -1.8129  1.4168  0.3646
   70MOL    H2416722   6.933   2.246   5.139  0.0149 -1.2816 -0.5753
   70MOL    H2516723   7.105   2.211   5.135 -0.5910  1.8578 -0.5126
   70MOL    C2616724   6.870   2.065   4.746  0.2102  0.1250  0.1538
   70MOL    C2716725   6.721   2.090   4.744  0.2807  0.0592  0.2133
   70MOL    O2816726   6.685   2.151   4.869 -0.3395 -0.0794 -0.4809
   70MOL    C2916727   6.613   2.078   4.955  0.5668 -0.9338 -0.1127
   70MOL    C3016728   6.600   2.150   5.094 -0.7698  0.5827 -0.7780
   70MOL    O3116729   6.553   1.976   4.929 -0.0836  0.2981  0.1266
   70MOL    H3216730   6.926   2.159   4.742  0.8760 -0.3485 -2.8371
   70MOL    H3316731   6.880   2.010   4.653  0.1182  1.9954 -0.9956
   70MOL    H3416732   6.689   1.987   4.735  0.3943  0.0550 -0.1851
   70MOL    H3516733   6.668   2.235   5.098 -0.8460  0.5803  1.1158
   70MOL    H3616734   6.623   2.084   5.177 -1.0450  3.4943  1.6876
   70MOL    H3716735   6.499   2.186   5.113 -0.9952 -1.1037  1.3766
   70MOL    C3816736   6.669   2.165   4.621  0.0870  0.7150 -0.0894
   70MOL    C3916737   6.532   2.099   4.576 -0.1089 -0.0943 -0.2723
   70MOL    O4016738   6.424   2.138   4.663 -0.4942  0.1123  0.2314
   70MOL    C4116739   6.318   2.056   4.673 -0.1276 -0.4517 -0.2593
   70MOL    C4216740   6.201   2.123   4.755 -0.8363  0.2755  0.6173
   70MOL    O4316741   6.297   1.948   4.617  0.3451 -0.1599  0.2674
   70MOL    H4416742   6.659   2.272   4.641 -0.2250  0.4502  1.2120
   70MOL    H4516743   6.744   2.168   4.543  0.6266  0.9656  0.4359
   70MOL    H4616744   6.541   1.991   4.582  1.1210 -0.0147 -0.5565
   70MOL    H4716745   6.114   2.059   4.737  1.1693 -1.8476 -2.0358
   70MOL    H4816746   6.175   2.222   4.717 -0.2243  0.9675  1.9733
   70MOL    H4916747   6.214   2.129   4.863 -0.0762 -2.2764  0.7038
   70MOL    C5016748   6.483   2.152   4.438  0.1422  0.1012  0.1338
   70MOL    C5116749   6.567   2.116   4.314 -0.3834 -0.1400  0.1082
   70MOL    O5216750   6.589   1.976   4.311  0.4471 -0.1446  0.2496
   70MOL    C5316751   6.714   1.926   4.339  0.5140 -0.3697 -0.8248
   70MOL    C5416752   6.720   1.774   4.320  0.5457  0.6002 -0.1699
   70MOL    O5516753   6.817   1.994   4.361 -0.4773 -0.6352 -0.6377
   70MOL    H5616754   6.381   2.117   4.426  0.1136  0.0850  0.4223
   70MOL    H5716755   6.476   2.260   4.451 -0.0465 -0.0226  1.0722
   70MOL    H5816756   6.662   2.170   4.320 -1.0228  0.8076  2.5454
   70MOL    H5916757   6.623   1.738   4.284  0.6869 -0.4544  0.4844
   70MOL    H6016758   6.761   1.720   4.405 -0.1942 -1.4902 -1.1150
   70MOL    H6116759   6.790   1.768   4.237  2.0906 -0.5627  1.1930
   70MOL    C6216760   6.516   2.169   4.182 -0.1427  0.5298 -0.1440
   70MOL    C6316761   6.588   2.124   4.058  0.0931  0.3566  0.2895
   70MOL    O6416762   6.511   2.166   3.946  0.3141 -0.9423  0.6137
   70MOL    C6516763   6.491   2.088   3.835  0.1370 -0.5475 -0.2999
   70MOL    C6616764   6.403   2.160   3.735 -0.7684  0.6590  0.0597
   70MOL    O6716765   6.543   1.975   3.815 -0.2342 -0.5446 -0.0359
   70MOL    H6816766   6.411   2.141   4.171  0.1672 -0.1844 -1.2983
   70MOL    H6916767   6.525   2.278   4.188  0.4826  0.5177 -0.8302
   70MOL    H7016768   6.593   2.016   4.047  1.6763  0.4562 -0.1398
   70MOL    H7116769   6.440   2.145   3.634 -0.4628 -0.6129  0.3501
   70MOL    H7216770   6.400   2.266   3.756 -0.2440  0.2847  2.1153
   70MOL    H7316771   6.299   2.127   3.740 -0.4066 -0.5756 -0.1662
   70MOL    C7416772   6.727   2.191   4.044 -0.6570  0.2442 -0.2688
   70MOL    C7516773   6.801   2.167   3.919 -0.5234 -0.3139 -0.1602
   70MOL    O7616774   6.917   2.259   3.916 -0.1332  0.0268 -0.3104
   70MOL    C7716775   6.921   2.362   3.833 -0.6885 -1.0768  0.4415
   70MOL    C7816776   7.050   2.437   3.839  0.1604  0.2586  0.0356
   70MOL    O7916777   6.829   2.398   3.760 -0.1446  0.0071 -0.0948
   70MOL    H8016778   6.719   2.299   4.052 -1.5413  0.2335 -1.0995
   70MOL    H8116779   6.775   2.168   4.140 -0.8003 -0.4867 -0.3669
   70MOL    H8216780   6.741   2.176   3.829  0.5766 -0.4518 -0.9142
   70MOL    H8316781   7.091   2.402   3.934 -0.6383 -0.9085 -0.0395
   70MOL    H8416782   7.044   2.546   3.846  1.1661  0.1569  3.2913
   70MOL    H8516783   7.121   2.404   3.763 -1.2672 -1.9475 -0.3759
   70MOL    C8616784   6.858   2.021   3.912  0.2449 -0.2084 -0.3194
   70MOL    C8716785   6.897   1.964   3.774  0.1306  0.1933  0.1463
   70MOL    O8816786   6.982   2.057   3.706 -0.7591 -0.3317  0.0571
   70MOL    C8916787   6.977   2.079   3.576  0.1616 -0.2882 -0.2502
   70MOL    C9016788   7.096   2.153   3.518  0.3865 -0.1400 -0.2728
   70MOL    O9116789   6.884   2.038   3.509  0.2035  0.5309 -0.2308
   70MOL    H9216790   6.936   2.006   3.986 -0.9885 -2.0267  0.6579
   70MOL    H9316791   6.780   1.957   3.953  0.2508  0.4219  0.6867
   70MOL    H9416792   6.807   1.951   3.714  0.2793 -0.0475 -0.0236
   70MOL    H9516793   7.064   2.249   3.478  1.2293 -0.0574 -0.7536
   70MOL    H9616794   7.151   2.096   3.444  2.4492  1.7539 -0.2523
   70MOL    H9716795   7.168   2.159   3.599  0.3291 -1.1158 -0.1468
   70MOL    C9816796   6.970   1.828   3.781  1.1614  0.6650 -0.0575
   70MOL    C9916797   7.112   1.827   3.853  0.7100 -0.4137 -0.1006
   70MOL   O10016798   7.140   1.699   3.911 -0.5259  0.1400  0.0426
   70MOL   C10116799   7.076   1.659   4.030 -0.2269 -0.1272 -0.2902
   70MOL   C10216800   7.118   1.524   4.077 -0.5419 -0.1127  0.4153
   70MOL   O10316801   6.982   1.719   4.076  0.9961  0.4971  0.3096
   70MOL   H10416802   6.906   1.760   3.836  1.8159 -0.5361 -0.7542
   70MOL   H10516803   6.982   1.782   3.683 -1.6066 -2.0168  0.7980
   70MOL   H10616804   7.109   1.907   3.927 -0.7265 -2.4580  2.1347
   70MOL   H10716805   7.035   1.476   4.129  1.9671 -3.5237  1.4496
   70MOL   H10816806   7.195   1.539   4.152 -0.1927  1.1184 -0.1852
   70MOL   H10916807   7.158   1.454   4.004  0.4122 -0.3974  1.1904
   70MOL   C11016808   7.234   1.864   3.761  0.8448  0.4125  0.7787
   70MOL   C11116809   7.354   1.905   3.849 -0.2206  0.4590 -0.1262
   70MOL   O11216810   7.473   1.893   3.772 -0.0997 -0.4406  0.6077
   70MOL   C11316811   7.494   1.962   3.661  1.2269 -0.2005 -0.6531
   70MOL   C11416812   7.638   1.932   3.615 -0.3391 -0.0263  0.5914
   70MOL   O11516813   7.431   2.050   3.613 -0.0036  0.4284 -0.2437
   70MOL   H11616814   7.254   1.785   3.689  0.2226 -0.0176  1.0756
   70MOL   H11716815   7.213   1.950   3.697  0.2364  0.7894  1.4870
   70MOL   H11816816   7.366   1.835   3.931  1.3164  0.0115 -0.7102
   70MOL   H11916817   7.656   1.956   3.510  2.6660 -2.1406  0.5565
   70MOL   H12016818   7.669   1.829   3.632  0.3960 -0.0016 -0.5686
   70MOL   H12116819   7.705   1.985   3.683  0.6769 -3.7637  2.6499
   70MOL   C12216820   7.346   2.044   3.922  0.8832  0.1544  0.5607
   70MOL   C12316821   7.448   2.064   4.034 -0.0430 -0.1509 -0.8048
   70MOL   O12416822   7.584   2.045   3.988  0.1933  0.1952  0.2048
   70MOL   C12516823   7.664   1.968   4.053  0.2958  0.1523 -0.2819
   70MOL   C12616824   7.810   1.985   4.015 -0.0509  0.7262 -0.2040
   70MOL   O12716825   7.629   1.886   4.141  0.0125  0.0173  0.3351
   70MOL   H12816826   7.350   2.128   3.853 -1.1513  1.1485  1.5791
   70MOL   H12916827   7.244   2.057   3.959  1.8743  3.3940  2.4033
   70MOL   H13016828   7.431   1.998   4.118  2.3797  0.4017  0.1795
   70MOL   H13116829   7.870   2.001   4.105 -0.2895  0.1174  0.0652
   70MOL   H13216830   7.823   2.068   3.945 -1.0050  0.2883 -0.9007
   70MOL   H13316831   7.835   1.892   3.965 -1.7911 -0.1742  0.5343
   70MOL   C13416832   7.446   2.213   4.086 -0.0954  0.2648  0.1199
   70MOL   C13516833   7.315   2.246   4.158  0.8334  0.1588  0.0253
   70MOL   O13616834   7.309   2.166   4.277  0.0759  0.0130  0.3287
   70MOL   C13716835   7.227   2.059   4.296  0.0840 -0.2390  0.8067
   70MOL   C13816836   7.221   1.995   4.434 -0.4271 -0.0226  0.5095
   70MOL   O13916837   7.151   2.014   4.207 -0.3842 -0.0898  0.3936
   70MOL   H14016838   7.531   2.236   4.150 -2.4812  2.6482  2.5649
   70MOL   H14116839   7.455   2.283   4.002  0.6791 -0.7532 -0.6567
   70MOL   H14216840   7.235   2.217   4.089 -0.6416  0.2681  1.6445
   70MOL   H14316841   7.303   2.037   4.492 -0.4720  0.6068  0.1242
   70MOL   H14416842   7.235   1.888   4.431  1.8815  0.2689  0.3983
   70MOL   H14516843   7.125   2.033   4.471  0.6536  2.8705  0.5157
   70MOL   C14616844   7.291   2.394   4.171  0.0395 -0.1596 -0.1934
   70MOL   C14716845   7.396   2.455   4.270  0.7638  1.0367 -0.0946
   70MOL   O14816846   7.412   2.587   4.235 -0.0888 -0.7524  0.1121
   70MOL   C14916847   7.523   2.616   4.156 -0.9557  0.3637 -0.0062
   70MOL   C15016848   7.547   2.764   4.146 -0.2382 -0.4788 -0.2901
   70MOL   O15116849   7.600   2.529   4.102 -0.1061 -0.2841 -0.0926
   70MOL   H15216850   7.313   2.433   4.072  0.8239 -0.4532 -0.1406
   70MOL   H15316851   7.188   2.424   4.186  0.1623  0.5462 -0.7208
   70MOL   H15416852   7.485   2.393   4.266 -0.4023 -0.5672 -1.7303
   70MOL   H15516853   7.648   2.785   4.110  0.7060 -2.4034  1.1096
   70MOL   H15616854   7.541   2.809   4.246  1.5118 -0.3578 -0.2178
   70MOL   H15716855   7.483   2.810   4.071  1.2521 -0.9137 -1.8637
   70MOL   C15816856   7.356   2.458   4.419  0.0452 -0.5120 -0.1809
   70MOL   C15916857   7.479   2.495   4.510 -0.4374 -0.1058  0.3892
   70MOL   O16016858   7.605   2.429   4.478  0.5338  0.0640  0.0158
   70MOL   C16116859   7.610   2.290   4.465  0.0841 -0.0191 -0.0578
   70MOL   C16216860   7.731   2.243   4.390 -0.2840 -0.4722 -0.6386
   70MOL   O16316861   7.525   2.211   4.505  0.3101  0.5244 -0.0697
   70MOL   H16416862   7.271   2.523   4.441  0.8955  0.3648  0.5328
   70MOL   H16516863   7.314   2.362   4.449 -0.4115 -0.2308  0.0860
   70MOL   H16616864   7.453   2.466   4.612 -0.3167  0.3048  0.5396
   70MOL   H16716865   7.728   2.304   4.299  1.1427  1.4841  0.6024
   70MOL   H16816866   7.727   2.136   4.370 -0.1616 -0.8374  1.2223
   70MOL   H16916867   7.815   2.275   4.450 -2.2805  2.1541  0.8769
   70MOL   C17016868   7.505   2.647   4.520  0.3375  0.3695  0.5610
   70MOL   C17116869   7.637   2.694   4.595  0.2941  0.0800  0.3642
   70MOL   O17216870   7.737   2.705   4.492  0.3174 -0.1318  0.3364
   70MOL   C17316871   7.852   2.626   4.485  0.2295  0.7649 -0.1772
   70MOL   C17416872   7.924   2.625   4.355 -0.3120  0.0428  0.0749
   70MOL   O17516873   7.898   2.559   4.579 -0.8453 -0.4408  0.3780
   70MOL   H17616874   7.490   2.695   4.424 -2.7140 -1.2345  0.1861
   70MOL   H17716875   7.419   2.693   4.568 -1.1128 -1.2249 -0.4925
   70MOL   H17816876   7.656   2.618   4.670  2.2676  1.2318  1.0591
   70MOL   H17916877   0.007   2.633   4.384  0.0019 -0.0665 -0.9968
   70MOL   H18016878   7.907   2.720   4.305 -3.0785  0.5422  1.8118
   70MOL   H18116879   7.922   2.532   4.298  1.8416 -0.6083  1.0040
   70MOL   C18216880   7.620   2.844   4.649  0.8561  0.4269 -0.3283
   70MOL   C18316881   7.507   2.871   4.750 -0.4184  0.4222 -0.1955
   70MOL   O18416882   7.538   2.809   4.880 -0.4915  0.5375 -0.0563
   70MOL   C18516883   7.507   2.680   4.908  0.2370  0.1628 -0.2716
   70MOL   C18616884   7.554   2.636   5.046 -0.3948  0.4571 -0.2223
   70MOL   O18716885   7.429   2.613   4.841 -0.0783 -0.0069  0.3073
   70MOL   H18816886   7.708   2.882   4.701 -0.9024  0.4911  2.7246
   70MOL   H18916887   7.617   2.911   4.564 -1.1549 -0.3439 -0.8909
   70MOL   H19016888   7.417   2.819   4.717 -0.0866 -0.7802  0.7834
   70MOL   H19116889   7.576   2.530   5.040  2.9259  1.0411  0.5528
   70MOL   H19216890   7.480   2.656   5.124 -0.5326  1.7173 -0.6572
   70MOL   H19316891   7.642   2.689   5.082 -0.6725  0.5284  0.3611
   70MOL   C19416892   7.467   3.019   4.773  0.0318 -0.1303  0.3528
   70MOL   C19516893   7.394   3.080   4.649 -0.3007  0.4137 -0.5808
   70MOL   O19616894   7.271   3.007   4.618  0.5980  0.2981  0.2677
   70MOL   C19716895   7.258   2.943   4.502 -0.0147  0.4699  0.0600
   70MOL   C19816896   7.135   2.851   4.495  0.1969 -0.6096 -0.0691
   70MOL   O19916897   7.345   2.934   4.412  0.2915 -0.0123 -0.0119
   70MOL   H20016898   7.392   3.026   4.852 -1.9605 -2.2823 -1.2745
   70MOL   H20116899   7.560   3.072   4.791 -0.5865  0.3896  2.0671
   70MOL   H20216900   7.470   3.071   4.571  2.5725  0.5118  2.1235
   70MOL   H20316901   7.174   2.753   4.525 -1.1096 -1.1774 -0.1862
   70MOL   H20416902   7.078   2.839   4.403 -0.0580 -0.7447  0.1059
   70MOL   H20516903   7.062   2.877   4.572  0.4727 -0.5663  0.1790
   70MOL   C20616904   7.369   3.230   4.669  0.1241  0.2642  0.4262
   70MOL   C20716905   7.330   3.307   4.543 -0.3884  0.5794 -0.1411
   70MOL   O20816906   7.314   3.449   4.572 -0.0058  0.0736  0.6478
   70MOL   C20916907   7.198   3.510   4.592 -0.3195  0.3044  0.0371
   70MOL   C21016908   7.207   3.658   4.607 -0.5993 -0.6434 -0.3328
   70MOL   O21116909   7.091   3.452   4.600 -0.3940 -0.0664  0.3730
   70MOL   H21216910   7.314   3.256   4.759  0.0496  1.9117 -0.0732
   70MOL   H21316911   7.464   3.273   4.702  0.7342 -0.2032 -0.6798
   70MOL   H21416912   7.236   3.255   4.525 -0.2742  0.2757  0.1435
   70MOL   H21516913   7.110   3.708   4.600  0.8076  2.0196 -1.9568
   70MOL   H21616914   7.269   3.710   4.534  1.3124 -3.0720 -0.4845
   70MOL   H21716915   7.240   3.683   4.708  1.8123 -1.2747 -0.9322
   70MOL   C21816916   7.449   3.301   4.439 -0.0126  0.7662  0.4249
   70MOL   C21916917   7.410   3.366   4.312 -0.0230 -0.4904  0.1657
   70MOL   O22016918   7.515   3.340   4.217 -0.5043 -0.1228  0.5700
   70MOL   C22116919   7.629   3.421   4.233  0.3735 -0.3329 -0.6240
   70MOL   C22216920   7.718   3.417   4.109  0.1653  0.3720 -1.5229
   70MOL   O22316921   7.654   3.492   4.331 -0.1096  0.3892  0.0439
   70MOL   H22416922   7.533   3.350   4.488  0.6387 -0.5157  0.6104
   70MOL   H22516923   7.467   3.194   4.423  1.6852  0.4561  3.9539
   70MOL   H22616924   7.416   3.474   4.329  2.1361 -0.7216  0.9796
   70MOL   H22716925   7.818   3.377   4.128 -0.3955 -1.6142 -2.6286
   70MOL   H22816926   7.730   3.521   4.078 -3.9882  1.3885 -0.0991
   70MOL   H22916927   7.675   3.359   4.028  1.9073 -1.6672 -1.0274
   70MOL   C23016928   7.269   3.330   4.255 -0.1697 -0.2933  0.6494
   70MOL   C23116929   7.265   3.183   4.198  0.1888 -0.5163  0.5079
   70MOL   O23216930   7.130   3.161   4.152  0.3917  0.0112  0.3671
   70MOL   C23316931   7.068   3.032   4.150 -0.3889 -0.0367 -0.3358
   70MOL   C23416932   6.917   3.045   4.115 -0.3185  0.0224  0.0093
   70MOL   O23516933   7.117   2.915   4.159 -0.1475 -0.1096  0.6068
   70MOL   H23616934   7.195   3.353   4.331 -0.5943  0.9213 -0.1199
   70MOL   H23716935   7.257   3.401   4.173  0.8372 -3.0178 -1.9786
   70MOL   H23816936   7.290   3.110   4.275 -0.9913 -1.4916 -0.0240
   70MOL   H23916937   6.863   2.953   4.094 -0.2624  0.5811 -2.7678
   70MOL   H24016938   6.905   3.115   4.032 -0.9658  0.1706  0.2210
   70MOL   H24116939   6.875   3.098   4.201  2.1015 -1.9212  2.4638
   70MOL   H24216940   7.333   3.168   4.114  0.7027  0.7893  0.6754
   71MOL     C116941   0.745   5.475   4.964 -0.1134  0.4282 -0.4256
   71MOL     C216942   0.856   5.580   4.986  0.4572  0.8844 -0.9524
   71MOL     O316943   0.951   5.512   5.065  0.3940  0.6481 -0.2410
   71MOL     C416944   0.984   5.560   5.189  0.1030 -0.1239  0.2552
   71MOL     C516945   1.116   5.495   5.237 -0.4258  0.0089  0.2299
   71MOL     O616946   0.925   5.646   5.257 -0.0503  0.3276 -0.4140
   71MOL     H716947   0.678   5.444   5.043 -0.0504  0.4598 -0.3585
   71MOL     H816948   0.788   5.395   4.903  1.0206 -0.7851  1.8944
   71MOL     H916949   0.809   5.666   5.034 -1.0351  0.1870 -1.1351
   71MOL    H1016950   1.149   5.545   5.328  0.2550 -0.0017 -0.0115
   71MOL    H1116951   1.189   5.522   5.161 -0.5226 -1.3210 -0.3458
   71MOL    H1216952   1.117   5.386   5.246  0.0833 -0.1162 -1.1266
   71MOL    H1316953   0.673   5.513   4.891 -0.3859 -1.5683 -1.2460
   71MOL    C1416954   0.924   5.613   4.845  0.3204  1.0007  0.4716
   71MOL    C1516955   1.040   5.707   4.860  0.2960 -0.7540 -0.2014
   71MOL    O1616956   1.141   5.680   4.768 -0.2914 -0.3508  0.9676
   71MOL    C1716957   1.231   5.579   4.795 -0.2005  0.2232  0.4298
   71MOL    C1816958   1.319   5.544   4.675 -0.0639 -0.3926 -0.4019
   71MOL    O1916959   1.241   5.521   4.905  0.4672 -0.0353  0.0733
   71MOL    H2016960   0.953   5.519   4.800 -0.1785  0.3259  1.5211
   71MOL    H2116961   0.846   5.649   4.778  0.0931  2.9020  1.7256
   71MOL    H2216962   1.087   5.694   4.957  0.4729  0.0861 -0.1702
   71MOL    H2316963   1.317   5.630   4.607  1.3007 -0.6162 -0.7315
   71MOL    H2416964   1.284   5.451   4.631  0.2665 -0.3071 -0.8468
   71MOL    H2516965   1.424   5.535   4.702  0.1445 -0.0922 -1.0978
   71MOL    C2616966   1.008   5.857   4.833 -0.1184  0.6024 -0.6924
   71MOL    C2716967   0.936   5.947   4.939 -1.0235 -0.9720 -0.4293
   71MOL    O2816968   0.808   5.887   4.955  0.6677  0.4619  0.2665
   71MOL    C2916969   0.707   5.917   4.868  0.0313  0.1778  0.0707
   71MOL    C3016970   0.581   5.837   4.885  0.1762 -0.5839  0.2036
   71MOL    O3116971   0.718   5.989   4.768  0.1032 -0.1729  0.4046
   71MOL    H3216972   1.099   5.911   4.808 -0.3312  1.2793 -0.0612
   71MOL    H3316973   0.948   5.869   4.743  0.3798 -2.2582 -1.4443
   71MOL    H3416974   0.930   6.047   4.895 -2.2867 -1.9043 -2.4609
   71MOL    H3516975   0.498   5.908   4.884 -0.3101 -1.1323  0.8166
   71MOL    H3616976   0.582   5.801   4.988  0.4455  0.2274  0.4839
   71MOL    H3716977   0.573   5.758   4.810 -0.6153  0.4184 -0.7705
   71MOL    C3816978   1.008   5.953   5.073 -0.2899 -0.1314 -0.4605
   71MOL    C3916979   0.951   6.061   5.165 -0.1586  0.3144 -0.2139
   71MOL    O4016980   0.905   5.988   5.280 -0.6356  0.1002  0.2464
   71MOL    C4116981   0.778   5.963   5.295  0.3610 -0.5140  0.1128
   71MOL    C4216982   0.751   5.867   5.408 -0.0859  0.1103  0.3514
   71MOL    O4316983   0.685   6.013   5.235  0.3539  0.1834  0.0762
   71MOL    H4416984   1.027   5.855   5.116 -0.4001  0.7148  1.5492
   71MOL    H4516985   1.111   5.979   5.047 -0.7136  3.3625  1.1017
   71MOL    H4616986   0.867   6.112   5.117  0.3862  2.1094  0.6741
   71MOL    H4716987   0.643   5.862   5.423 -0.1946  1.1232 -0.0760
   71MOL    H4816988   0.794   5.902   5.502  1.1315 -0.7921  0.1472
   71MOL    H4916989   0.794   5.771   5.379 -0.5437  0.0699 -0.1906
   71MOL    C5016990   1.058   6.165   5.201  0.8300 -0.0228 -0.4511
   71MOL    C5116991   1.077   6.262   5.077 -0.3393  0.1205  0.1853
   71MOL    O5216992   0.978   6.363   5.079  0.0890 -0.3469  0.0307
   71MOL    C5316993   0.873   6.354   4.996 -0.2815  0.4020  0.0141
   71MOL    C5416994   0.797   6.486   4.997  0.2731  0.2228  0.4601
   71MOL    O5516995   0.844   6.263   4.920  0.3635  0.1703 -0.4416
   71MOL    H5616996   1.040   6.230   5.287 -1.2050  0.1612 -0.9872
   71MOL    H5716997   1.148   6.108   5.220  0.5554 -1.0972 -2.2854
   71MOL    H5816998   1.082   6.202   4.986 -0.6653  1.1863 -0.5463
   71MOL    H5916999   0.721   6.502   5.074  0.6187  1.0209  0.6453
   71MOL    H6017000   0.740   6.500   4.905 -1.9613 -0.8245  1.6515
   71MOL    H6117001   0.862   6.574   5.007  0.3213  0.1377  0.8818
   71MOL    C6217002   1.216   6.331   5.074  0.1365  0.5800 -0.0945
   71MOL    C6317003   1.332   6.232   5.054 -0.1292  0.1923 -0.4617
   71MOL    O6417004   1.383   6.244   4.922 -0.3037 -0.0884 -0.2128
   71MOL    C6517005   1.325   6.177   4.823  0.9780  0.2457  0.2061
   71MOL    C6617006   1.403   6.186   4.690  0.8573  0.1268  0.5398
   71MOL    O6717007   1.219   6.107   4.828 -0.3151 -0.4970  0.5418
   71MOL    H6817008   1.211   6.412   5.000 -2.7832  0.0579 -0.5512
   71MOL    H6917009   1.229   6.382   5.169  0.5878  1.8250 -0.8003
   71MOL    H7017010   1.299   6.129   5.071 -2.2185  0.9423  0.1512
   71MOL    H7117011   1.492   6.248   4.679  0.0644  1.2534  0.4309
   71MOL    H7217012   1.339   6.230   4.614 -0.1385 -1.4741  0.4207
   71MOL    H7317013   1.433   6.087   4.656 -1.3832 -0.4677  0.1968
   71MOL    C7417014   1.439   6.233   5.159 -0.6192 -0.1815  0.1261
   71MOL    C7517015   1.543   6.346   5.137 -0.0986  0.3649  0.2152
   71MOL    O7617016   1.482   6.467   5.181 -0.5361  0.7052  0.1711
   71MOL    C7717017   1.472   6.575   5.099 -0.7615  0.5876 -0.5448
   71MOL    C7817018   1.415   6.700   5.177  0.0883 -0.1405  0.4381
   71MOL    O7917019   1.516   6.580   4.988  0.0596 -0.5351 -0.5257
   71MOL    H8017020   1.394   6.241   5.258 -0.7907 -2.1457  0.2264
   71MOL    H8117021   1.487   6.135   5.160  0.2514  0.2475  0.0795
   71MOL    H8217022   1.576   6.352   5.034 -0.8608  1.5949  0.0324
   71MOL    H8317023   1.400   6.784   5.109 -2.1744 -0.6171  0.3213
   71MOL    H8417024   1.483   6.722   5.259  0.3409  1.7696 -0.2596
   71MOL    H8517025   1.321   6.670   5.223  1.9970 -3.1181  2.5637
   71MOL    C8617026   1.668   6.317   5.218  0.4170  0.0902 -0.0787
   71MOL    C8717027   1.768   6.434   5.240 -0.3156  0.6846  0.2120
   71MOL    O8817028   1.860   6.392   5.338 -0.2244  0.0413  0.0509
   71MOL    C8917029   1.848   6.442   5.462 -0.9185 -0.1520 -0.3374
   71MOL    C9017030   1.962   6.398   5.552  1.1699 -0.3004  0.2564
   71MOL    O9117031   1.759   6.510   5.508  0.3847  0.0806 -0.4098
   71MOL    H9217032   1.636   6.283   5.316  2.1452 -0.1107  0.4446
   71MOL    H9317033   1.712   6.222   5.187 -1.5143 -0.8558  0.0014
   71MOL    H9417034   1.709   6.516   5.281 -0.9194 -0.5100  1.7710
   71MOL    H9517035   2.007   6.312   5.503 -0.7694  0.1862 -2.4602
   71MOL    H9617036   1.908   6.368   5.642  3.1096 -1.4733  1.0631
   71MOL    H9717037   2.023   6.488   5.560  1.1801 -0.1796 -1.1860
   71MOL    C9817038   1.836   6.475   5.105 -0.1250 -0.2055  0.7178
   71MOL    C9917039   1.917   6.608   5.116 -0.2084  0.1932 -0.5393
   71MOL   O10017040   1.998   6.615   5.004  0.0297  0.1674  0.3399
   71MOL   C10117041   2.124   6.645   5.004 -0.1100  0.4075  0.2950
   71MOL   C10217042   2.197   6.583   4.881 -0.1803 -0.1815 -0.1587
   71MOL   O10317043   2.191   6.708   5.091 -0.1998  0.5101  0.9268
   71MOL   H10417044   1.906   6.397   5.077 -1.5942 -1.5761  0.7555
   71MOL   H10517045   1.756   6.485   5.031 -0.6263  0.5587  1.3459
   71MOL   H10617046   1.981   6.598   5.204 -0.2094 -0.0454 -0.5651
   71MOL   H10717047   2.302   6.611   4.876  0.1203 -1.3712 -0.7578
   71MOL   H10817048   2.141   6.601   4.789  1.4246  1.1645 -0.8845
   71MOL   H10917049   2.200   6.474   4.884 -1.5140 -0.2690 -1.1083
   71MOL   C11017050   1.834   6.738   5.119  0.3356 -0.3847 -0.1331
   71MOL   C11117051   1.903   6.858   5.173  0.2416 -0.1187 -0.3136
   71MOL   O11217052   1.814   6.961   5.153  0.7070  0.2762 -0.4092
   71MOL   C11317053   1.847   7.084   5.103  0.9051  0.0066  0.3091
   71MOL   C11417054   1.719   7.162   5.073 -0.1074 -0.2358  0.3967
   71MOL   O11517055   1.960   7.126   5.091 -0.3121  0.1881  0.1385
   71MOL   H11617056   1.792   6.751   5.019  0.4150 -2.4548 -0.4492
   71MOL   H11717057   1.747   6.723   5.184  0.5671 -0.6971  0.1039
   71MOL   H11817058   2.000   6.866   5.124 -0.0246  1.5916 -0.6101
   71MOL   H11917059   1.747   7.255   5.023 -2.1285 -0.3602 -1.0187
   71MOL   H12017060   1.667   7.194   5.163 -1.6385 -1.1459 -0.1578
   71MOL   H12117061   1.661   7.101   5.004  1.0057 -0.8044 -0.0464
   71MOL   C12217062   1.925   6.838   5.333 -0.3348 -0.4294  0.4161
   71MOL   C12317063   2.010   6.941   5.413  1.1431 -0.2651  0.1493
   71MOL   O12417064   1.990   6.924   5.553 -0.2702 -0.1508 -0.3888
   71MOL   C12517065   1.909   7.008   5.622  0.7973 -0.1665  0.0849
   71MOL   C12617066   1.932   7.009   5.769 -0.5301  0.2574  0.1705
   71MOL   O12717067   1.824   7.076   5.567  0.1660  0.1542 -0.2665
   71MOL   H12817068   1.827   6.829   5.380 -0.2706 -2.1316  0.2384
   71MOL   H12917069   1.972   6.742   5.357 -1.0756 -1.3319 -1.6706
   71MOL   H13017070   1.965   7.034   5.379 -0.4259 -0.6951  1.0396
   71MOL   H13117071   1.951   7.112   5.799 -0.2571  0.2750 -0.0616
   71MOL   H13217072   2.013   6.942   5.798 -0.6530 -0.5693 -1.3529
   71MOL   H13317073   1.847   6.957   5.813  0.5147 -0.4953  1.3451
   71MOL   C13417074   2.159   6.944   5.373 -0.2863  0.7985 -0.2724
   71MOL   C13517075   2.244   7.060   5.434  0.2466 -0.2226  0.2607
   71MOL   O13617076   2.193   7.187   5.395 -0.1318  0.0153  0.2793
   71MOL   C13717077   2.244   7.256   5.290  0.2452  0.7889  0.2684
   71MOL   C13817078   2.190   7.401   5.286 -0.2539  0.0954 -0.0244
   71MOL   O13917079   2.337   7.212   5.219  0.2835  0.4646  0.1536
   71MOL   H14017080   2.202   6.846   5.395 -0.1683  0.9770  0.3026
   71MOL   H14117081   2.163   6.949   5.264 -1.1297  0.8888 -0.3053
   71MOL   H14217082   2.344   7.046   5.394  0.8938 -0.5503  1.9450
   71MOL   H14317083   2.276   7.463   5.312  0.2108 -0.9300  0.9641
   71MOL   H14417084   2.125   7.415   5.373  2.1824  2.1371  1.5510
   71MOL   H14517085   2.145   7.434   5.193  1.2427  0.3619 -0.6724
   71MOL   C14617086   2.256   7.065   5.591  0.2356 -0.5733  0.7963
   71MOL   C14717087   2.384   7.110   5.654 -0.0768 -0.2576  0.1108
   71MOL   O14817088   2.396   7.249   5.620 -0.2031  0.4199  0.3570
   71MOL   C14917089   2.512   7.298   5.575 -0.0013  0.3069  0.7170
   71MOL   C15017090   2.500   7.449   5.578 -0.8910 -0.5489 -0.6448
   71MOL   O15117091   2.611   7.239   5.533 -0.0860  0.2448  0.2036
   71MOL   H15217092   2.165   7.110   5.629 -0.7159  1.1068 -3.1299
   71MOL   H15317093   2.249   6.960   5.617 -1.2166 -0.1197  2.2936
   71MOL   H15417094   2.466   7.055   5.608 -0.7919 -1.6251  0.4390
   71MOL   H15517095   2.403   7.495   5.599 -1.3528 -1.4303 -0.8142
   71MOL   H15617096   2.539   7.480   5.481  1.6202  0.8559  0.7783
   71MOL   H15717097   2.583   7.483   5.639 -1.2375  1.4806 -1.2850
   71MOL   C15817098   2.395   7.079   5.805 -0.9147 -0.4690 -0.4323
   71MOL   C15917099   2.535   7.086   5.872 -0.1687 -0.7779 -0.1248
   71MOL   O16017100   2.508   7.074   6.012 -0.2416  0.2890 -0.1317
   71MOL   C16117101   2.495   7.180   6.088 -0.2146  0.2243 -0.5010
   71MOL   C16217102   2.494   7.145   6.236  0.0277  0.1778  0.1966
   71MOL   O16317103   2.470   7.288   6.038  0.2110 -0.5921  0.0155
   71MOL   H16417104   2.329   7.147   5.857 -0.2090  0.2718 -0.4989
   71MOL   H16517105   2.358   6.978   5.823 -0.9377 -0.5128 -0.7252
   71MOL   H16617106   2.575   7.183   5.843 -0.2881 -0.0456  2.1031
   71MOL   H16717107   2.397   7.127   6.283 -0.6377  0.9231 -0.8796
   71MOL   H16817108   2.542   7.216   6.303  0.4187 -1.7646  2.0291
   71MOL   H16917109   2.535   7.045   6.250  1.9817  1.1653  1.7428
   71MOL   C17017110   2.623   6.966   5.835 -0.2641 -0.4890 -0.0124
   71MOL   C17117111   2.766   7.001   5.862 -0.0949 -0.5849  0.5833
   71MOL   O17217112   2.807   6.991   5.999 -0.2147 -0.2692 -0.5695
   71MOL   C17317113   2.837   7.099   6.069 -0.9044  0.0905  0.0017
   71MOL   C17417114   2.826   7.061   6.222 -0.5259 -0.5311 -0.0020
   71MOL   O17517115   2.848   7.211   6.024 -0.2555 -0.2828  0.2678
   71MOL   H17617116   2.595   6.878   5.894 -3.2821 -0.1387 -0.8272
   71MOL   H17717117   2.605   6.941   5.731 -0.2055 -2.9132  0.5187
   71MOL   H17817118   2.782   7.100   5.820  0.9995 -0.2666  1.7141
   71MOL   H17917119   2.764   7.135   6.271  0.0572  0.7301 -1.1437
   71MOL   H18017120   2.924   7.074   6.267 -0.1977  1.8450 -1.3449
   71MOL   H18117121   2.804   6.955   6.236 -1.2187 -0.1887  1.5401
   71MOL   C18217122   2.855   6.909   5.769  0.1451 -0.1810  0.1903
   71MOL   C18317123   3.007   6.948   5.766 -0.1233  0.4346 -0.0022
   71MOL   O18417124   3.060   6.886   5.888 -0.2436 -0.4397  0.5908
   71MOL   C18517125   3.158   6.947   5.963 -0.2506  0.5085 -0.0586
   71MOL   C18617126   3.183   6.885   6.098 -0.4003 -0.4387 -0.2529
   71MOL   O18717127   3.217   7.051   5.940  0.2243  0.4146 -0.1033
   71MOL   H18817128   2.831   6.806   5.793 -0.1977 -0.5061 -1.5270
   71MOL   H18917129   2.828   6.916   5.664 -1.7908 -0.4568  0.6555
   71MOL   H19017130   2.990   7.055   5.777 -2.8431  0.1106 -0.7250
   71MOL   H19117131   3.280   6.909   6.142 -0.9610  0.9555  0.2513
   71MOL   H19217132   3.170   6.779   6.077  0.4044 -0.0927 -2.7701
   71MOL   H19317133   3.113   6.919   6.174 -0.2913 -0.3046 -0.2122
   71MOL   C19417134   3.078   6.900   5.632  0.3797  0.5537 -0.0124
   71MOL   C19517135   3.109   7.006   5.522  0.1452  0.3151  0.8599
   71MOL   O19617136   3.212   7.080   5.573 -0.1399 -0.2914  0.2754
   71MOL   C19717137   3.186   7.202   5.633 -0.4771  0.5715 -1.2166
   71MOL   C19817138   3.305   7.271   5.685 -0.1623  0.1197  0.3733
   71MOL   O19917139   3.079   7.256   5.650 -0.1246 -0.8915  0.3556
   71MOL   H20017140   3.173   6.857   5.662  0.6004 -0.0702 -1.5478
   71MOL   H20117141   3.022   6.817   5.588  2.4149 -0.4606 -0.7432
   71MOL   H20217142   3.020   7.069   5.513  0.3246  0.6428  1.3755
   71MOL   H20317143   3.396   7.214   5.705 -0.4948 -0.8862 -0.8809
   71MOL   H20417144   3.276   7.339   5.764 -0.5076  0.4795 -0.0563
   71MOL   H20517145   3.333   7.342   5.606  3.2209  0.1360  1.5178
   71MOL   C20617146   3.161   6.954   5.388 -0.0107  0.5206  0.1135
   71MOL   C20717147   3.073   6.856   5.304  0.1759  0.1785 -0.4856
   71MOL   O20817148   2.954   6.927   5.257 -0.1352 -0.8440 -0.4537
   71MOL   C20917149   2.841   6.926   5.339 -0.4117 -0.0707 -0.3839
   71MOL   C21017150   2.759   7.048   5.316 -0.0517 -0.6982  0.1607
   71MOL   O21117151   2.811   6.848   5.429  0.0570  0.1399  0.0466
   71MOL   H21217152   3.186   7.035   5.319 -1.4901  1.1807  0.3195
   71MOL   H21317153   3.253   6.905   5.417  0.6305  2.2696  1.0941
   71MOL   H21417154   3.039   6.776   5.369 -0.3759  1.8636  1.3519
   71MOL   H21517155   2.757   7.069   5.209 -1.1245 -0.8531  0.1395
   71MOL   H21617156   2.807   7.136   5.359  0.5378 -0.5835 -0.7110
   71MOL   H21717157   2.659   7.042   5.360  0.3477  1.2797  1.3931
   71MOL   C21817158   3.156   6.800   5.183  0.0172  0.1441  0.1924
   71MOL   C21917159   3.070   6.706   5.094  0.0779 -0.3028 -0.7557
   71MOL   O22017160   2.987   6.784   5.016  0.1828  0.3060 -0.0953
   71MOL   C22117161   2.855   6.771   5.023 -0.5552 -0.2918 -0.1737
   71MOL   C22217162   2.793   6.875   4.932  0.5752 -0.5283  1.5350
   71MOL   O22317163   2.784   6.693   5.090 -0.3220 -0.4343  0.0491
   71MOL   H22417164   3.192   6.885   5.126  0.9599 -0.5203 -0.2112
   71MOL   H22517165   3.253   6.755   5.203  0.5811  0.4414 -1.7943
   71MOL   H22617166   3.018   6.645   5.168 -1.2827  0.2004 -1.2746
   71MOL   H22717167   2.853   6.963   4.906 -1.6786  0.2298 -1.3411
   71MOL   H22817168   2.706   6.908   4.990 -0.7031 -1.3388  0.1163
   71MOL   H22917169   2.766   6.830   4.837 -1.1716  1.7323  0.9124
   71MOL   C23017170   3.150   6.615   5.002  0.3346  0.6169  0.0985
   71MOL   C23117171   3.222   6.494   5.069 -0.3354  0.3479  0.0863
   71MOL   O23217172   3.202   6.371   5.006  0.0735 -0.1816  0.1776
   71MOL   C23317173   3.090   6.308   5.018 -0.1464 -0.0266  0.9178
   71MOL   C23417174   3.097   6.177   4.949 -0.4808  0.4879 -0.4930
   71MOL   O23517175   2.984   6.351   5.069 -0.5339 -0.3024 -0.4098
   71MOL   H23617176   3.085   6.576   4.923  3.7116  1.2840 -3.1381
   71MOL   H23717177   3.225   6.674   4.950  1.1688 -0.4780  0.0521
   71MOL   H23817178   3.187   6.484   5.171 -0.0773 -2.2117 -0.0548
   71MOL   H23917179   3.149   6.165   4.854 -0.6161 -0.3832 -0.4619
   71MOL   H24017180   2.994   6.142   4.945 -0.3264  0.2043 -2.6363
   71MOL   H24117181   3.148   6.105   5.013 -1.3124 -1.3543 -1.8614
   71MOL   H24217182   3.331   6.502   5.066 -0.2649 -0.8506 -0.7690
   72MOL     C117183   5.464   4.364   0.828  0.2093 -0.3143 -0.0811
   72MOL     C217184   5.348   4.388   0.918  1.3931  0.2899  0.0788
   72MOL     O317185   5.254   4.284   0.888  0.3183  0.4452 -0.0161
   72MOL     C417186   5.119   4.317   0.887  0.0884 -0.7418 -0.2710
   72MOL     C517187   5.023   4.201   0.862 -0.0268  0.2132  0.1132
   72MOL     O617188   5.075   4.435   0.902  0.0566  0.5898  0.0542
   72MOL     H717189   5.519   4.269   0.832  2.1589  0.6136 -2.8563
   72MOL     H817190   5.532   4.448   0.839  1.0044 -0.7969 -1.1429
   72MOL     H917191   5.310   4.484   0.882 -0.2077  0.1140  1.2598
   72MOL    H1017192   5.012   4.197   0.753 -1.0862  0.0618  0.2214
   72MOL    H1117193   4.936   4.207   0.926 -0.4973  1.4119 -0.6178
   72MOL    H1217194   5.052   4.100   0.891 -3.1777 -1.2514 -1.6058
   72MOL    H1317195   5.434   4.378   0.724 -2.1748  0.4138  0.6856
   72MOL    C1417196   5.375   4.385   1.073  0.1068 -0.6407  0.1613
   72MOL    C1517197   5.464   4.501   1.105  0.3332 -0.1295 -0.2203
   72MOL    O1617198   5.398   4.622   1.140  0.1649  0.3278  0.5568
   72MOL    C1717199   5.362   4.721   1.053 -0.3674 -0.3231  0.2580
   72MOL    C1817200   5.310   4.847   1.121 -0.5032  0.6936  0.6851
   72MOL    O1917201   5.379   4.719   0.933 -0.1785 -0.0502 -0.0396
   72MOL    H2017202   5.291   4.379   1.141  0.6426 -4.3257  0.6057
   72MOL    H2117203   5.431   4.293   1.088  0.4598 -0.3344  0.7650
   72MOL    H2217204   5.537   4.530   1.029 -0.5783  0.2534 -0.9524
   72MOL    H2317205   5.203   4.835   1.139 -0.3260 -1.4180  0.5282
   72MOL    H2417206   5.333   4.924   1.048 -2.0346 -0.5476 -1.1513
   72MOL    H2517207   5.370   4.876   1.207  1.6338 -1.7509  0.0815
   72MOL    C2617208   5.552   4.470   1.225 -0.5758  0.3194  0.2435
   72MOL    C2717209   5.472   4.473   1.360  0.3097 -0.4013 -0.3220
   72MOL    O2817210   5.513   4.381   1.461 -0.0548  0.6336  0.1640
   72MOL    C2917211   5.426   4.288   1.514 -0.1667  0.6307 -0.1319
   72MOL    C3017212   5.495   4.195   1.615 -0.2595 -0.1183  0.1543
   72MOL    O3117213   5.310   4.272   1.477 -0.3424 -0.2542  0.6249
   72MOL    H3217214   5.598   4.374   1.200  2.0799  1.8840 -1.0920
   72MOL    H3317215   5.648   4.522   1.231 -0.1239 -0.2602 -1.5493
   72MOL    H3417216   5.365   4.467   1.343  0.0244 -0.8948  1.5587
   72MOL    H3517217   5.508   4.248   1.709  0.4084  0.2646 -0.1548
   72MOL    H3617218   5.590   4.161   1.574 -0.8847  0.3722 -1.7116
   72MOL    H3717219   5.428   4.109   1.623 -0.0383 -0.3195 -0.1608
   72MOL    C3817220   5.494   4.610   1.434 -0.3013 -0.7396 -0.3195
   72MOL    C3917221   5.387   4.665   1.535 -0.5184  0.1070 -0.0701
   72MOL    O4017222   5.438   4.786   1.588  0.2701  0.0040 -0.4045
   72MOL    C4117223   5.475   4.790   1.717 -0.3865 -0.3450 -0.5326
   72MOL    C4217224   5.533   4.928   1.760  0.1291 -0.3890  0.5558
   72MOL    O4317225   5.441   4.707   1.802  0.1602 -0.0402  0.3167
   72MOL    H4417226   5.592   4.609   1.481  1.0484  0.9896 -2.9995
   72MOL    H4517227   5.499   4.684   1.354 -0.1878 -0.5643 -0.1491
   72MOL    H4617228   5.374   4.589   1.611  2.4772 -0.7301 -0.3479
   72MOL    H4717229   5.638   4.913   1.787  0.0155 -0.3961  0.9996
   72MOL    H4817230   5.471   4.965   1.841 -0.8515  0.4779 -0.5799
   72MOL    H4917231   5.520   4.998   1.677  2.0927  1.9911  2.1656
   72MOL    C5017232   5.249   4.701   1.466 -1.1253  0.0221  0.5938
   72MOL    C5117233   5.155   4.770   1.565  0.1880  0.0865 -0.1335
   72MOL    O5217234   5.041   4.821   1.485 -0.4149  0.7526 -0.0775
   72MOL    C5317235   5.047   4.947   1.447 -0.0178 -0.9676 -0.1715
   72MOL    C5417236   4.918   4.991   1.388  0.2409  0.6020 -0.1748
   72MOL    O5517237   5.142   5.023   1.458 -0.3576  0.7824 -0.4953
   72MOL    H5617238   5.277   4.767   1.384  0.9283  0.5157  1.6345
   72MOL    H5717239   5.199   4.612   1.427 -3.3921  0.9880  1.2497
   72MOL    H5817240   5.209   4.855   1.607  0.0435  0.6847 -1.1347
   72MOL    H5917241   4.878   5.090   1.411 -1.9949  0.0141 -1.3719
   72MOL    H6017242   4.837   4.927   1.423 -1.7891  0.9237 -4.0522
   72MOL    H6117243   4.919   4.963   1.283 -1.6214 -1.6032  0.3596
   72MOL    C6217244   5.100   4.685   1.689  0.2493 -0.2718 -0.0202
   72MOL    C6317245   5.000   4.747   1.787  0.2984  0.0517 -0.1823
   72MOL    O6417246   4.867   4.709   1.750 -0.2265  0.3852  0.3227
   72MOL    C6517247   4.784   4.790   1.689 -0.5795  0.7744  0.4928
   72MOL    C6617248   4.667   4.712   1.629  1.0347  0.4406 -0.1493
   72MOL    O6717249   4.796   4.911   1.677  0.3089  0.5846  0.6602
   72MOL    H6817250   5.066   4.586   1.659  1.3710 -0.8661  0.6330
   72MOL    H6917251   5.187   4.670   1.753 -0.7873 -0.7652  1.3204
   72MOL    H7017252   5.024   4.853   1.792  1.7618 -0.2768 -0.1186
   72MOL    H7117253   4.576   4.708   1.689 -0.3826  0.0399 -2.2829
   72MOL    H7217254   4.699   4.607   1.624  1.3052  0.5136  0.0157
   72MOL    H7317255   4.650   4.735   1.524 -1.2337  1.3311  0.4009
   72MOL    C7417256   5.008   4.693   1.932  0.6639  0.4084 -0.1248
   72MOL    C7517257   5.118   4.750   2.028  0.1197 -0.4710  0.0477
   72MOL    O7617258   5.082   4.875   2.080  0.4400  0.2475 -0.0747
   72MOL    C7717259   5.152   4.981   2.060  0.2680 -0.0770  0.4332
   72MOL    C7817260   5.113   5.104   2.137  0.5515  0.0441 -0.0801
   72MOL    O7917261   5.257   4.986   1.993  0.0477 -0.1697 -0.0874
   72MOL    H8017262   4.916   4.700   1.989  0.0341 -0.1579 -1.0684
   72MOL    H8117263   5.009   4.585   1.917 -0.4615  0.6301 -1.8531
   72MOL    H8217264   5.214   4.750   1.976  1.5778  0.3048  2.5963
   72MOL    H8317265   5.118   5.198   2.083 -1.1997  0.9423  1.2383
   72MOL    H8417266   5.176   5.109   2.226 -0.1716 -0.4226  0.4743
   72MOL    H8517267   5.012   5.090   2.175  1.5113 -1.9051  1.8735
   72MOL    C8617268   5.140   4.661   2.155  0.3609 -0.2145 -0.1249
   72MOL    C8717269   5.170   4.515   2.130 -0.5578  0.1142 -0.0885
   72MOL    O8817270   5.299   4.500   2.079 -0.3276  0.0786 -0.2903
   72MOL    C8917271   5.317   4.401   1.992  0.1623  0.7069 -0.0992
   72MOL    C9017272   5.459   4.394   1.950 -0.1787 -0.1999 -0.5953
   72MOL    O9117273   5.235   4.318   1.954 -0.1405  0.6442  0.4120
   72MOL    H9217274   5.207   4.721   2.217  0.8214 -2.5833  1.7146
   72MOL    H9317275   5.050   4.675   2.216  1.1310 -0.1233  1.0052
   72MOL    H9417276   5.097   4.487   2.054 -2.2282 -0.1382  1.5884
   72MOL    H9517277   5.514   4.442   2.031 -0.7991  0.0789 -0.3302
   72MOL    H9617278   5.470   4.457   1.862 -1.2703  1.0610  0.1420
   72MOL    H9717279   5.490   4.291   1.932 -1.0348 -0.3431 -1.3122
   72MOL    C9817280   5.153   4.433   2.257 -0.5261  0.2828 -0.1500
   72MOL    C9917281   5.253   4.484   2.369 -0.0162 -0.0523 -0.1262
   72MOL   O10017282   5.170   4.542   2.477  0.2633 -0.2692  0.6403
   72MOL   C10117283   5.193   4.671   2.505 -0.1226 -0.0582  0.3233
   72MOL   C10217284   5.089   4.734   2.594 -0.5938  0.2896  0.1598
   72MOL   O10317285   5.292   4.738   2.469 -0.2854  0.1492  0.0811
   72MOL   H10417286   5.051   4.449   2.290 -0.9784 -2.5144 -0.1089
   72MOL   H10517287   5.166   4.329   2.227 -2.1798 -0.4862  1.7092
   72MOL   H10617288   5.321   4.551   2.318  1.0759  0.6672  2.2149
   72MOL   H10717289   5.040   4.654   2.650 -0.6997  0.1784 -0.0926
   72MOL   H10817290   5.019   4.776   2.521  1.1389  1.7266 -0.6974
   72MOL   H10917291   5.143   4.811   2.648  1.5698 -1.6037  0.7589
   72MOL   C11017292   5.339   4.373   2.431 -0.5248 -0.2016  0.2504
   72MOL   C11117293   5.438   4.418   2.532  0.2793  0.2434 -0.0700
   72MOL   O11217294   5.487   4.304   2.600 -0.3713 -0.5141  0.5435
   72MOL   C11317295   5.496   4.297   2.739  0.2292  0.1727  0.7414
   72MOL   C11417296   5.528   4.159   2.781  0.2131  0.3747 -0.4789
   72MOL   O11517297   5.485   4.393   2.819 -0.4123  0.7085  0.4443
   72MOL   H11617298   5.258   4.317   2.478 -2.4988  0.1737 -2.5432
   72MOL   H11717299   5.391   4.303   2.365 -1.9443 -1.3699  0.3357
   72MOL   H11817300   5.393   4.484   2.606 -0.4047  2.7302 -2.5746
   72MOL   H11917301   5.480   4.073   2.734  0.8092 -0.2340  0.0056
   72MOL   H12017302   5.509   4.135   2.886  0.3490  0.5188 -0.4220
   72MOL   H12117303   5.631   4.133   2.756 -0.1993 -0.1984 -1.6133
   72MOL   C12217304   5.565   4.486   2.473  0.2110 -0.6307 -0.2497
   72MOL   C12317305   5.676   4.543   2.559 -0.4892 -0.2865 -0.3434
   72MOL   O12417306   5.792   4.578   2.482  0.8279 -0.7298 -0.3871
   72MOL   C12517307   5.896   4.504   2.473 -0.6400  0.4480  0.3175
   72MOL   C12617308   6.011   4.578   2.410 -0.1194  0.8739 -0.0350
   72MOL   O12717309   5.907   4.385   2.502 -0.5220 -0.7664  0.0152
   72MOL   H12817310   5.614   4.418   2.403  0.4841 -0.5910 -0.0990
   72MOL   H12917311   5.521   4.572   2.422 -0.9161  0.4770  2.5160
   72MOL   H13017312   5.702   4.463   2.629  0.9856  0.9041  0.4859
   72MOL   H13117313   6.023   4.541   2.308 -0.3442  1.5247 -0.2976
   72MOL   H13217314   6.104   4.559   2.464 -0.4633 -0.4003  0.1138
   72MOL   H13317315   6.003   4.686   2.419 -1.2329  0.9387 -1.6502
   72MOL   C13417316   5.642   4.678   2.632 -0.6284  0.3424  0.3036
   72MOL   C13517317   5.688   4.688   2.782  0.3297  0.9390 -0.1073
   72MOL   O13617318   5.827   4.702   2.776  0.0478  0.0370 -0.4797
   72MOL   C13717319   5.906   4.594   2.797 -0.0518 -0.3578  0.0569
   72MOL   C13817320   6.053   4.626   2.782 -0.2430  0.3261  0.1812
   72MOL   O13917321   5.866   4.475   2.813  0.3492 -0.0220 -0.2744
   72MOL   H14017322   5.684   4.761   2.575  0.9621 -0.3865  0.4205
   72MOL   H14117323   5.535   4.702   2.629 -0.3246  1.5936 -1.2906
   72MOL   H14217324   5.655   4.598   2.833  1.9377  0.0351 -0.6397
   72MOL   H14317325   6.070   4.708   2.713  4.0373  0.9606  1.8442
   72MOL   H14417326   6.108   4.538   2.747  0.2978  1.0056 -0.6968
   72MOL   H14517327   6.094   4.655   2.878  2.5491 -3.4109  0.2596
   72MOL   C14617328   5.630   4.817   2.854  0.4820  0.0555  0.3337
   72MOL   C14717329   5.476   4.823   2.871  0.3167  0.4780 -0.5418
   72MOL   O14817330   5.439   4.710   2.952 -0.2056 -0.1277  0.0257
   72MOL   C14917331   5.319   4.657   2.949  0.5361 -0.2762 -0.0641
   72MOL   C15017332   5.298   4.564   3.064 -0.6289 -0.2206 -0.5667
   72MOL   O15117333   5.224   4.703   2.885  0.3855  0.1447  0.1293
   72MOL   H15217334   5.674   4.827   2.953 -1.4473  2.7435  0.9905
   72MOL   H15317335   5.661   4.900   2.790 -0.5233  0.0814 -0.1305
   72MOL   H15417336   5.441   4.808   2.768  0.7585  0.3946 -0.6831
   72MOL   H15517337   5.282   4.621   3.155 -0.9663 -0.9837 -0.1538
   72MOL   H15617338   5.381   4.496   3.083  0.2251  1.1863  0.8576
   72MOL   H15717339   5.213   4.497   3.058  0.5819 -1.7923 -0.4391
   72MOL   C15817340   5.428   4.960   2.926  0.4184 -0.8608  0.6059
   72MOL   C15917341   5.436   5.085   2.831  0.4231  0.0737  0.3551
   72MOL   O16017342   5.347   5.078   2.716  0.3810 -0.0997 -0.3576
   72MOL   C16117343   5.404   5.071   2.585  0.1225  0.6886  0.2108
   72MOL   C16217344   5.293   5.073   2.477  0.0727  0.4776 -0.1486
   72MOL   O16317345   5.523   5.053   2.557 -0.2193 -0.0995 -0.5647
   72MOL   H16417346   5.325   4.946   2.959  0.7331  3.4523  3.7551
   72MOL   H16517347   5.485   4.993   3.012 -1.0048  1.3844  0.7139
   72MOL   H16617348   5.541   5.088   2.800  0.7830  0.3338  1.5438
   72MOL   H16717349   5.316   5.136   2.391  0.8251 -2.1967 -1.9533
   72MOL   H16817350   5.194   5.104   2.509  0.3350  2.5590 -1.2393
   72MOL   H16917351   5.295   4.978   2.425  0.4389  0.9862 -1.0683
   72MOL   C17017352   5.391   5.209   2.904 -0.2874  0.3069 -0.2209
   72MOL   C17117353   5.374   5.344   2.823  0.4316 -0.8206 -0.4153
   72MOL   O17217354   5.333   5.443   2.912  0.8534 -0.0990  0.1854
   72MOL   C17317355   5.241   5.537   2.867 -0.2947 -0.3804 -0.3938
   72MOL   C17417356   5.194   5.642   2.966 -0.0120  0.0979 -0.0876
   72MOL   O17517357   5.208   5.554   2.751 -0.9931 -0.5556 -0.0922
   72MOL   H17617358   5.306   5.184   2.966  0.8289 -0.5096  1.0015
   72MOL   H17717359   5.461   5.235   2.984 -0.7487  1.0902 -0.0708
   72MOL   H17817360   5.290   5.331   2.754  0.4979 -0.0140 -0.6580
   72MOL   H17917361   5.134   5.597   3.044 -0.6128 -1.1625 -1.2488
   72MOL   H18017362   5.121   5.698   2.907 -0.7223 -0.4258  0.2934
   72MOL   H18117363   5.268   5.704   3.016 -0.8038  1.5465 -0.6563
   72MOL   C18217364   5.500   5.393   2.741 -0.4901 -1.1760 -0.8322
   72MOL   C18317365   5.638   5.420   2.812 -0.5656  0.2715  0.0946
   72MOL   O18417366   5.687   5.299   2.861  0.3273  0.6171 -0.0191
   72MOL   C18517367   5.777   5.302   2.965 -0.2944 -0.1916 -0.1988
   72MOL   C18617368   5.809   5.157   3.020 -0.2790  0.1733 -0.0845
   72MOL   O18717369   5.812   5.405   3.022 -0.3098  0.3432 -0.3042
   72MOL   H18817370   5.516   5.326   2.657  0.0048 -0.7405 -1.0866
   72MOL   H18917371   5.454   5.477   2.688  1.5274  0.4128 -0.0951
   72MOL   H19017372   5.615   5.497   2.885  1.1763  1.7559 -0.8690
   72MOL   H19117373   5.757   5.073   2.974  2.3170 -0.2574 -2.3560
   72MOL   H19217374   5.775   5.161   3.124  0.6518  1.6459  0.1844
   72MOL   H19317375   5.917   5.141   3.021 -0.3074  0.0104  1.4867
   72MOL   C19417376   5.743   5.482   2.714  0.1209 -1.0597  0.2212
   72MOL   C19517377   5.705   5.603   2.630 -0.0017 -0.1079  0.7753
   72MOL   O19617378   5.655   5.692   2.727  0.0998 -0.1466  0.1705
   72MOL   C19717379   5.542   5.759   2.704  0.0424 -0.2706 -0.2706
   72MOL   C19817380   5.511   5.855   2.826  0.4096 -0.6035  0.1080
   72MOL   O19917381   5.469   5.751   2.602  0.1553 -0.2065  0.1550
   72MOL   H20017382   5.829   5.509   2.775  1.0951  0.5573 -1.7905
   72MOL   H20117383   5.773   5.407   2.640  0.5929  0.6095 -1.3307
   72MOL   H20217384   5.634   5.571   2.554  0.8907  1.0264 -0.5597
   72MOL   H20317385   5.424   5.913   2.796  0.7302 -0.4182 -0.4794
   72MOL   H20417386   5.599   5.919   2.831  0.0460  0.0993 -1.8797
   72MOL   H20517387   5.491   5.802   2.919  1.1485  1.4056  1.4610
   72MOL   C20617388   5.829   5.660   2.560 -0.2905  0.0197 -1.0297
   72MOL   C20717389   5.800   5.773   2.460  0.6166 -0.0633 -0.6084
   72MOL   O20817390   5.920   5.846   2.426  0.4031 -0.2600 -0.0018
   72MOL   C20917391   5.963   5.933   2.522  0.4584  0.8416 -0.5040
   72MOL   C21017392   6.073   6.020   2.469  0.5786  0.3877  0.0107
   72MOL   O21117393   5.917   5.944   2.631 -0.0426 -0.5589 -0.1470
   72MOL   H21217394   5.896   5.703   2.634 -2.5890 -0.7702  1.5525
   72MOL   H21317395   5.887   5.588   2.503  2.2097  0.6295  0.6559
   72MOL   H21417396   5.719   5.828   2.507 -0.8048 -2.1237 -0.5786
   72MOL   H21517397   6.106   5.967   2.379  1.2597 -0.7378  0.9208
   72MOL   H21617398   6.154   6.033   2.540 -1.6482  0.2322  2.6516
   72MOL   H21717399   6.018   6.110   2.442 -0.1165  0.6623  2.2686
   72MOL   C21817400   5.729   5.730   2.335 -0.4315  0.1162  0.0068
   72MOL   C21917401   5.646   5.842   2.272 -0.3934 -0.4019 -0.0531
   72MOL   O22017402   5.729   5.935   2.201 -0.4499  0.2469 -0.5488
   72MOL   C22117403   5.752   6.060   2.253  0.5184  0.8628  0.1727
   72MOL   C22217404   5.843   6.140   2.163  0.0002  0.3508  1.0703
   72MOL   O22317405   5.704   6.110   2.353 -0.0406 -0.0678 -0.3671
   72MOL   H22417406   5.792   5.670   2.269  0.9060  0.1603  1.2091
   72MOL   H22517407   5.648   5.663   2.365  0.5484 -1.3039 -0.4645
   72MOL   H22617408   5.592   5.881   2.359 -2.7096  0.7004 -1.9146
   72MOL   H22717409   5.949   6.116   2.170 -0.1171 -0.1185  1.2518
   72MOL   H22817410   5.837   6.245   2.189 -0.4004  0.7298 -0.4705
   72MOL   H22917411   5.802   6.128   2.062 -1.5387 -0.7846  1.7916
   72MOL   C23017412   5.548   5.793   2.169 -0.0423  0.1431  0.0469
   72MOL   C23117413   5.463   5.906   2.103  0.9726 -1.0972  0.2373
   72MOL   O23217414   5.364   5.846   2.023 -0.2454  0.0323  0.2511
   72MOL   C23317415   5.234   5.857   2.062  0.2044 -0.1594 -0.2079
   72MOL   C23417416   5.135   5.794   1.957 -0.0488 -0.6625  0.2147
   72MOL   O23517417   5.206   5.906   2.174  0.4029  0.1249 -0.0988
   72MOL   H23617418   5.602   5.733   2.095  0.7715  0.4683  0.3757
   72MOL   H23717419   5.479   5.723   2.217  2.3341  0.0980  3.5391
   72MOL   H23817420   5.513   5.959   2.022 -3.1923  1.6424 -0.7288
   72MOL   H23917421   5.148   5.851   1.864 -0.6606  1.3363  1.3227
   72MOL   H24017422   5.034   5.797   1.998 -0.4530 -0.2599 -0.7672
   72MOL   H24117423   5.158   5.689   1.942 -0.5827 -0.3642 -3.1279
   72MOL   H24217424   5.433   5.974   2.182 -2.6480 -4.0468  1.5530
   73MOL     C117425   3.063   1.671   2.445  0.3238 -0.2680  0.0785
   73MOL     C217426   2.952   1.569   2.401  0.0852 -0.3697  0.2694
   73MOL     O317427   2.978   1.521   2.277 -0.1963 -0.1835  0.6068
   73MOL     C417428   2.917   1.588   2.165 -0.2847 -0.3897  0.0808
   73MOL     C517429   2.931   1.507   2.035 -0.5043  0.4966  0.4921
   73MOL     O617430   2.847   1.690   2.171  0.0687  0.0414 -0.2782
   73MOL     H717431   3.059   1.694   2.552  1.4351  0.5271 -0.0463
   73MOL     H817432   3.030   1.764   2.398 -1.9800 -1.8510 -1.5668
   73MOL     H917433   2.850   1.605   2.412  0.4993  1.3378 -1.2302
   73MOL    H1017434   3.031   1.537   2.003 -0.0658 -0.7929  0.6317
   73MOL    H1117435   2.849   1.526   1.966  0.4513 -0.7509 -1.0123
   73MOL    H1217436   2.936   1.404   2.072 -1.3952 -0.1147 -1.0571
   73MOL    H1317437   3.168   1.650   2.424  0.7509  0.3700  1.5062
   73MOL    C1417438   2.966   1.439   2.481  0.5214 -0.3051 -0.1925
   73MOL    C1517439   2.901   1.444   2.622  0.2233  0.8292 -0.2931
   73MOL    O1617440   2.770   1.393   2.631  0.1215  0.5255 -0.1012
   73MOL    C1717441   2.671   1.464   2.670  0.0202  0.0124 -0.0942
   73MOL    C1817442   2.533   1.395   2.658  0.0014  0.0256  0.2938
   73MOL    O1917443   2.674   1.582   2.708 -0.5684  0.1790  0.2020
   73MOL    H2017444   2.910   1.359   2.434 -1.6972  2.1190 -1.8288
   73MOL    H2117445   3.070   1.406   2.476 -0.0450 -1.9732 -1.1188
   73MOL    H2217446   2.899   1.548   2.656  1.2117 -0.3608  3.6987
   73MOL    H2317447   2.474   1.420   2.570  1.9341  0.4601 -0.9130
   73MOL    H2417448   2.465   1.404   2.743 -1.0816  2.8427 -0.7999
   73MOL    H2517449   2.557   1.289   2.649 -1.5074 -0.5157  2.1813
   73MOL    C2617450   2.994   1.372   2.721  0.2848  0.0826  0.6344
   73MOL    C2717451   2.955   1.375   2.867  0.2329  0.0010  0.6423
   73MOL    O2817452   2.927   1.242   2.904 -0.0566  0.2149 -0.2188
   73MOL    C2917453   2.811   1.194   2.946  0.6796 -0.5695 -0.2038
   73MOL    C3017454   2.808   1.042   2.980  0.4421  0.2048  0.0966
   73MOL    O3117455   2.710   1.258   2.961  0.2738  0.3687  0.5507
   73MOL    H3217456   3.004   1.271   2.680  1.1076  0.6044 -0.4715
   73MOL    H3317457   3.089   1.425   2.713 -0.0976  0.4973 -1.5529
   73MOL    H3417458   2.865   1.429   2.897  0.5462  0.8197  0.1010
   73MOL    H3517459   2.727   0.990   2.931  0.2550 -0.0078  0.6327
   73MOL    H3617460   2.803   1.029   3.088 -0.1597  4.1041  0.6245
   73MOL    H3717461   2.901   0.997   2.945  0.7430  0.6426  0.3244
   73MOL    C3817462   3.070   1.406   2.964  0.2100 -0.4323 -0.7743
   73MOL    C3917463   3.116   1.553   2.963 -0.0227  0.2732  0.9857
   73MOL    O4017464   2.999   1.625   3.006 -0.3288 -0.1017  0.2106
   73MOL    C4117465   2.943   1.722   2.934 -0.4074  1.0269  0.0090
   73MOL    C4217466   2.841   1.804   3.014  0.3583  0.3122 -0.2788
   73MOL    O4317467   2.968   1.741   2.815  0.5259 -0.5244 -0.0009
   73MOL    H4417468   3.043   1.379   3.066 -0.7462  1.3891 -0.5199
   73MOL    H4517469   3.157   1.345   2.940  0.1292  0.1576 -2.6640
   73MOL    H4617470   3.147   1.574   2.861 -0.3244 -1.8603  0.4252
   73MOL    H4717471   2.863   1.802   3.121 -3.3322 -1.5889  0.5188
   73MOL    H4817472   2.742   1.763   2.996  0.8727 -1.6969  1.3164
   73MOL    H4917473   2.845   1.907   2.977 -2.9115 -0.1865 -2.1988
   73MOL    C5017474   3.230   1.575   3.062 -0.5847 -0.0899  0.4011
   73MOL    C5117475   3.291   1.714   3.067 -0.7998  0.0456  0.1151
   73MOL    O5217476   3.212   1.788   3.157 -0.0143  0.0442 -0.1884
   73MOL    C5317477   3.171   1.908   3.132 -0.2558 -0.2931 -0.8145
   73MOL    C5417478   3.067   1.956   3.235  0.5697 -0.0093  0.2838
   73MOL    O5517479   3.195   1.970   3.032  0.6261 -0.0016  0.1311
   73MOL    H5617480   3.198   1.539   3.160  1.1071  1.7788  1.6672
   73MOL    H5717481   3.311   1.510   3.029 -0.0268  1.0787 -0.5358
   73MOL    H5817482   3.293   1.770   2.973 -0.1696 -1.0419 -0.5177
   73MOL    H5917483   3.001   2.021   3.178 -2.2829 -0.2565  3.1628
   73MOL    H6017484   3.116   2.019   3.309 -1.4599  0.9464  0.8368
   73MOL    H6117485   3.021   1.869   3.282 -0.5071 -0.0166 -0.7660
   73MOL    C6217486   3.436   1.717   3.129 -0.1762 -0.4248  0.0995
   73MOL    C6317487   3.495   1.856   3.160 -0.4283 -0.4794  0.1416
   73MOL    O6417488   3.529   1.868   3.298 -0.0692  0.4235  0.0010
   73MOL    C6517489   3.476   1.955   3.377  0.2072  0.1559  0.0490
   73MOL    C6617490   3.529   1.935   3.516 -0.1796 -0.0269  0.4145
   73MOL    O6717491   3.392   2.041   3.341  0.0285  0.1798 -0.2996
   73MOL    H6817492   3.428   1.660   3.221  1.2352  0.7501  0.9746
   73MOL    H6917493   3.515   1.666   3.072  1.3435  1.2472  0.6606
   73MOL    H7017494   3.430   1.942   3.141  0.5254  0.3197  0.4691
   73MOL    H7117495   3.481   1.850   3.564 -2.1602 -0.1082 -1.6379
   73MOL    H7217496   3.523   2.023   3.580  0.5632  0.8766 -0.7547
   73MOL    H7317497   3.634   1.906   3.512  0.0377  0.6896  0.8482
   73MOL    C7417498   3.616   1.889   3.073  0.6048  0.4542 -0.3102
   73MOL    C7517499   3.592   1.920   2.923 -0.4927  0.1584  0.7365
   73MOL    O7617500   3.574   2.061   2.908  0.0519 -0.5261  0.1042
   73MOL    C7717501   3.491   2.114   2.819 -0.6042 -0.3213  0.0068
   73MOL    C7817502   3.548   2.243   2.772  0.3692  0.1738 -0.1624
   73MOL    O7917503   3.387   2.065   2.773  0.3292  0.4376 -0.0715
   73MOL    H8017504   3.680   1.962   3.121 -0.3280 -0.3827  2.3019
   73MOL    H8117505   3.685   1.806   3.088 -0.2927 -0.2951 -0.2552
   73MOL    H8217506   3.502   1.867   2.891 -1.0352  0.3326  1.9724
   73MOL    H8317507   3.545   2.326   2.843  0.5935  0.9259 -1.0184
   73MOL    H8417508   3.493   2.285   2.687 -0.2026  0.2858  0.2627
   73MOL    H8517509   3.652   2.231   2.742  0.0810  0.5423 -1.3341
   73MOL    C8617510   3.704   1.897   2.830 -0.1802  0.2800  0.0241
   73MOL    C8717511   3.717   1.756   2.775 -0.2964  0.3110  0.2335
   73MOL    O8817512   3.597   1.726   2.693 -0.4354  0.3875  0.0935
   73MOL    C8917513   3.495   1.642   2.738  0.2150 -0.1398 -0.0709
   73MOL    C9017514   3.371   1.631   2.650 -0.1263 -0.7838 -1.1958
   73MOL    O9117515   3.497   1.582   2.844 -0.7863  0.1125 -0.0335
   73MOL    H9217516   3.691   1.964   2.745 -0.0303 -0.5965 -0.7070
   73MOL    H9317517   3.791   1.926   2.889  0.6832 -1.7809 -0.1751
   73MOL    H9417518   3.713   1.674   2.847 -2.1087  0.7264  0.6267
   73MOL    H9517519   3.406   1.597   2.553  1.6687 -2.0809 -0.1203
   73MOL    H9617520   3.308   1.720   2.655  3.6903  2.0210 -1.2852
   73MOL    H9717521   3.300   1.559   2.690 -0.3149 -0.0698 -0.1973
   73MOL    C9817522   3.839   1.749   2.679  0.3384 -0.1977  0.5311
   73MOL    C9917523   3.973   1.732   2.758  0.1167  0.3943  0.2066
   73MOL   O10017524   3.991   1.601   2.804 -0.5878  0.0789 -0.0447
   73MOL   C10117525   3.961   1.576   2.936 -0.2321 -0.6660  0.5682
   73MOL   C10217526   3.965   1.433   2.959  0.2162  0.3288  0.4559
   73MOL   O10317527   3.922   1.653   3.022  0.5883  0.1566 -0.1025
   73MOL   H10417528   3.830   1.666   2.609 -2.0807  2.9137 -3.0445
   73MOL   H10517529   3.847   1.841   2.621  0.6914  0.3469  1.4333
   73MOL   H10617530   3.968   1.802   2.842  0.3619  0.0678  0.4959
   73MOL   H10717531   3.885   1.388   3.018  0.6389 -1.6007 -0.3952
   73MOL   H10817532   4.060   1.421   3.009  0.0635  3.0660  1.4611
   73MOL   H10917533   3.977   1.375   2.867  0.4273  0.4922  0.3810
   73MOL   C11017534   4.097   1.759   2.677 -0.0041 -0.3604 -0.3196
   73MOL   C11117535   4.221   1.783   2.757  0.2938 -0.5189  0.6473
   73MOL   O11217536   4.326   1.825   2.666  0.3731  0.5820  0.2881
   73MOL   C11317537   4.435   1.738   2.652 -0.4790  0.4670  0.0807
   73MOL   C11417538   4.544   1.791   2.563  0.4425  0.2767 -0.4985
   73MOL   O11517539   4.452   1.626   2.701  0.2439 -0.1725  0.4258
   73MOL   H11617540   4.103   1.678   2.605  1.6193  0.1581 -0.7940
   73MOL   H11717541   4.087   1.843   2.609 -4.0220 -0.3588  0.1337
   73MOL   H11817542   4.245   1.692   2.811 -1.2294 -0.7292  1.0031
   73MOL   H11917543   4.638   1.741   2.586  0.6999  1.3737  0.9409
   73MOL   H12017544   4.559   1.896   2.588 -1.3191 -0.2839  3.1903
   73MOL   H12117545   4.518   1.767   2.460  0.8798 -0.4371 -0.4432
   73MOL   C12217546   4.202   1.890   2.861 -0.5335 -0.4918  0.2620
   73MOL   C12317547   4.185   2.033   2.808 -0.6180 -0.3193 -0.0141
   73MOL   O12417548   4.065   2.056   2.739 -0.1199 -0.3550 -0.1408
   73MOL   C12517549   4.066   2.130   2.620  0.3166 -0.2128 -0.1814
   73MOL   C12617550   3.924   2.132   2.561  0.4288 -0.2765 -0.2683
   73MOL   O12717551   4.165   2.176   2.568 -0.3260  0.4302 -0.0994
   73MOL   H12817552   4.119   1.879   2.930  1.2676  0.7686  2.7325
   73MOL   H12917553   4.293   1.894   2.922 -0.9750 -0.7853  0.9373
   73MOL   H13017554   4.267   2.065   2.743 -0.1738 -0.1888  0.6043
   73MOL   H13117555   3.886   2.030   2.575  3.5149 -1.4293  0.2541
   73MOL   H13217556   3.932   2.159   2.456 -1.4140 -0.6780 -0.5316
   73MOL   H13317557   3.867   2.204   2.620 -0.1422 -1.9216  1.2508
   73MOL   C13417558   4.170   2.128   2.933  0.8591  0.0094 -0.1702
   73MOL   C13517559   4.295   2.207   2.977  0.2246  0.7207 -0.3427
   73MOL   O13617560   4.398   2.113   3.007  0.2296 -0.1768 -0.3203
   73MOL   C13717561   4.491   2.151   3.100 -0.6143  0.6499 -0.1245
   73MOL   C13817562   4.609   2.047   3.120  0.1484 -0.7984 -0.3663
   73MOL   O13917563   4.490   2.254   3.160 -0.0658 -0.6194 -0.5081
   73MOL   H14017564   4.093   2.203   2.911 -0.3547 -1.0045  0.5245
   73MOL   H14117565   4.125   2.066   3.011 -1.4839  0.4639 -1.1016
   73MOL   H14217566   4.271   2.275   3.060  1.6963 -0.6173  1.2228
   73MOL   H14317567   4.572   1.978   3.196  0.6622 -1.2386 -0.5141
   73MOL   H14417568   4.697   2.106   3.146 -0.1472  0.4040 -2.0006
   73MOL   H14517569   4.625   1.989   3.029 -1.4252 -0.9276 -0.5893
   73MOL   C14617570   4.346   2.296   2.859 -0.2921  0.0760 -0.0634
   73MOL   C14717571   4.266   2.426   2.824 -0.2163 -0.5144 -0.0233
   73MOL   O14817572   4.280   2.525   2.926  0.3586 -0.1170 -0.3495
   73MOL   C14917573   4.168   2.556   3.004 -0.1966 -0.1289 -0.4002
   73MOL   C15017574   4.186   2.666   3.107  0.1357 -0.3458 -0.7137
   73MOL   O15117575   4.061   2.495   3.001 -0.0361  0.0100 -0.0286
   73MOL   H15217576   4.448   2.322   2.885 -0.1314 -1.4072  0.8478
   73MOL   H15317577   4.356   2.234   2.770 -2.5832  1.6902 -1.5068
   73MOL   H15417578   4.166   2.384   2.810 -0.4760 -0.0904  0.5238
   73MOL   H15517579   4.101   2.726   3.074 -0.4291 -0.2197  0.8767
   73MOL   H15617580   4.276   2.720   3.078  1.1146 -1.1894  0.6858
   73MOL   H15717581   4.184   2.637   3.213 -0.3131 -0.7406 -0.8276
   73MOL   C15817582   4.329   2.492   2.697 -0.5683  0.1288 -0.3759
   73MOL   C15917583   4.262   2.621   2.645 -1.0707  0.0906  0.6864
   73MOL   O16017584   4.353   2.721   2.681  0.0544  0.0374 -0.4482
   73MOL   C16117585   4.305   2.845   2.684 -0.0229  0.2317  0.1791
   73MOL   C16217586   4.418   2.944   2.701 -0.1376  0.1394  0.1356
   73MOL   O16317587   4.190   2.890   2.678  0.1430 -0.1183 -0.8141
   73MOL   H16417588   4.434   2.508   2.722 -0.1448 -3.2095  0.1610
   73MOL   H16517589   4.330   2.421   2.615 -0.7761  0.7313 -0.9019
   73MOL   H16617590   4.168   2.634   2.700 -1.2472  0.4442  0.3108
   73MOL   H16717591   4.468   2.930   2.797  1.8479  0.5118 -0.8049
   73MOL   H16817592   4.398   3.048   2.675 -1.6813 -1.0218 -3.5466
   73MOL   H16917593   4.487   2.908   2.625  0.3349  1.5954 -0.1411
   73MOL   C17017594   4.232   2.614   2.492 -0.2016  0.5167  0.1236
   73MOL   C17117595   4.117   2.509   2.456 -0.0397 -1.2869  0.1177
   73MOL   O17217596   3.985   2.556   2.494 -0.3345  0.6078 -0.4264
   73MOL   C17317597   3.938   2.513   2.617 -0.2676  0.4101 -0.5479
   73MOL   C17417598   3.815   2.588   2.651 -0.0776 -0.0471 -0.2764
   73MOL   O17517599   3.979   2.424   2.689  0.0913  0.4051 -0.0544
   73MOL   H17617600   4.200   2.713   2.459  0.6444  0.7877  0.1022
   73MOL   H17717601   4.324   2.590   2.438 -0.9573 -1.3861 -0.3475
   73MOL   H17817602   4.133   2.411   2.500 -0.1911 -1.2956  0.1527
   73MOL   H17917603   3.778   2.527   2.734 -1.2152  0.7077 -0.2127
   73MOL   H18017604   3.746   2.612   2.570 -0.5387 -0.8809 -0.1393
   73MOL   H18117605   3.843   2.687   2.689 -0.9552 -0.1168  0.5763
   73MOL   C18217606   4.104   2.488   2.305  0.3119  0.2948 -0.1158
   73MOL   C18317607   4.220   2.432   2.235  0.4072  0.0078 -0.1865
   73MOL   O18417608   4.254   2.308   2.294 -0.2280 -0.2407  0.3099
   73MOL   C18517609   4.379   2.284   2.332  0.3208  0.5356 -0.7386
   73MOL   C18617610   4.400   2.140   2.369 -0.6808  0.3409  0.1232
   73MOL   O18717611   4.474   2.356   2.333 -0.6331 -0.4466 -0.1124
   73MOL   H18817612   4.015   2.426   2.294  1.2666 -0.8615 -1.4955
   73MOL   H18917613   4.080   2.580   2.252 -2.1914 -1.2122 -1.7049
   73MOL   H19017614   4.300   2.503   2.256  2.2621 -1.6557 -1.4456
   73MOL   H19117615   4.412   2.127   2.477 -0.7234  3.0083  0.4751
   73MOL   H19217616   4.493   2.117   2.318  0.1056  1.1414  1.1754
   73MOL   H19317617   4.319   2.078   2.332 -0.5304  1.3860 -2.0022
   73MOL   C19417618   4.180   2.402   2.085 -0.1768  0.0783 -0.1826
   73MOL   C19517619   4.154   2.524   1.989 -0.0500  0.2725 -0.4337
   73MOL   O19617620   4.273   2.586   1.958 -1.0183 -0.7163 -0.1293
   73MOL   C19717621   4.314   2.700   2.029  0.9915 -0.3845  0.2219
   73MOL   C19817622   4.445   2.751   1.977  0.1213 -0.3121 -0.1168
   73MOL   O19917623   4.258   2.754   2.127  0.1740 -0.0578  0.1416
   73MOL   H20017624   4.243   2.325   2.041 -0.0996  0.0171  0.0358
   73MOL   H20117625   4.083   2.354   2.083  0.4696 -1.3715  1.7792
   73MOL   H20217626   4.091   2.599   2.036  1.3929  0.2272  1.6101
   73MOL   H20317627   4.522   2.690   2.023  1.4353  2.2868  1.2412
   73MOL   H20417628   4.466   2.852   2.012 -0.7072 -0.8279  1.9799
   73MOL   H20517629   4.441   2.743   1.868 -0.7171  1.5931 -0.2564
   73MOL   C20617630   4.081   2.483   1.857  0.4795 -0.0886 -0.0179
   73MOL   C20717631   4.042   2.608   1.770  0.0654  0.3141 -0.4243
   73MOL   O20817632   3.992   2.551   1.646 -0.7873  0.4608  0.3087
   73MOL   C20917633   4.013   2.622   1.534 -0.3376  0.1656 -0.7784
   73MOL   C21017634   3.924   2.571   1.421 -0.3038 -0.3099  0.9418
   73MOL   O21117635   4.081   2.725   1.524  0.2947 -0.1376  0.0068
   73MOL   H21217636   4.131   2.412   1.791  0.4441 -0.6788  0.5778
   73MOL   H21317637   3.990   2.430   1.884  1.3710 -1.4411  0.4270
   73MOL   H21417638   4.131   2.668   1.750  0.6357 -0.9193 -1.6753
   73MOL   H21517639   3.956   2.469   1.401 -1.9754 -0.3903 -1.4388
   73MOL   H21617640   3.951   2.622   1.329  0.0912  0.8388  1.6857
   73MOL   H21717641   3.823   2.583   1.460 -0.2823  1.2586  0.5507
   73MOL   C21817642   3.941   2.700   1.844 -0.0168  0.1916 -0.0385
   73MOL   C21917643   3.809   2.627   1.873 -0.2616  0.0023 -0.4475
   73MOL   O22017644   3.739   2.689   1.974  0.2755  0.1670 -0.5788
   73MOL   C22117645   3.763   2.647   2.095 -0.2057  0.1833 -0.2239
   73MOL   C22217646   3.661   2.717   2.189 -0.0206 -0.0640  0.3694
   73MOL   O22317647   3.851   2.566   2.134  0.1636 -0.0254 -0.6751
   73MOL   H22417648   3.992   2.736   1.933 -0.0373  1.3919 -0.4963
   73MOL   H22517649   3.931   2.782   1.772  1.1601  0.3460 -0.0374
   73MOL   H22617650   3.821   2.521   1.893 -1.1590  0.4025  2.4583
   73MOL   H22717651   3.639   2.823   2.174 -1.4303 -0.3947 -0.0029
   73MOL   H22817652   3.690   2.699   2.293 -2.6662 -1.3347  0.9383
   73MOL   H22917653   3.562   2.672   2.178  0.0598 -0.4116  1.0082
   73MOL   C23017654   3.713   2.638   1.757 -0.0123 -0.3378 -0.1295
   73MOL   C23117655   3.587   2.549   1.759  0.4390  0.1475 -0.7412
   73MOL   O23217656   3.498   2.567   1.654 -0.4830  0.7005 -0.4728
   73MOL   C23317657   3.516   2.503   1.541 -0.1609 -0.2016 -0.4106
   73MOL   C23417658   3.399   2.515   1.450 -0.4075 -0.8471 -0.0047
   73MOL   O23517659   3.604   2.420   1.515  0.4162  0.8837 -0.1431
   73MOL   H23617660   3.679   2.742   1.752 -1.6104 -0.9166 -1.6416
   73MOL   H23717661   3.761   2.626   1.660  1.2573 -2.1836  0.6945
   73MOL   H23817662   3.527   2.565   1.849  1.6367  2.3520 -0.3051
   73MOL   H23917663   3.365   2.420   1.409 -1.1978  0.9997 -3.9201
   73MOL   H24017664   3.448   2.565   1.366 -0.7637 -0.4997 -0.0063
   73MOL   H24117665   3.321   2.579   1.490  0.9099  0.5897  0.3192
   73MOL   H24217666   3.621   2.445   1.769 -0.9636 -0.2364  0.2117
   74MOL     C117667   6.214   5.464   5.190  0.0223 -0.4024 -0.3080
   74MOL     C217668   6.316   5.543   5.267  0.3751  0.6973  0.1061
   74MOL     O317669   6.441   5.486   5.240  0.6012 -0.3683 -0.1012
   74MOL     C417670   6.534   5.475   5.341  0.4520  0.1014  0.8471
   74MOL     C517671   6.670   5.433   5.279  0.3372  0.0697 -0.4911
   74MOL     O617672   6.528   5.528   5.451  0.1154 -0.3932  0.1873
   74MOL     H717673   6.221   5.482   5.083 -2.5443 -1.3110 -0.6785
   74MOL     H817674   6.111   5.491   5.213  0.0791  0.5862 -1.1726
   74MOL     H917675   6.304   5.528   5.375 -0.4754  2.1340  0.2236
   74MOL    H1017676   6.723   5.517   5.233  2.0876  0.2211  1.6830
   74MOL    H1117677   6.671   5.342   5.218 -2.0692  0.4780 -1.1805
   74MOL    H1217678   6.731   5.406   5.365 -0.3893 -1.7996 -0.5496
   74MOL    H1317679   6.218   5.355   5.194  0.1158 -0.3634  0.8671
   74MOL    C1417680   6.305   5.692   5.244  0.2231 -0.6196 -0.5773
   74MOL    C1517681   6.182   5.763   5.299  0.3152  0.0043  0.0087
   74MOL    O1617682   6.212   5.808   5.429 -0.0410 -0.1524 -0.3494
   74MOL    C1717683   6.181   5.738   5.540 -0.4523 -0.5984  0.4671
   74MOL    C1817684   6.235   5.807   5.660  0.0948 -0.3874 -0.0498
   74MOL    O1917685   6.142   5.620   5.543 -0.2747 -0.4153 -0.4320
   74MOL    H2017686   6.393   5.745   5.282 -0.8579 -0.8065  2.3551
   74MOL    H2117687   6.312   5.706   5.137 -0.1294 -1.6286 -0.7355
   74MOL    H2217688   6.104   5.688   5.311  1.4859 -0.7983  3.0663
   74MOL    H2317689   6.308   5.749   5.716  1.0718 -0.0571 -0.9704
   74MOL    H2417690   6.143   5.826   5.715 -0.0297  0.6575 -0.6123
   74MOL    H2517691   6.266   5.911   5.652 -1.3238  0.2231  1.8744
   74MOL    C2617692   6.127   5.880   5.213  0.1357  0.1832 -0.2234
   74MOL    C2717693   5.985   5.912   5.246  0.6219  0.2319  0.4656
   74MOL    O2817694   5.970   5.942   5.381  0.9071  0.2945  0.1485
   74MOL    C2917695   6.010   6.053   5.435  0.3608 -0.3624  0.7990
   74MOL    C3017696   5.981   6.060   5.577 -0.1983 -0.4407  0.4444
   74MOL    O3117697   6.075   6.144   5.384 -0.6554 -0.1298 -0.1083
   74MOL    H3217698   6.185   5.970   5.232  1.6510 -0.9054  0.3301
   74MOL    H3317699   6.135   5.860   5.106  1.9610  0.9121 -0.2400
   74MOL    H3417700   5.939   5.816   5.222  0.2887  0.6008 -0.3927
   74MOL    H3517701   6.038   6.141   5.623 -1.6601  0.9918 -0.2005
   74MOL    H3617702   6.017   5.965   5.615 -0.6654  1.1897  5.3592
   74MOL    H3717703   5.876   6.077   5.603  0.3383  1.8224  1.2735
   74MOL    C3817704   5.911   6.009   5.145  0.1082  0.0233 -0.1294
   74MOL    C3917705   5.758   6.003   5.129  0.1875  0.8166 -1.0655
   74MOL    O4017706   5.693   6.022   5.254 -0.0837 -0.0455  0.3300
   74MOL    C4117707   5.651   5.918   5.322  0.1060  0.2995  0.3758
   74MOL    C4217708   5.570   5.966   5.448  0.3851  0.6077  0.2659
   74MOL    O4317709   5.689   5.802   5.312  0.6064  1.0181  0.0454
   74MOL    H4417710   5.933   6.114   5.161 -0.6819  0.2877 -0.7265
   74MOL    H4517711   5.949   5.969   5.051 -0.4884  1.3984 -0.9660
   74MOL    H4617712   5.743   5.898   5.103 -1.0446  0.6247  0.3191
   74MOL    H4717713   5.633   5.930   5.530  0.8144  1.2140  0.2024
   74MOL    H4817714   5.477   5.909   5.441  1.9028 -2.0194  0.6935
   74MOL    H4917715   5.553   6.072   5.465 -4.1383 -0.0661  0.7844
   74MOL    C5017716   5.715   6.108   5.019 -0.0324  0.3977 -1.2134
   74MOL    C5117717   5.563   6.114   4.976  0.9612  0.1589 -0.1066
   74MOL    O5217718   5.549   6.192   4.867 -0.0089  0.0376  0.2270
   74MOL    C5317719   5.556   6.332   4.874 -0.0644 -0.7171 -0.0523
   74MOL    C5417720   5.561   6.403   4.738  0.4750  0.2241  0.0860
   74MOL    O5517721   5.585   6.399   4.971 -0.2712  0.3335 -0.2842
   74MOL    H5617722   5.744   6.210   5.045 -4.4164  1.3184  0.5435
   74MOL    H5717723   5.763   6.085   4.924  0.5190 -0.0746 -0.8172
   74MOL    H5817724   5.509   6.168   5.055  3.5279  3.2077 -0.3500
   74MOL    H5917725   5.599   6.505   4.749 -0.0406  0.6363 -1.8825
   74MOL    H6017726   5.463   6.418   4.692  0.0204 -0.5822  0.7610
   74MOL    H6117727   5.631   6.346   4.678 -0.8508 -1.9948  0.6062
   74MOL    C6217728   5.504   5.978   4.928 -0.1630  0.2417 -0.0205
   74MOL    C6317729   5.579   5.896   4.819 -0.1044  0.6240  0.2421
   74MOL    O6417730   5.672   5.819   4.899  0.4706 -0.0708 -0.0323
   74MOL    C6517731   5.782   5.766   4.839 -0.5628  0.3233  0.1110
   74MOL    C6617732   5.871   5.694   4.940  0.1487 -0.1680 -0.6412
   74MOL    O6717733   5.812   5.767   4.719 -0.0133 -0.0889 -0.2092
   74MOL    H6817734   5.493   5.910   5.013 -1.2214 -1.0366 -1.1536
   74MOL    H6917735   5.402   5.987   4.889 -0.7195  0.8349  1.5258
   74MOL    H7017736   5.621   5.964   4.745 -0.2966  1.3382  0.7766
   74MOL    H7117737   5.835   5.697   5.043  1.3517  2.8524 -0.2853
   74MOL    H7217738   5.970   5.739   4.931 -0.2063  0.4917 -1.3311
   74MOL    H7317739   5.871   5.586   4.923 -0.6814 -0.1078 -1.0613
   74MOL    C7417740   5.485   5.798   4.740  0.8222  0.5479  0.4458
   74MOL    C7517741   5.380   5.875   4.660 -0.1589  0.9638  0.1349
   74MOL    O7617742   5.453   5.946   4.567  0.2166  0.0233 -0.1049
   74MOL    C7717743   5.413   6.071   4.527  0.3191  0.0102  0.2313
   74MOL    C7817744   5.510   6.136   4.422 -0.2012 -0.0228  0.5712
   74MOL    O7917745   5.311   6.127   4.560 -0.5778 -0.1735 -0.1015
   74MOL    H8017746   5.536   5.725   4.677 -1.4504 -0.5338 -0.1858
   74MOL    H8117747   5.415   5.748   4.807 -1.0133  2.6826  0.1981
   74MOL    H8217748   5.324   5.938   4.729  0.5483  1.3088  0.4041
   74MOL    H8317749   5.612   6.128   4.458  0.7390  1.0291 -1.7376
   74MOL    H8417750   5.485   6.242   4.412  1.7155  0.3328 -0.7431
   74MOL    H8517751   5.493   6.095   4.322  1.7307 -0.6739  0.5042
   74MOL    C8617752   5.283   5.779   4.583 -0.3372  0.0798  0.2118
   74MOL    C8717753   5.134   5.791   4.626  0.4997 -0.4397 -0.9602
   74MOL    O8817754   5.077   5.907   4.569 -0.2203 -0.0260  0.2269
   74MOL    C8917755   5.022   6.003   4.647  0.3727  0.0120  0.0393
   74MOL    C9017756   4.989   6.132   4.574 -0.7210 -0.3918 -0.1377
   74MOL    O9117757   4.992   5.990   4.764  0.0135 -0.7857  0.1285
   74MOL    H9217758   5.281   5.783   4.475  0.3174 -0.5501  0.1740
   74MOL    H9317759   5.309   5.675   4.602  1.1842  0.2878 -0.6721
   74MOL    H9417760   5.130   5.790   4.735  0.4920  1.0283 -0.9478
   74MOL    H9517761   4.892   6.176   4.593  0.0698  2.9928 -3.2868
   74MOL    H9617762   4.991   6.123   4.466  0.0632  0.8780 -0.2458
   74MOL    H9717763   5.065   6.210   4.583 -1.2244  0.1057 -0.1464
   74MOL    C9817764   5.042   5.677   4.583 -0.3293 -0.9187  0.5312
   74MOL    C9917765   5.062   5.548   4.661 -0.0670 -0.1982  0.0249
   74MOL   O10017766   5.032   5.568   4.797 -0.4533 -0.0120  0.4691
   74MOL   C10117767   5.127   5.575   4.890  0.3839 -0.4497  0.3477
   74MOL   C10217768   5.070   5.626   5.023 -0.0421 -0.6584 -0.4156
   74MOL   O10317769   5.252   5.558   4.872 -0.1068 -0.2637  0.3233
   74MOL   H10417770   4.938   5.705   4.595  0.3077  1.2813  1.0526
   74MOL   H10517771   5.057   5.658   4.476  1.9642  0.6919  0.5340
   74MOL   H10617772   5.169   5.530   4.650  0.1953  1.7511 -0.9619
   74MOL   H10717773   5.105   5.566   5.107  0.3069 -1.8961 -1.4195
   74MOL   H10817774   4.962   5.614   5.025  0.1492 -2.3918  0.1977
   74MOL   H10917775   5.098   5.729   5.046  0.4831 -1.3084  1.9320
   74MOL   C11017776   4.986   5.426   4.613  0.3346  0.1826  0.0353
   74MOL   C11117777   5.064   5.346   4.506  0.4210 -0.8123 -0.1221
   74MOL   O11217778   5.183   5.290   4.564  0.3635 -0.2928  0.5095
   74MOL   C11317779   5.287   5.257   4.485  0.1457 -0.4470  0.1275
   74MOL   C11417780   5.400   5.183   4.552  0.5941 -0.3806  0.1800
   74MOL   O11517781   5.299   5.281   4.367 -0.3755  0.2900  0.2213
   74MOL   H11617782   4.978   5.362   4.701 -1.1921 -0.8316 -0.8253
   74MOL   H11717783   4.880   5.444   4.596  0.4934  0.8458 -0.2912
   74MOL   H11817784   5.089   5.421   4.431 -0.8975  0.1888  0.4064
   74MOL   H11917785   5.499   5.209   4.514  1.5907 -1.5191  1.9465
   74MOL   H12017786   5.389   5.078   4.529  2.7323 -1.0504  1.9712
   74MOL   H12117787   5.391   5.199   4.660 -0.8122 -1.9635  0.3047
   74MOL   C12217788   4.975   5.232   4.445  0.4408 -0.7359 -0.2760
   74MOL   C12317789   4.899   5.147   4.546  0.0571 -0.1890 -0.6302
   74MOL   O12417790   4.789   5.093   4.474 -0.9536  0.2827 -0.3650
   74MOL   C12517791   4.668   5.154   4.444 -0.3895  1.0781 -0.1797
   74MOL   C12617792   4.586   5.063   4.353 -0.0058  0.3448 -0.1311
   74MOL   O12717793   4.625   5.259   4.495 -0.7721 -0.7789  0.0017
   74MOL   H12817794   4.893   5.282   4.392 -0.3470 -0.1665  1.4556
   74MOL   H12917795   5.035   5.171   4.378  1.0060  1.5031 -1.8853
   74MOL   H13017796   4.853   5.203   4.627 -1.7618  0.2108 -1.9321
   74MOL   H13117797   4.620   4.961   4.369  0.4686  0.5584  0.2214
   74MOL   H13217798   4.623   5.083   4.252  0.9802  0.0188  0.1610
   74MOL   H13317799   4.478   5.076   4.363  0.3212  1.2229  2.7589
   74MOL   C13417800   4.987   5.039   4.618 -0.0356 -0.8358  0.3908
   74MOL   C13517801   5.025   5.079   4.764  0.0265  0.1395  0.7653
   74MOL   O13617802   4.936   5.037   4.866  0.0910 -0.6650  0.0069
   74MOL   C13717803   4.867   5.131   4.933  0.4131 -0.3913  0.0747
   74MOL   C13817804   4.783   5.068   5.047 -0.0166 -0.4409 -0.2243
   74MOL   O13917805   4.865   5.250   4.899 -0.0486  0.4798  0.3548
   74MOL   H14017806   4.934   4.943   4.613  0.6839 -1.2099 -0.1505
   74MOL   H14117807   5.083   5.022   4.569  0.8801 -1.4531  2.3544
   74MOL   H14217808   5.041   5.186   4.763 -0.6251  0.2456  1.4553
   74MOL   H14317809   4.809   5.120   5.139 -0.3112  0.5190 -0.6810
   74MOL   H14417810   4.793   4.959   5.049  3.4049 -0.1737  0.2513
   74MOL   H14517811   4.678   5.091   5.027 -0.0265 -0.6489 -0.4197
   74MOL   C14617812   5.163   5.022   4.804  0.0880  0.3778  0.8156
   74MOL   C14717813   5.230   5.050   4.939 -0.7377 -0.0604 -0.8213
   74MOL   O14817814   5.354   4.986   4.939 -0.3861  0.4542 -0.0604
   74MOL   C14917815   5.378   4.858   4.979 -0.0132  0.2196  0.3242
   74MOL   C15017816   5.528   4.822   4.976 -0.7129  0.6707  0.3127
   74MOL   O15117817   5.290   4.774   5.013 -0.1017  1.1840  0.6455
   74MOL   H15217818   5.163   4.913   4.798  0.0840  0.2255  3.1780
   74MOL   H15317819   5.229   5.044   4.720  0.1412 -1.0561  0.4545
   74MOL   H15417820   5.167   5.008   5.018  2.2977  0.5896  2.0447
   74MOL   H15517821   5.591   4.908   5.000  0.6339 -0.8383  2.3762
   74MOL   H15617822   5.550   4.761   4.888 -1.7754 -0.6639  0.9491
   74MOL   H15717823   5.561   4.752   5.053 -1.5987  1.7440  1.7016
   74MOL   C15817824   5.255   5.195   4.958 -0.6640  0.0886 -0.3609
   74MOL   C15917825   5.275   5.260   5.100 -0.8802  0.5765 -0.0655
   74MOL   O16017826   5.362   5.371   5.076  0.0865  0.5882 -0.9708
   74MOL   C16117827   5.480   5.380   5.143  0.4093 -0.2074  0.5687
   74MOL   C16217828   5.539   5.515   5.124  0.4946 -0.0556 -0.3889
   74MOL   O16317829   5.533   5.302   5.222 -0.1978 -0.1630  0.5871
   74MOL   H16417830   5.334   5.230   4.891 -2.3300  0.2667 -2.2845
   74MOL   H16517831   5.175   5.251   4.909 -0.9569 -1.5968 -1.8781
   74MOL   H16617832   5.320   5.187   5.167 -0.7555 -0.1318 -0.9104
   74MOL   H16717833   5.483   5.576   5.195 -0.6661 -0.9909 -0.4878
   74MOL   H16817834   5.503   5.544   5.025 -2.9791 -1.8241  0.2952
   74MOL   H16917835   5.648   5.517   5.121  0.4641  0.6245 -1.4735
   74MOL   C17017836   5.146   5.306   5.171 -0.1075  0.3507 -0.4515
   74MOL   C17117837   5.178   5.361   5.315  0.2809 -0.1806  0.1733
   74MOL   O17217838   5.071   5.440   5.361  0.1263  0.3001  0.3920
   74MOL   C17317839   5.086   5.571   5.395  0.4803 -0.9071  0.3931
   74MOL   C17417840   4.961   5.657   5.412  0.8967 -0.2227 -0.0744
   74MOL   O17517841   5.192   5.625   5.423 -0.1270  0.3046  0.4441
   74MOL   H17617842   5.096   5.379   5.107 -0.5108  0.5290  0.0703
   74MOL   H17717843   5.087   5.216   5.183  2.6412 -1.3530  0.8474
   74MOL   H17817844   5.270   5.418   5.302  1.2924 -1.2599  2.2596
   74MOL   H17917845   4.959   5.711   5.506  3.8970  0.0394 -0.1179
   74MOL   H18017846   4.880   5.587   5.393  2.8567 -2.4042 -0.6979
   74MOL   H18117847   4.942   5.725   5.329  0.7827  0.1241  0.2354
   74MOL   C18217848   5.206   5.250   5.423 -0.8416  0.0472  0.1385
   74MOL   C18317849   5.291   5.305   5.541  0.2596 -0.5432  0.3775
   74MOL   O18417850   5.202   5.365   5.642 -0.2052 -0.4056  0.1976
   74MOL   C18517851   5.256   5.462   5.717 -0.0220  0.6499 -0.2102
   74MOL   C18617852   5.167   5.506   5.831  0.2817 -0.2920  0.1523
   74MOL   O18717853   5.363   5.512   5.704  0.0619 -0.1077 -0.0920
   74MOL   H18817854   5.112   5.206   5.457 -1.0504  0.3683 -0.0189
   74MOL   H18917855   5.256   5.165   5.377 -0.7367  1.4662 -2.4840
   74MOL   H19017856   5.362   5.379   5.505 -1.3655  0.5705 -0.6368
   74MOL   H19117857   5.187   5.612   5.847  2.5588 -1.2479  4.3652
   74MOL   H19217858   5.176   5.442   5.918 -1.9485 -2.1761 -0.9512
   74MOL   H19317859   5.062   5.515   5.804  0.0975 -0.4473  0.8100
   74MOL   C19417860   5.369   5.195   5.628  0.7302  0.1796  0.7866
   74MOL   C19517861   5.505   5.150   5.571  0.7753  0.3137  0.3532
   74MOL   O19617862   5.484   5.071   5.458  0.0713 -1.1121 -0.1183
   74MOL   C19717863   5.575   4.983   5.419  0.7677  0.9250 -0.0514
   74MOL   C19817864   5.547   4.928   5.278  0.2757 -0.0221  0.3367
   74MOL   O19917865   5.665   4.945   5.486  0.2602 -0.2655 -0.2939
   74MOL   H20017866   5.398   5.231   5.727  3.8297  1.0475 -0.3607
   74MOL   H20117867   5.302   5.113   5.651 -1.0761  0.9345 -1.4769
   74MOL   H20217868   5.541   5.094   5.657 -0.3572  0.6432  1.0464
   74MOL   H20317869   5.645   4.916   5.231  0.7595  1.3727  0.9579
   74MOL   H20417870   5.494   5.006   5.223  1.3803 -0.4399 -1.3729
   74MOL   H20517871   5.483   4.840   5.284  0.0291  0.1925  0.9140
   74MOL   C20617872   5.610   5.267   5.536  0.4771 -0.4636  0.1299
   74MOL   C20717873   5.660   5.330   5.662 -0.0350 -0.3163 -0.8618
   74MOL   O20817874   5.765   5.258   5.736  0.4688  0.0384 -0.4800
   74MOL   C20917875   5.734   5.195   5.856 -0.7317  0.0178  0.0572
   74MOL   C21017876   5.862   5.133   5.911 -0.0831  0.4717  0.1126
   74MOL   O21117877   5.631   5.189   5.915 -0.6377  0.2706  0.2779
   74MOL   H21217878   5.701   5.227   5.493 -0.7310 -0.3193 -2.6646
   74MOL   H21317879   5.566   5.345   5.473  0.0016  0.8511  2.0452
   74MOL   H21417880   5.580   5.349   5.733  0.0897  0.4671 -0.9200
   74MOL   H21517881   5.929   5.108   5.828 -0.6957 -0.1540 -0.1980
   74MOL   H21617882   5.839   5.038   5.959  2.7141 -0.5605 -0.4201
   74MOL   H21717883   5.908   5.203   5.980  1.1524 -0.4557  0.2516
   74MOL   C21817884   5.721   5.464   5.628 -0.0268  0.1066 -0.0837
   74MOL   C21917885   5.729   5.573   5.739 -0.4560 -0.0114  0.0315
   74MOL   O22017886   5.856   5.551   5.805  0.3009 -0.6277  0.5358
   74MOL   C22117887   5.879   5.569   5.930  1.4454  0.4066 -1.0576
   74MOL   C22217888   6.020   5.547   5.968 -0.7788 -0.5098  0.2444
   74MOL   O22317889   5.801   5.620   6.007 -0.1902  0.4349  0.2042
   74MOL   H22417890   5.823   5.461   5.589 -0.9773 -0.9004 -2.6540
   74MOL   H22517891   5.671   5.509   5.542  2.5452  0.2482 -1.5375
   74MOL   H22617892   5.646   5.572   5.810  1.6218  3.4413  2.7226
   74MOL   H22717893   6.088   5.525   5.886  2.4820 -0.2830  2.7595
   74MOL   H22817894   6.037   5.454   6.023 -0.1872  0.2272  1.3408
   74MOL   H22917895   6.046   5.634   6.028  2.0339 -2.2909  1.7076
   74MOL   C23017896   5.734   5.716   5.669 -0.3520  0.2527 -0.0090
   74MOL   C23117897   5.728   5.837   5.775 -0.4751  0.3091 -0.0349
   74MOL   O23217898   5.613   5.832   5.850 -0.0754  0.7302 -0.0768
   74MOL   C23317899   5.514   5.926   5.846 -0.1530 -0.0725 -0.5217
   74MOL   C23417900   5.402   5.907   5.950  0.7045  0.2494  0.1728
   74MOL   O23517901   5.510   6.016   5.763  0.2090  0.2122  0.4593
   74MOL   H23617902   5.816   5.734   5.600  0.3154 -0.3545  0.6159
   74MOL   H23717903   5.645   5.709   5.606 -0.7636 -0.7417  0.6763
   74MOL   H23817904   5.731   5.926   5.712  1.0453  1.0645  1.0714
   74MOL   H23917905   5.421   5.810   5.995 -3.1929 -0.0761  1.2980
   74MOL   H24017906   5.305   5.903   5.900  1.6684  1.1491 -1.8523
   74MOL   H24117907   5.393   5.981   6.029 -0.1771 -0.1295  0.4328
   74MOL   H24217908   5.823   5.836   5.828 -0.8856  1.2593  0.7243
   75MOL     C117909   7.669   5.619   7.223 -0.5528 -0.5870  0.2873
   75MOL     C217910   7.729   5.727   7.140  0.2332 -0.1998 -0.5845
   75MOL     O317911   7.780   5.670   7.019 -0.2254  0.0360  0.4608
   75MOL     C417912   7.903   5.621   7.011  0.2862 -0.1076  0.5612
   75MOL     C517913   7.925   5.521   6.896  0.1577  0.4648 -0.3739
   75MOL     O617914   7.991   5.652   7.089 -0.2491 -0.4239  0.4309
   75MOL     H717915   7.591   5.656   7.289 -1.3505 -0.4867 -0.6888
   75MOL     H817916   7.741   5.566   7.286  1.0960  1.3878  0.1271
   75MOL     H917917   7.803   5.771   7.207 -0.8319  2.3019 -0.9897
   75MOL    H1017918   7.831   5.504   6.844  0.0471 -0.4950  0.1274
   75MOL    H1117919   7.973   5.435   6.945  0.5836  0.1773 -1.2770
   75MOL    H1217920   8.000   5.550   6.822  0.0286 -0.6930 -0.9739
   75MOL    H1317921   7.634   5.537   7.160 -2.9072 -0.0547  0.8538
   75MOL    C1417922   7.629   5.840   7.104  0.8725  0.0607  0.2318
   75MOL    C1517923   7.691   5.978   7.105  0.0455  0.6865 -0.3707
   75MOL    O1617924   7.795   5.965   7.010  0.6779  0.0837 -0.3348
   75MOL    C1717925   7.919   6.012   7.038 -0.3908  0.1075 -0.5224
   75MOL    C1817926   8.017   5.990   6.924  0.3249  0.1012  0.4742
   75MOL    O1917927   7.960   6.052   7.151 -0.3868  0.5795 -0.0230
   75MOL    H2017928   7.582   5.832   7.006  1.3690  2.5531 -0.2414
   75MOL    H2117929   7.553   5.848   7.181  0.4400  2.1163 -0.3871
   75MOL    H2217930   7.713   6.001   7.209 -0.2411  0.3016 -0.2233
   75MOL    H2317931   0.091   6.030   6.958  0.6739  0.2169 -0.6309
   75MOL    H2417932   7.999   6.057   6.840  2.0869 -1.7818 -1.4633
   75MOL    H2517933   0.009   5.886   6.894  0.3581 -0.2305  1.6160
   75MOL    C2617934   7.600   6.092   7.058  0.4978 -0.9605 -0.1367
   75MOL    C2717935   7.465   6.107   7.130  0.2714 -0.2563 -0.0024
   75MOL    O2817936   7.492   6.145   7.266 -0.0197 -0.8317  0.5526
   75MOL    C2917937   7.424   6.084   7.362 -0.2607 -0.5676 -0.0274
   75MOL    C3017938   7.463   6.125   7.503 -0.3117 -0.0772  0.2028
   75MOL    O3117939   7.342   5.994   7.363 -0.2717  0.0037 -0.1848
   75MOL    H3217940   7.663   6.181   7.060  0.0549 -0.6453 -0.1813
   75MOL    H3317941   7.582   6.070   6.953 -1.2448 -0.4390  0.0327
   75MOL    H3417942   7.403   6.018   7.131 -0.6337  0.3766  1.5754
   75MOL    H3517943   7.408   6.089   7.590  1.3244 -0.1001  1.2498
   75MOL    H3617944   7.454   6.233   7.500  0.4424 -0.0064  0.2675
   75MOL    H3717945   7.567   6.092   7.510 -0.2246 -0.2242 -1.4800
   75MOL    C3817946   7.390   6.232   7.072 -0.3903 -0.1596 -0.0031
   75MOL    C3917947   7.248   6.254   7.121 -0.0112  0.1500  0.4209
   75MOL    O4017948   7.204   6.364   7.043 -1.0488  0.3586  0.0221
   75MOL    C4117949   7.123   6.456   7.096 -0.2020  0.6105 -0.1757
   75MOL    C4217950   7.087   6.569   6.998  0.1513 -0.0789 -0.1431
   75MOL    O4317951   7.097   6.466   7.213  0.1444 -0.3208 -0.1340
   75MOL    H4417952   7.442   6.323   7.104 -0.1320 -0.8292  1.5354
   75MOL    H4517953   7.390   6.232   6.963 -1.9001 -0.0823 -0.0164
   75MOL    H4617954   7.252   6.282   7.227 -0.0559 -1.6424  0.9086
   75MOL    H4717955   6.979   6.581   6.987  0.3217 -1.0602 -3.4024
   75MOL    H4817956   7.124   6.555   6.897  1.3653  1.4959  0.0575
   75MOL    H4917957   7.127   6.660   7.044 -0.8494 -0.4705  1.5454
   75MOL    C5017958   7.154   6.131   7.103  0.6309 -0.1227  0.5894
   75MOL    C5117959   7.001   6.147   7.126 -0.4317  0.7554 -0.3743
   75MOL    O5217960   6.931   6.090   7.014 -0.6768 -0.3792  0.2738
   75MOL    C5317961   6.838   6.174   6.940 -0.0267  0.1314  0.3729
   75MOL    C5417962   6.752   6.093   6.843 -0.3943  0.4504  0.3783
   75MOL    O5517963   6.834   6.295   6.941  0.8428  0.0808  0.1840
   75MOL    H5617964   7.168   6.097   7.000 -1.2565  3.0875 -0.8157
   75MOL    H5717965   7.187   6.038   7.148 -3.1313  0.2147  4.2740
   75MOL    H5817966   6.980   6.253   7.141 -1.5079  0.9188 -2.8014
   75MOL    H5917967   6.683   6.034   6.902  0.6749 -1.1170  0.0918
   75MOL    H6017968   6.821   6.038   6.778  0.1099  0.7837  0.6282
   75MOL    H6117969   6.680   6.154   6.789 -2.5904 -2.1701  0.2343
   75MOL    C6217970   6.954   6.066   7.247  0.6913  0.6466 -1.0614
   75MOL    C6317971   7.021   6.107   7.380 -0.1550 -0.1545 -0.0563
   75MOL    O6417972   6.985   6.234   7.424  0.4128 -0.0698  0.4798
   75MOL    C6517973   7.062   6.309   7.492 -0.2527 -0.6368  0.2367
   75MOL    C6617974   7.003   6.442   7.534 -0.1324 -0.2801 -0.0276
   75MOL    O6717975   7.182   6.292   7.530 -0.2986  0.0560 -0.1401
   75MOL    H6817976   6.849   6.092   7.264  1.0400  3.3071 -2.6398
   75MOL    H6917977   6.964   5.959   7.228 -0.0222  0.3528  0.1729
   75MOL    H7017978   7.129   6.112   7.361 -0.1653  1.8807  0.3719
   75MOL    H7117979   6.933   6.440   7.618  1.1378  0.5304  1.0596
   75MOL    H7217980   6.957   6.487   7.446  1.1192  1.0459 -0.0222
   75MOL    H7317981   7.077   6.520   7.544 -1.3041  0.5877  2.0803
   75MOL    C7417982   6.988   6.001   7.490 -0.2615  0.0712  0.1237
   75MOL    C7517983   6.842   5.980   7.518 -0.7004  0.2204  0.5375
   75MOL    O7617984   6.798   5.898   7.409  0.2883 -0.5798  0.0332
   75MOL    C7717985   6.675   5.913   7.354  0.4408  0.2193  0.2566
   75MOL    C7817986   6.636   5.806   7.248  0.1688  0.3188  0.4489
   75MOL    O7917987   6.595   6.003   7.391  0.2706  0.3595  0.8811
   75MOL    H8017988   7.026   5.902   7.463  1.0373 -0.3327  3.3095
   75MOL    H8117989   7.035   6.026   7.585 -1.2838  1.3290  0.3086
   75MOL    H8217990   6.786   6.073   7.514 -1.3266 -0.1956 -0.7947
   75MOL    H8317991   6.659   5.836   7.146 -2.2128  1.9283  0.3280
   75MOL    H8417992   6.528   5.820   7.248  0.1237  0.0564 -0.5124
   75MOL    H8517993   6.651   5.702   7.279  3.2587  0.7378  0.4149
   75MOL    C8617994   6.805   5.904   7.651  0.5555  0.4848  0.1777
   75MOL    C8717995   6.818   5.981   7.782 -0.0745  0.3433  0.5190
   75MOL    O8817996   6.701   6.071   7.786 -0.4998  0.5250  1.0672
   75MOL    C8917997   6.722   6.201   7.792 -0.2421  0.4179 -0.6814
   75MOL    C9017998   6.592   6.282   7.795  0.0699  0.4227 -0.4355
   75MOL    O9117999   6.832   6.260   7.800 -0.1540 -0.2883  0.4487
   75MOL    H9218000   6.701   5.878   7.633  0.8321 -1.6346  1.4623
   75MOL    H9318001   6.867   5.814   7.654  1.1432  0.9281  2.1233
   75MOL    H9418002   6.911   6.038   7.779  0.8376 -1.1108  0.5281
   75MOL    H9518003   6.609   6.383   7.757  1.9734 -0.0111 -0.7466
   75MOL    H9618004   6.568   6.295   7.900  2.4507  1.7700 -0.0307
   75MOL    H9718005   6.505   6.232   7.752 -0.2195  0.3924  0.1758
   75MOL    C9818006   6.830   5.890   7.908 -0.5619 -0.3229 -0.2846
   75MOL    C9918007   6.928   5.943   8.017  0.2689  0.7880 -0.3311
   75MOL   O10018008   6.856   6.055   0.049  0.0049 -0.3200 -0.2686
   75MOL   C10118009   6.922   6.145   0.131  0.2196 -0.4210 -0.1811
   75MOL   C10218010   6.824   6.253   0.180  0.1403  0.5357 -0.3154
   75MOL   O10318011   7.038   6.155   0.158  0.0635  0.1370 -0.0556
   75MOL   H10418012   6.728   5.866   7.939 -0.6070 -1.1097 -1.0133
   75MOL   H10518013   6.882   5.796   7.886  0.9009  0.4202 -0.0568
   75MOL   H10618014   7.023   5.985   7.983 -0.9596  4.0287  0.1140
   75MOL   H10718015   6.734   6.198   0.207  0.8669 -0.5455 -0.0725
   75MOL   H10818016   6.800   6.332   0.109  0.3711  1.2186  0.3515
   75MOL   H10918017   6.854   6.290   0.278  0.8731  1.8107 -1.0138
   75MOL   C11018018   6.951   5.836   0.108 -0.2572  0.4014 -0.7886
   75MOL   C11118019   7.044   5.718   0.055 -0.4095  0.2174 -0.3721
   75MOL   O11218020   7.179   5.774   0.061 -0.4504  0.1895  0.2563
   75MOL   C11318021   7.233   5.817   7.973  0.5497 -0.8420 -0.5216
   75MOL   C11418022   7.375   5.854   8.005  0.4017  0.5555  0.0105
   75MOL   O11518023   7.185   5.814   7.865  0.0877  0.6037  0.0503
   75MOL   H11618024   6.995   5.880   0.198 -0.2341 -1.9285  0.3567
   75MOL   H11718025   6.860   5.787   0.144 -0.6399  0.9636 -0.9825
   75MOL   H11818026   7.019   5.686   7.976  0.2236  1.8896 -1.0883
   75MOL   H11918027   7.375   5.906   0.079  0.0300 -0.4875  0.5886
   75MOL   H12018028   7.407   5.924   7.927  2.3460  1.0053  1.1722
   75MOL   H12118029   7.445   5.772   8.021  0.8428  1.0698  0.7460
   75MOL   C12218030   7.053   5.597   0.148 -0.1415  0.0239 -0.2684
   75MOL   C12318031   6.922   5.515   0.140 -0.1458 -0.0006  0.3923
   75MOL   O12418032   6.921   5.438   0.020  0.3623  0.3748 -0.2181
   75MOL   C12518033   6.809   5.450   7.960 -0.6059 -0.5646 -0.3650
   75MOL   C12618034   6.772   5.318   7.884  0.5467 -0.3567  0.4433
   75MOL   O12718035   6.732   5.552   7.955  0.0391  0.6653 -0.2714
   75MOL   H12818036   7.133   5.525   0.130  2.4201  2.1663  2.1589
   75MOL   H12918037   7.072   5.635   0.248  0.1012  4.1863 -1.7814
   75MOL   H13018038   6.835   5.580   0.146  1.3824  1.9899  1.4892
   75MOL   H13118039   6.785   5.231   7.949 -0.7842 -0.7958  0.1433
   75MOL   H13218040   6.836   5.297   7.798  0.2561 -0.8362  0.3388
   75MOL   H13318041   6.665   5.313   7.866  0.3160 -1.0995  1.9281
   75MOL   C13418042   6.905   5.417   0.264 -0.0184 -0.2120  0.5979
   75MOL   C13518043   6.878   5.487   0.404  0.4921 -0.2404  0.9886
   75MOL   O13618044   6.784   5.592   0.382 -0.5742  0.1634 -1.0837
   75MOL   C13718045   6.802   5.711   0.422 -0.1498  0.1044 -0.4855
   75MOL   C13818046   6.669   5.787   0.453 -0.0543  0.0040  0.1637
   75MOL   O13918047   6.912   5.764   0.444 -0.7522  0.0703 -0.7677
   75MOL   H14018048   6.816   5.355   0.251 -0.0805 -0.5181  2.3869
   75MOL   H14118049   6.983   5.342   0.275 -1.6520 -1.5875  3.3889
   75MOL   H14218050   6.975   5.533   0.423  2.0291 -1.2843 -3.6231
   75MOL   H14318051   6.660   5.817   0.557  1.1074  1.4906 -0.1415
   75MOL   H14418052   6.588   5.738   0.399 -0.3667 -1.4663  1.9243
   75MOL   H14518053   6.669   5.887   0.410 -3.3633 -0.3786 -0.8866
   75MOL   C14618054   6.830   5.388   0.516 -0.6339 -0.1883 -0.0682
   75MOL   C14718055   6.904   5.410   0.656 -0.2129 -0.2210  0.1883
   75MOL   O14818056   6.846   5.528   0.700  0.3080 -0.8780  0.0848
   75MOL   C14918057   6.924   5.617   0.754  0.3956 -0.3929 -0.1814
   75MOL   C15018058   6.855   5.746   0.805  0.3948 -0.2635  0.3771
   75MOL   O15118059   7.042   5.608   0.762 -0.1966 -0.9735  0.4902
   75MOL   H15218060   6.723   5.398   0.534 -0.5440  2.8457 -0.9677
   75MOL   H15318061   6.832   5.284   0.483 -2.1742 -0.2213 -0.1080
   75MOL   H15418062   7.011   5.428   0.644 -0.3135  0.2999  0.0636
   75MOL   H15518063   6.924   5.830   0.797  1.5532 -1.3060 -0.5560
   75MOL   H15618064   6.809   5.737   0.904  1.2962 -0.4432  0.7778
   75MOL   H15718065   6.767   5.771   0.746  0.1957  0.0905  0.8152
   75MOL   C15818066   6.884   5.298   0.760 -0.3702  0.0930 -0.0892
   75MOL   C15918067   6.960   5.168   0.733  0.6501 -0.3989  0.2693
   75MOL   O16018068   7.098   5.200   0.698  0.1201  0.1803 -0.1481
   75MOL   C16118069   7.142   5.209   0.569  0.6503 -0.6193  0.6200
   75MOL   C16218070   7.290   5.240   0.547  0.0691  0.4818 -0.0680
   75MOL   O16318071   7.069   5.201   0.473  0.7357 -0.0691  0.0247
   75MOL   H16418072   6.927   5.340   0.852 -0.8515  1.5716 -0.5294
   75MOL   H16518073   6.779   5.280   0.781 -0.2007 -2.6971 -1.4303
   75MOL   H16618074   6.911   5.117   0.650  0.8927  0.9709 -0.7315
   75MOL   H16718075   7.311   5.327   0.609  2.5216 -0.8156  0.9829
   75MOL   H16818076   7.318   5.268   0.445  2.4936 -0.7511  0.2282
   75MOL   H16918077   7.352   5.159   0.586  0.9362  1.2395  0.1365
   75MOL   C17018078   6.943   5.062   0.842  0.1595 -0.4648 -0.4767
   75MOL   C17118079   6.981   4.922   0.794  0.1557 -0.6476 -0.4566
   75MOL   O17218080   7.122   4.915   0.826  0.0651  0.1346 -0.1637
   75MOL   C17318081   7.217   4.909   0.731 -0.0469 -0.5842 -0.3001
   75MOL   C17418082   7.359   4.926   0.785 -0.8194  0.4063 -0.5714
   75MOL   O17518083   7.198   4.879   0.617  1.0203 -1.0618  0.1936
   75MOL   H17618084   6.990   5.074   0.940  0.6452 -2.3819 -0.4654
   75MOL   H17718085   6.835   5.062   0.862 -0.0869 -1.6853 -1.7338
   75MOL   H17818086   6.975   4.907   0.687  1.6591 -1.0467 -0.4967
   75MOL   H17918087   7.420   4.843   0.749 -1.1896  0.0459 -0.3685
   75MOL   H18018088   7.361   4.923   0.894 -0.9815  0.3596 -0.5694
   75MOL   H18118089   7.413   5.011   0.743  2.2087 -1.7704 -1.2943
   75MOL   C18218090   6.896   4.809   0.858  0.4066 -0.3667  0.6982
   75MOL   C18318091   6.763   4.787   0.776 -0.7016 -0.2456 -0.9802
   75MOL   O18418092   6.792   4.733   0.647 -0.7310 -0.0550  0.2048
   75MOL   C18518093   6.727   4.778   0.539  0.6119 -0.2048  0.8105
   75MOL   C18618094   6.778   4.723   0.412 -0.6480  0.7112 -0.3235
   75MOL   O18718095   6.642   4.872   0.534 -0.1190  0.3009  0.0556
   75MOL   H18818096   6.961   4.722   0.851  0.3569 -0.3103 -0.6173
   75MOL   H18918097   6.872   4.832   0.962 -0.3211  1.0351  0.2294
   75MOL   H19018098   6.728   4.890   0.782  0.7976  0.1778  0.9449
   75MOL   H19118099   6.694   4.672   0.364 -1.0546  1.9342 -0.9512
   75MOL   H19218100   6.868   4.667   0.436  0.3671  2.5926  0.2661
   75MOL   H19318101   6.800   4.812   0.354  0.7244  0.7320  0.2249
   75MOL   C19418102   6.662   4.694   0.843 -0.5201 -0.4609 -0.4527
   75MOL   C19518103   6.602   4.748   0.972 -0.5125 -0.5284  0.8310
   75MOL   O19618104   6.524   4.865   0.938 -0.0054  0.2999  0.6700
   75MOL   C19718105   6.564   4.987   0.987  0.3637  0.7210  0.2130
   75MOL   C19818106   6.467   5.095   0.945 -0.9194 -0.1438 -0.1181
   75MOL   O19918107   6.662   5.018   1.052 -0.7641 -0.7242 -0.2246
   75MOL   H20018108   6.586   4.651   0.778 -0.2700  0.7836 -1.6081
   75MOL   H20118109   6.719   4.604   0.868 -0.3352  0.3351  2.1290
   75MOL   H20218110   6.678   4.771   1.047 -1.0115  0.9621  0.9109
   75MOL   H20318111   6.520   5.188   0.925 -0.6980  0.2323  2.0647
   75MOL   H20418112   6.386   5.114   1.016  0.6561 -0.3349  1.7668
   75MOL   H20518113   6.418   5.065   0.853  0.6801  2.5527 -1.9389
   75MOL   C20618114   6.510   4.640   1.015  0.2924  1.0053 -0.5979
   75MOL   C20718115   6.432   4.668   1.149 -0.9660 -0.5373 -0.4533
   75MOL   O20818116   6.340   4.566   1.178 -0.0828 -0.5409 -0.2417
   75MOL   C20918117   6.216   4.566   1.120  0.9771  0.1438 -0.1364
   75MOL   C21018118   6.120   4.477   1.194 -0.0262 -0.0155  0.8459
   75MOL   O21118119   6.183   4.643   1.035  0.3670 -0.0941  0.7792
   75MOL   H21218120   6.434   4.636   0.937 -0.3040  0.1427  0.0125
   75MOL   H21318121   6.560   4.543   1.020  1.6820  1.7806  1.2144
   75MOL   H21418122   6.379   4.763   1.136 -1.3506 -0.4731  1.3584
   75MOL   H21518123   6.044   4.456   1.119  1.3200 -2.5368  0.1187
   75MOL   H21618124   6.069   4.525   1.277  0.4806 -0.8904  1.6807
   75MOL   H21718125   6.176   4.389   1.227  0.0250 -1.0044 -1.7553
   75MOL   C21818126   6.512   4.701   1.279 -0.1157 -0.3680 -0.0601
   75MOL   C21918127   6.610   4.594   1.324  0.4005 -0.0202 -0.1980
   75MOL   O22018128   6.699   4.671   1.411  0.1278  0.1367 -0.0068
   75MOL   C22118129   6.817   4.721   1.359  0.7787  0.6441 -0.4462
   75MOL   C22218130   6.913   4.763   1.468  0.9196 -0.2363 -0.2870
   75MOL   O22318131   6.849   4.717   1.244  0.0240  0.6534  0.0180
   75MOL   H22418132   6.564   4.795   1.263  1.9469 -1.7677 -2.0358
   75MOL   H22518133   6.436   4.735   1.348 -0.0996 -1.9037  0.7547
   75MOL   H22618134   6.669   4.561   1.238  0.0917 -0.0876 -0.3838
   75MOL   H22718135   6.878   4.706   1.554 -0.9622 -1.1280 -1.5984
   75MOL   H22818136   6.917   4.869   1.495  0.6417 -1.3100  4.3836
   75MOL   H22918137   7.007   4.727   1.425 -0.4767 -2.5583 -1.4750
   75MOL   C23018138   6.561   4.470   1.400  0.6204 -0.4475  0.8163
   75MOL   C23118139   6.455   4.492   1.506 -0.5458  1.0434  0.1358
   75MOL   O23218140   6.411   4.377   1.571 -0.0749 -0.7434 -0.0981
   75MOL   C23318141   6.302   4.393   1.650  0.1773  0.3950 -0.3933
   75MOL   C23418142   6.253   4.265   1.719 -0.3158  0.3642  0.0691
   75MOL   O23518143   6.242   4.498   1.662  0.4853  0.1638 -0.0283
   75MOL   H23618144   6.516   4.405   1.324  1.4951  0.5417 -0.5782
   75MOL   H23718145   6.644   4.414   1.442  1.6061  2.1929  2.5166
   75MOL   H23818146   6.369   4.548   1.470 -0.6591  0.6434 -0.2241
   75MOL   H23918147   6.336   4.194   1.721  2.1276  3.1901  2.0904
   75MOL   H24018148   6.172   4.235   1.653 -0.6400 -0.3346  0.7709
   75MOL   H24118149   6.214   4.276   1.820  1.7215 -1.3474  1.0834
   75MOL   H24218150   6.493   4.559   1.583  3.5487 -0.8170 -0.1442
   76MOL     C118151   2.728   0.990   4.219  0.5689 -0.0352 -0.5911
   76MOL     C218152   2.632   1.107   4.229 -0.5380 -1.1789 -0.4081
   76MOL     O318153   2.520   1.069   4.306  0.6052  0.5403 -0.1043
   76MOL     C418154   2.393   1.054   4.256  0.2357 -0.0170  0.5284
   76MOL     C518155   2.308   0.980   4.354 -0.2673  0.4346 -0.9719
   76MOL     O618156   2.354   1.094   4.146  0.2952 -0.2892  0.4015
   76MOL     H718157   2.812   1.025   4.159  0.7232 -1.0352 -0.9624
   76MOL     H818158   2.693   0.897   4.174  0.3935  1.0049 -2.6630
   76MOL     H918159   2.601   1.133   4.128 -0.5496 -0.5135 -0.2341
   76MOL    H1018160   2.213   0.963   4.302 -0.7141 -1.3867  0.3906
   76MOL    H1118161   2.285   1.032   4.447 -0.4413 -1.4612  0.0691
   76MOL    H1218162   2.356   0.887   4.385 -0.8162  0.1513 -0.9596
   76MOL    H1318163   2.771   0.969   4.316  0.0717  0.5666 -0.2356
   76MOL    C1418164   2.690   1.235   4.290 -1.0456 -0.0448 -1.0662
   76MOL    C1518165   2.786   1.319   4.192  0.2559 -0.0776 -0.0645
   76MOL    O1618166   2.898   1.246   4.163  0.0318 -0.2192  0.2206
   76MOL    C1718167   3.011   1.246   4.235 -0.2877 -0.1801 -0.4071
   76MOL    C1818168   3.135   1.204   4.163  0.1591  0.8719 -0.0063
   76MOL    O1918169   3.021   1.297   4.351 -0.3157 -0.2797 -0.2522
   76MOL    H2018170   2.604   1.291   4.327  0.3653  1.8904 -0.6104
   76MOL    H2118171   2.746   1.213   4.381 -1.5567 -0.2905 -0.8083
   76MOL    H2218172   2.822   1.407   4.247 -2.4919  0.8254  0.3396
   76MOL    H2318173   3.135   1.255   4.067 -1.4013  0.2971 -0.3279
   76MOL    H2418174   3.149   1.097   4.152 -0.3864  0.3599  3.6014
   76MOL    H2518175   3.223   1.253   4.204 -0.2115  1.3784  0.1958
   76MOL    C2618176   2.734   1.364   4.062  0.0148 -0.2996  0.2992
   76MOL    C2718177   2.639   1.481   4.055 -0.5768  0.0694 -0.1808
   76MOL    O2818178   2.504   1.448   4.092 -0.1607  0.3147  0.0364
   76MOL    C2918179   2.426   1.385   4.002 -0.6487  0.6088  0.1631
   76MOL    C3018180   2.279   1.404   4.037  0.3706 -0.0210  0.0689
   76MOL    O3118181   2.465   1.340   3.896  0.4917 -0.2050  0.5711
   76MOL    H3218182   2.823   1.396   4.008  2.5188 -3.6687  2.2455
   76MOL    H3318183   2.708   1.271   4.012  2.9751 -0.6789 -0.6253
   76MOL    H3418184   2.633   1.514   3.951  0.2160 -0.5712 -0.4427
   76MOL    H3518185   2.252   1.329   4.112 -0.2165 -0.8384 -0.9456
   76MOL    H3618186   2.226   1.371   3.948 -0.9118 -0.9012  1.1387
   76MOL    H3718187   2.254   1.500   4.081  1.6371 -0.3195  1.5387
   76MOL    C3818188   2.678   1.616   4.120  0.1471 -0.2163  0.0569
   76MOL    C3918189   2.818   1.670   4.076  0.2717  0.4906  0.4720
   76MOL    O4018190   2.810   1.702   3.938 -0.0656  0.1994  0.5175
   76MOL    C4118191   2.909   1.671   3.851  0.4429 -0.9951  0.4168
   76MOL    C4218192   2.883   1.707   3.703 -0.1862  0.1266  0.8661
   76MOL    O4318193   3.001   1.597   3.871  1.0798  0.0505 -0.1412
   76MOL    H4418194   2.597   1.687   4.102  1.6702  1.3428 -0.8251
   76MOL    H4518195   2.687   1.611   4.229 -1.9375 -2.1746  0.1844
   76MOL    H4618196   2.888   1.589   4.094  0.8482  0.6376 -1.0831
   76MOL    H4718197   2.879   1.616   3.643 -0.9088  1.1519 -0.6797
   76MOL    H4818198   2.955   1.770   3.651  1.3065  0.7316  3.5309
   76MOL    H4918199   2.784   1.753   3.691  0.5674  1.0516 -2.2009
   76MOL    C5018200   2.867   1.796   4.157  0.2099  0.0193 -0.3687
   76MOL    C5118201   2.843   1.796   4.312 -0.5759 -0.1216 -0.6980
   76MOL    O5218202   2.902   1.679   4.369  0.3501  0.3850  0.4466
   76MOL    C5318203   2.869   1.633   4.494 -1.3599 -0.0416  0.3170
   76MOL    C5418204   2.974   1.529   4.539 -0.3124 -0.4140 -0.0795
   76MOL    O5518205   2.781   1.683   4.566 -0.2446  0.3384 -0.1739
   76MOL    H5618206   2.973   1.813   4.139  0.7389  1.4866  3.6258
   76MOL    H5718207   2.809   1.879   4.117  0.4497  1.3920  2.0386
   76MOL    H5818208   2.737   1.809   4.334 -0.5636 -0.5387 -0.4024
   76MOL    H5918209   3.062   1.523   4.476  0.2630 -1.7178  0.8041
   76MOL    H6018210   2.931   1.428   4.541 -0.4056 -0.4147 -1.8336
   76MOL    H6118211   3.010   1.551   4.639 -1.9877 -0.7933  0.6347
   76MOL    C6218212   2.912   1.912   4.391 -0.1672 -0.5814 -0.7698
   76MOL    C6318213   2.848   2.059   4.370 -0.5808  0.3132  0.4067
   76MOL    O6418214   2.868   2.110   4.237  0.3068 -0.2151  0.3964
   76MOL    C6518215   2.994   2.152   4.195  0.0879 -0.4388  0.2608
   76MOL    C6618216   3.011   2.175   4.046 -0.4276  0.8826 -0.0451
   76MOL    O6718217   3.098   2.151   4.263  0.0590  0.0300  0.2534
   76MOL    H6818218   2.913   1.888   4.497  2.5997 -0.8366 -0.8165
   76MOL    H6918219   3.019   1.922   4.373 -0.1938  1.8588  0.2638
   76MOL    H7018220   2.905   2.122   4.439 -1.9120  0.3104  1.5206
   76MOL    H7118221   3.114   2.150   4.018 -0.2110  1.0529  0.5911
   76MOL    H7218222   3.007   2.283   4.035 -0.7243  1.2558  3.3801
   76MOL    H7318223   2.946   2.131   3.970  1.5195 -0.9732 -0.6974
   76MOL    C7418224   2.701   2.074   4.413 -0.5076  0.5114 -0.1932
   76MOL    C7518225   2.684   2.027   4.562 -0.1861 -0.2964  0.0557
   76MOL    O7618226   2.746   2.124   4.643 -0.2468 -0.3487 -0.2019
   76MOL    C7718227   2.813   2.087   4.749 -0.2529 -0.0934  0.3619
   76MOL    C7818228   2.866   2.193   4.842 -0.8096  0.8654  0.1697
   76MOL    O7918229   2.842   1.967   4.770 -0.0406 -0.8368 -0.1542
   76MOL    H8018230   2.675   2.180   4.412 -1.5405  0.2661 -1.5699
   76MOL    H8118231   2.635   2.019   4.346  0.6780 -1.8948  0.5742
   76MOL    H8218232   2.719   1.925   4.578  0.6715 -0.0821 -0.4113
   76MOL    H8318233   2.975   2.200   4.843 -0.7640  0.2095 -0.1121
   76MOL    H8418234   2.822   2.184   4.941 -1.2220 -0.4348 -0.1246
   76MOL    H8518235   2.828   2.286   4.800 -0.5275  0.6396 -0.6083
   76MOL    C8618236   2.540   2.029   4.613  0.3518 -0.1887 -0.4121
   76MOL    C8718237   2.442   1.946   4.522 -0.1897  0.4961  0.2690
   76MOL    O8818238   2.462   1.808   4.525 -0.6519 -0.4270  0.1058
   76MOL    C8918239   2.459   1.736   4.414 -0.5422 -0.1697 -0.2510
   76MOL    C9018240   2.437   1.590   4.436 -0.5793  0.1344 -0.0580
   76MOL    O9118241   2.472   1.779   4.307  0.1330  0.5003 -0.4026
   76MOL    H9218242   2.541   1.991   4.715  0.0591 -2.1294 -1.1123
   76MOL    H9318243   2.504   2.132   4.608 -0.0966 -0.2195  1.7611
   76MOL    H9418244   2.445   1.992   4.423 -1.4214  0.0430  0.0210
   76MOL    H9518245   2.484   1.568   4.532 -0.3479  0.1799 -0.1597
   76MOL    H9618246   2.496   1.543   4.357 -2.1540 -1.2091 -0.4592
   76MOL    H9718247   2.330   1.570   4.437 -0.6886  0.7228  1.8646
   76MOL    C9818248   2.295   1.953   4.561  0.6528  0.1268 -0.1201
   76MOL    C9918249   2.227   2.089   4.571  0.5736 -0.6110  0.5284
   76MOL   O10018250   2.224   2.138   4.436  0.3938  0.2584  0.2396
   76MOL   C10118251   2.256   2.267   4.400 -0.5081 -0.3969 -0.1290
   76MOL   C10218252   2.262   2.289   4.250 -0.4931  0.5274 -0.1997
   76MOL   O10318253   2.284   2.354   4.486 -0.0552  0.6966 -0.4886
   76MOL   H10418254   2.229   1.895   4.497  2.1756  0.5127 -2.0664
   76MOL   H10518255   2.282   1.915   4.662  0.0951 -0.3447 -0.3682
   76MOL   H10618256   2.288   2.152   4.635 -0.7549  0.3868  0.8255
   76MOL   H10718257   2.274   2.395   4.232  0.5990  0.7217  1.6393
   76MOL   H10818258   2.166   2.267   4.203 -1.4682  2.8912  0.6283
   76MOL   H10918259   2.335   2.238   4.187 -0.9390 -0.2190 -0.1239
   76MOL   C11018260   2.082   2.094   4.625 -0.0316  0.0338  0.0255
   76MOL   C11118261   1.983   2.023   4.534 -0.0775  0.8505  0.5540
   76MOL   O11218262   1.925   1.904   4.601 -0.1206 -0.5469  0.3711
   76MOL   C11318263   1.945   1.774   4.561  0.0881 -0.7102 -0.7586
   76MOL   C11418264   1.880   1.672   4.658 -0.5467  0.1000  0.9389
   76MOL   O11518265   2.020   1.740   4.470  0.3502 -0.4361 -0.4979
   76MOL   H11618266   2.070   2.043   4.721  0.7043  0.1643  0.1851
   76MOL   H11718267   2.050   2.196   4.646  0.3307 -0.3629  2.6338
   76MOL   H11818268   2.037   1.995   4.443  0.6291  1.9247  0.6299
   76MOL   H11918269   1.865   1.729   4.750  0.8686  0.4855  0.9481
   76MOL   H12018270   1.948   1.587   4.666  0.1540  0.7149  1.6131
   76MOL   H12118271   1.779   1.656   4.621 -0.3013 -1.1279  0.7917
   76MOL   C12218272   1.863   2.121   4.502  0.4709  0.5789 -0.8872
   76MOL   C12318273   1.798   2.081   4.368  0.4684  0.0885 -0.4442
   76MOL   O12418274   1.669   2.134   4.354  0.8543 -0.0368 -0.5461
   76MOL   C12518275   1.564   2.048   4.362 -0.1181  0.5477 -0.2331
   76MOL   C12618276   1.427   2.110   4.343 -0.5128 -0.3757 -0.1497
   76MOL   O12718277   1.583   1.926   4.384  0.0729  0.0259 -0.9854
   76MOL   H12818278   1.798   2.110   4.589 -1.2412  0.5903 -2.1542
   76MOL   H12918279   1.885   2.227   4.502 -0.7760  0.8475 -0.4348
   76MOL   H13018280   1.804   1.972   4.367  0.3714  0.0431  1.8679
   76MOL   H13118281   1.429   2.184   4.263  0.1414 -0.8844 -0.6202
   76MOL   H13218282   1.394   2.152   4.438 -1.8042 -0.1241 -0.7009
   76MOL   H13318283   1.359   2.029   4.316 -1.3275  0.5788 -0.9959
   76MOL   C13418284   1.876   2.121   4.237  0.3135  0.5230 -0.1526
   76MOL   C13518285   1.890   2.007   4.141  0.8021 -0.5984  0.3178
   76MOL   O13618286   1.968   1.896   4.183  0.3325 -0.3292 -0.3205
   76MOL   C13718287   2.103   1.899   4.171 -0.2926 -0.3947  0.2822
   76MOL   C13818288   2.161   1.755   4.166  0.2595  0.0827  0.9373
   76MOL   O13918289   2.169   1.995   4.149  0.4846  0.4739  0.0032
   76MOL   H14018290   1.834   2.213   4.197 -0.6202  0.2524  0.1880
   76MOL   H14118291   1.973   2.162   4.264 -0.7931  3.5991 -0.6611
   76MOL   H14218292   1.931   2.063   4.057  1.3015 -0.5342  0.6004
   76MOL   H14318293   2.263   1.761   4.130  0.3546 -1.4464  0.9326
   76MOL   H14418294   2.115   1.693   4.089 -1.0451  0.4629  1.3819
   76MOL   H14518295   2.158   1.700   4.260 -0.7302 -1.2235  0.1450
   76MOL   C14618296   1.760   1.949   4.097 -0.4963 -0.1952 -0.6398
   76MOL   C14718297   1.744   1.908   3.942  0.2621 -0.5365 -0.8177
   76MOL   O14818298   1.782   1.772   3.918 -0.2568  0.0235  0.2600
   76MOL   C14918299   1.899   1.732   3.874 -0.3511  0.2418 -0.5731
   76MOL   C15018300   1.904   1.584   3.846  0.1384 -0.1081  0.9837
   76MOL   O15118301   1.998   1.810   3.868  0.2154 -0.0844 -0.4372
   76MOL   H15218302   1.722   1.869   4.161  0.9314  0.5766  1.2133
   76MOL   H15318303   1.692   2.033   4.110 -0.5323 -0.2425 -0.5264
   76MOL   H15418304   1.810   1.968   3.879  2.3624 -1.6636  0.2314
   76MOL   H15518305   1.805   1.540   3.856  0.4456 -1.1205 -0.4002
   76MOL   H15618306   1.962   1.536   3.926 -1.0217 -2.1025  0.6524
   76MOL   H15718307   1.956   1.561   3.753  0.7478  3.5564  0.3233
   76MOL   C15818308   1.601   1.904   3.886 -0.0498  0.4634  0.4233
   76MOL   C15918309   1.517   2.037   3.887  0.6703  0.9667 -0.1155
   76MOL   O16018310   1.597   2.134   3.822 -0.2373 -0.4961  0.4651
   76MOL   C16118311   1.618   2.254   3.886 -0.4784  0.1626 -0.0330
   76MOL   C16218312   1.693   2.347   3.791  0.3772 -0.1065 -0.4830
   76MOL   O16318313   1.585   2.281   4.002  0.1619 -0.3094 -0.9159
   76MOL   H16418314   1.605   1.858   3.787  0.0526 -1.6877  1.3991
   76MOL   H16518315   1.539   1.847   3.955  1.1143 -2.1976 -0.6453
   76MOL   H16618316   1.487   2.071   3.986 -1.0183  1.9239 -0.9337
   76MOL   H16718317   1.703   2.298   3.694 -0.5276 -2.0649  0.3881
   76MOL   H16818318   1.785   2.358   3.848 -0.9357  1.7181  1.3414
   76MOL   H16918319   1.636   2.440   3.790 -2.4519 -1.7700 -2.6577
   76MOL   C17018320   1.382   2.009   3.811 -0.1950  0.0257  0.0096
   76MOL   C17118321   1.281   2.121   3.798  0.2359  0.2635 -0.1974
   76MOL   O17218322   1.208   2.093   3.684 -0.1710 -0.5308 -0.4468
   76MOL   C17318323   1.142   2.195   3.623 -0.4509  0.1412  0.8122
   76MOL   C17418324   1.084   2.164   3.480  0.1665 -0.0853  0.1207
   76MOL   O17518325   1.141   2.311   3.667  0.1435  0.4048 -0.2539
   76MOL   H17618326   1.398   1.975   3.709  1.3584  2.2362 -0.5171
   76MOL   H17718327   1.335   1.919   3.850  1.6142 -0.9955 -0.0935
   76MOL   H17818328   1.323   2.221   3.784 -1.4480  1.1072  0.6393
   76MOL   H17918329   1.150   2.213   3.409 -1.1645  1.2208 -0.2521
   76MOL   H18018330   0.980   2.188   3.456  0.4306  0.7267 -0.2416
   76MOL   H18118331   1.088   2.055   3.478 -1.4168 -0.1495 -0.3905
   76MOL   C18218332   1.184   2.117   3.927 -0.1242 -0.3178  0.6061
   76MOL   C18318333   1.115   2.249   3.978  0.9305  0.4144  0.1658
   76MOL   O18418334   1.020   2.193   4.074  0.0697 -0.4602 -0.4162
   76MOL   C18518335   0.895   2.218   4.070  0.3058  0.0843  0.1769
   76MOL   C18618336   0.806   2.152   4.172  0.6059 -0.1584 -0.3582
   76MOL   O18718337   0.847   2.290   3.984 -0.5153 -0.5301  0.3294
   76MOL   H18818338   1.107   2.041   3.911 -0.6512 -0.2055  2.4436
   76MOL   H18918339   1.234   2.074   4.014  0.9900  1.8739  1.0915
   76MOL   H19018340   1.065   2.294   3.892  0.2573  1.6289  1.1952
   76MOL   H19118341   0.773   2.054   4.135  0.6960 -0.9464  1.6191
   76MOL   H19218342   0.717   2.213   4.190  0.7586 -0.4824  1.6152
   76MOL   H19318343   0.843   2.130   4.272 -0.1559 -0.5615 -0.1575
   76MOL   C19418344   1.210   2.344   4.049 -0.2471 -0.1207 -0.1757
   76MOL   C19518345   1.137   2.464   4.123 -0.4886  0.2099 -0.1976
   76MOL   O19618346   1.193   2.469   4.253 -0.1240  0.3395  0.1053
   76MOL   C19718347   1.144   2.402   4.356  0.2252  0.4146  0.1955
   76MOL   C19818348   1.195   2.436   4.495  0.6522  0.3106  0.4264
   76MOL   O19918349   1.058   2.313   4.348  0.0882  0.3787  0.1634
   76MOL   H20018350   1.275   2.284   4.113 -0.8286  1.3983  1.8860
   76MOL   H20118351   1.276   2.378   3.969  0.4712  3.3954  1.8129
   76MOL   H20218352   1.029   2.451   4.130 -0.5029  0.5910  0.3372
   76MOL   H20318353   1.119   2.495   4.545  0.2607 -0.5866  0.9161
   76MOL   H20418354   1.291   2.489   4.494  0.9557 -0.2497 -1.1312
   76MOL   H20518355   1.211   2.341   4.547  0.5103  0.4417  0.7139
   76MOL   C20618356   1.164   2.597   4.052 -1.1876 -0.2955  0.0355
   76MOL   C20718357   1.088   2.717   4.101  0.2861  0.1462  0.3006
   76MOL   O20818358   1.164   2.774   4.213  0.6343 -0.0559 -0.2288
   76MOL   C20918359   1.127   2.757   4.344  0.4796  0.4794  0.7358
   76MOL   C21018360   1.212   2.833   4.450 -0.1810  0.5490  0.2693
   76MOL   O21118361   1.027   2.699   4.382  0.4455  0.0115  0.5862
   76MOL   H21218362   1.265   2.611   4.014 -1.9003 -0.1159 -1.8572
   76MOL   H21318363   1.115   2.583   3.956 -2.3993 -1.7100  0.8510
   76MOL   H21418364   0.985   2.684   4.117 -0.2397  1.4701 -0.3054
   76MOL   H21518365   1.226   2.776   4.542  0.3364 -0.6760 -0.5650
   76MOL   H21618366   1.169   2.930   4.478  1.4766  0.7253  2.3406
   76MOL   H21718367   1.312   2.843   4.408  0.4271 -2.2233  0.9429
   76MOL   C21818368   1.090   2.828   3.994 -0.0516 -0.0638 -0.2856
   76MOL   C21918369   1.002   2.947   4.038  0.0418 -0.8614 -0.2675
   76MOL   O22018370   1.021   3.052   3.942 -0.4080 -0.0015  0.1959
   76MOL   C22118371   1.055   3.179   3.985 -0.3002  0.6489 -0.2827
   76MOL   C22218372   1.103   3.267   3.875 -0.0719 -0.2379  0.5389
   76MOL   O22318373   1.048   3.220   4.101  0.0239 -0.1237 -0.8267
   76MOL   H22418374   1.183   2.863   3.949 -0.1257  0.1603 -0.2686
   76MOL   H22518375   1.032   2.800   3.907 -0.0200  2.0162 -1.0196
   76MOL   H22618376   1.046   2.989   4.129 -0.3181 -1.4682  0.1892
   76MOL   H22718377   1.030   3.345   3.854  0.6196 -0.2146 -1.9514
   76MOL   H22818378   1.124   3.214   3.782  0.9954  0.0558  0.6053
   76MOL   H22918379   1.195   3.315   3.907 -0.2994 -0.1937  1.1421
   76MOL   C23018380   0.858   2.922   4.064  0.6815  0.5014  0.1651
   76MOL   C23118381   0.810   2.897   4.207 -0.5492  0.2940  0.8275
   76MOL   O23218382   0.855   3.007   4.278 -0.5714 -0.2418  0.1261
   76MOL   C23318383   0.779   3.113   4.316 -0.6856 -0.2089  0.1609
   76MOL   C23418384   0.850   3.233   4.371 -0.4850 -0.0457  0.3514
   76MOL   O23518385   0.655   3.113   4.307 -0.2927 -0.3967  0.1038
   76MOL   H23618386   0.797   3.005   4.029  0.4107 -0.2086 -1.0780
   76MOL   H23718387   0.826   2.834   4.007  0.2256 -0.7903  2.3252
   76MOL   H23818388   0.862   2.811   4.249 -2.5841 -1.2041  0.3505
   76MOL   H23918389   0.835   3.322   4.308  0.3371  0.6231  1.0891
   76MOL   H24018390   0.956   3.210   4.380  0.2306  2.3912 -1.3414
   76MOL   H24118391   0.819   3.255   4.473  0.2997 -1.9015  0.9952
   76MOL   H24218392   0.703   2.877   4.205 -0.1163 -2.7358  3.8852
   77MOL     C118393   1.183   3.295   1.490 -0.0501  0.2232 -0.0837
   77MOL     C218394   1.057   3.379   1.449  0.6182  0.3102 -0.0318
   77MOL     O318395   1.091   3.500   1.378  0.1161 -0.3088  0.0584
   77MOL     C418396   1.113   3.621   1.444  0.6646 -0.4136 -0.6760
   77MOL     C518397   1.112   3.734   1.345 -0.0604 -0.0540 -0.4270
   77MOL     O618398   1.120   3.636   1.567 -0.0868 -0.4679 -0.0643
   77MOL     H718399   1.148   3.195   1.513 -1.6663  0.5474 -1.0451
   77MOL     H818400   1.229   3.342   1.577 -1.4935  0.7927  0.3979
   77MOL     H918401   0.997   3.392   1.539 -2.2577 -1.1992 -1.6547
   77MOL    H1018402   1.015   3.755   1.299 -0.1837  2.0547  0.7078
   77MOL    H1118403   1.161   3.707   1.251 -0.8583  0.2108 -0.9225
   77MOL    H1218404   1.162   3.825   1.380 -1.2500  0.9303 -1.2433
   77MOL    H1318405   1.241   3.277   1.400 -0.8858 -0.4639 -0.4926
   77MOL    C1418406   0.960   3.307   1.347 -0.0226  0.3309  0.2390
   77MOL    C1518407   0.841   3.394   1.294 -0.5246 -0.3630 -0.0504
   77MOL    O1618408   0.786   3.343   1.169  0.1047  0.3749  0.0805
   77MOL    C1718409   0.855   3.383   1.058  0.3321 -0.4699 -0.4017
   77MOL    C1818410   0.808   3.314   0.933 -0.1109  0.1587 -0.3824
   77MOL    O1918411   0.953   3.458   1.065 -0.3381  0.6048  0.2673
   77MOL    H2018412   1.022   3.269   1.265  1.2599  0.0786  1.3102
   77MOL    H2118413   0.918   3.215   1.387 -2.1005  1.1515 -0.0174
   77MOL    H2218414   0.873   3.498   1.293  3.1674 -1.3995  1.0297
   77MOL    H2318415   0.846   3.212   0.936 -0.1946  0.1419  0.1764
   77MOL    H2418416   0.860   3.371   0.856 -0.5943  1.4626  0.2360
   77MOL    H2518417   0.701   3.334   0.922 -0.5482 -0.7928  1.8353
   77MOL    C2618418   0.722   3.403   1.398 -0.3354 -0.8545  0.2413
   77MOL    C2718419   0.644   3.539   1.400  0.4849 -0.1353  0.1015
   77MOL    O2818420   0.601   3.569   1.272 -0.1754  0.3582 -0.2441
   77MOL    C2918421   0.652   3.672   1.198  0.6191 -0.0469  0.2878
   77MOL    C3018422   0.596   3.666   1.056  0.2823  0.2714  0.3416
   77MOL    O3118423   0.729   3.758   1.238 -0.1642  0.1192  0.1986
   77MOL    H3218424   0.648   3.327   1.374  0.6852 -1.4167 -1.2028
   77MOL    H3318425   0.763   3.389   1.498 -0.6979 -0.4415  0.4498
   77MOL    H3418426   0.709   3.615   1.443  1.6301 -1.0422 -0.0172
   77MOL    H3518427   0.597   3.763   1.007 -1.7029  0.8538  1.4029
   77MOL    H3618428   0.490   3.645   1.068  0.4421 -0.1797  0.9899
   77MOL    H3718429   0.665   3.605   0.998 -0.6684  0.1768 -0.7055
   77MOL    C3818430   0.512   3.540   1.483  0.2146  0.2546 -0.0646
   77MOL    C3918431   0.430   3.672   1.480 -0.1392  0.3382 -0.3671
   77MOL    O4018432   0.306   3.650   1.558 -0.0310  0.1584 -0.0196
   77MOL    C4118433   0.182   3.670   1.500 -0.0052  0.0507 -0.5366
   77MOL    C4218434   0.068   3.629   1.585 -0.1948 -0.1201 -0.1870
   77MOL    O4318435   0.160   3.708   1.387 -0.5453 -0.4048 -0.2863
   77MOL    H4418436   0.456   3.452   1.453  1.1857 -0.8544  1.3069
   77MOL    H4518437   0.540   3.513   1.585  0.8318 -1.2760 -0.6258
   77MOL    H4618438   0.413   3.699   1.376 -3.8556  2.3586  0.6949
   77MOL    H4718439   8.016   3.584   1.519 -0.1237 -0.6832  0.1094
   77MOL    H4818440   0.031   3.717   1.638 -0.6280 -0.5489  0.2262
   77MOL    H4918441   0.099   3.558   1.662  1.0212  0.6675  0.0663
   77MOL    C5018442   0.507   3.796   1.544  0.1212  0.1804 -0.4099
   77MOL    C5118443   0.422   3.918   1.564 -0.3898  0.2770 -0.5546
   77MOL    O5218444   0.503   4.018   1.626  0.0543  0.1053  0.2515
   77MOL    C5318445   0.515   4.028   1.761  0.3652 -0.0794 -0.5503
   77MOL    C5418446   0.619   4.131   1.797 -0.0032  0.1030 -0.7025
   77MOL    O5518447   0.447   3.965   1.843  0.4012 -0.2120 -0.4559
   77MOL    H5618448   0.550   3.781   1.643  1.2197  0.0153 -0.8998
   77MOL    H5718449   0.590   3.831   1.482 -0.2909 -1.0094 -1.6536
   77MOL    H5818450   0.346   3.880   1.633  0.0125  0.5637  0.0493
   77MOL    H5918451   0.577   4.174   1.888 -0.9902 -2.4453  0.1111
   77MOL    H6018452   0.628   4.192   1.708 -4.5688  1.2962 -0.4291
   77MOL    H6118453   0.721   4.096   1.819 -0.1772  0.8986  1.5836
   77MOL    C6218454   0.351   3.973   1.438  0.4733 -0.0349  0.7611
   77MOL    C6318455   0.219   4.039   1.460  0.1845 -0.2326  0.7069
   77MOL    O6418456   0.232   4.154   1.548  0.1223 -0.1315  0.7737
   77MOL    C6518457   0.191   4.152   1.674  0.1429 -0.0943  0.6124
   77MOL    C6618458   0.221   4.284   1.736  0.1281  0.3815 -0.4419
   77MOL    O6718459   0.133   4.064   1.739 -0.3943 -0.0421 -0.2108
   77MOL    H6818460   0.418   4.049   1.399  1.6501 -1.0692  0.7628
   77MOL    H6918461   0.349   3.897   1.360  0.7469 -0.5920  1.2984
   77MOL    H7018462   0.156   3.962   1.505 -1.6907  0.8282 -0.0515
   77MOL    H7118463   0.315   4.300   1.788 -0.0614  1.3981 -0.3935
   77MOL    H7218464   0.148   4.303   1.815  1.5950  0.4057  0.9324
   77MOL    H7318465   0.218   4.366   1.664  0.0510  0.0543 -0.8079
   77MOL    C7418466   0.141   4.082   1.329 -0.0494 -0.4685 -0.0646
   77MOL    C7518467   8.011   4.034   1.317 -0.1826  0.1466  0.6042
   77MOL    O7618468   7.938   4.068   1.433 -0.2166 -0.3036  0.5960
   77MOL    C7718469   7.860   3.973   1.490  0.1300  0.2077 -0.2300
   77MOL    C7818470   7.803   4.016   1.615 -0.3433  0.2280  0.2343
   77MOL    O7918471   7.846   3.855   1.455  0.9260  0.2065 -0.4080
   77MOL    H8018472   0.148   4.190   1.314 -0.9938 -0.3321  0.4552
   77MOL    H8118473   0.195   4.044   1.242 -0.3535 -2.1860  0.4865
   77MOL    H8218474   8.017   3.925   1.322  3.5088  0.3470  2.4153
   77MOL    H8318475   7.856   4.096   1.667  2.4965 -0.7155 -1.1516
   77MOL    H8418476   7.802   3.927   1.679  0.7558  0.9117  1.2100
   77MOL    H8518477   7.705   4.065   1.610 -0.3120  0.2288 -0.3099
   77MOL    C8618478   7.939   4.088   1.194  0.1842 -0.0791 -0.5005
   77MOL    C8718479   7.987   4.014   1.071  0.5497  0.2983  0.0613
   77MOL    O8818480   7.935   3.884   1.078 -0.0372 -0.1980  0.2249
   77MOL    C8918481   8.020   3.776   1.075 -0.7627 -0.7286  0.5887
   77MOL    C9018482   7.968   3.642   1.126  0.1244  0.5205 -0.1120
   77MOL    O9118483   0.117   3.789   1.039  0.3888  0.0777 -0.1180
   77MOL    H9218484   7.832   4.073   1.204  0.2620 -0.3986 -0.1281
   77MOL    H9318485   7.958   4.194   1.183 -2.0651  0.5242  1.1704
   77MOL    H9418486   0.074   4.020   1.066  0.6370 -1.8328 -1.9523
   77MOL    H9518487   0.031   3.576   1.145 -1.1125 -1.0942 -0.0390
   77MOL    H9618488   7.900   3.596   1.054  1.4959  0.5394 -1.4423
   77MOL    H9718489   7.929   3.663   1.226  2.6492  0.6679  0.8648
   77MOL    C9818490   7.928   4.082   0.943  0.0796  0.7590  0.1009
   77MOL    C9918491   7.988   4.220   0.915 -0.0096  0.3353 -0.3920
   77MOL   O10018492   0.078   4.182   0.841  0.0905  0.4640 -0.1451
   77MOL   C10118493   0.205   4.228   0.872 -0.0299 -0.5109 -0.3594
   77MOL   C10218494   0.315   4.137   0.825 -0.5799 -0.5587 -0.3158
   77MOL   O10318495   0.231   4.322   0.946 -0.0368 -0.0569  0.5614
   77MOL   H10418496   7.943   4.014   0.859  0.1959  0.2752  0.5118
   77MOL   H10518497   7.820   4.094   0.954  0.0477  1.7664 -1.1672
   77MOL   H10618498   0.001   4.278   1.001 -0.9230 -0.0688  0.2593
   77MOL   H10718499   0.414   4.178   0.844 -0.9485  1.7354 -2.9095
   77MOL   H10818500   0.307   4.122   0.717 -1.8132  0.8092 -0.4480
   77MOL   H10918501   0.309   4.041   0.875  1.2394  0.3742  1.7687
   77MOL   C11018502   7.908   4.313   0.829  0.0062 -0.2544  0.1935
   77MOL   C11118503   7.957   4.464   0.822 -0.1923 -0.3806 -0.0140
   77MOL   O11218504   7.849   4.542   0.769  0.2086 -0.2943  0.1406
   77MOL   C11318505   7.880   4.652   0.705  0.4907 -0.1319  0.0142
   77MOL   C11418506   7.751   4.712   0.645 -1.2671  0.3844 -0.1015
   77MOL   O11518507   7.994   4.703   0.691  0.4175  0.3014 -0.1329
   77MOL   H11618508   7.911   4.272   0.728  1.8434 -1.5657  0.7605
   77MOL   H11718509   7.806   4.302   0.866  0.7816 -4.5225  1.3915
   77MOL   H11818510   0.017   4.459   0.749 -0.0121 -0.5188  0.1957
   77MOL   H11918511   7.673   4.706   0.721  0.1083 -1.1661  1.2388
   77MOL   H12018512   7.724   4.664   0.551 -0.6410 -0.8528  0.3405
   77MOL   H12118513   7.764   4.818   0.625 -1.5904  0.0721 -2.0489
   77MOL   C12218514   7.994   4.529   0.954 -1.0142  0.0468 -0.3685
   77MOL   C12318515   7.905   4.514   1.077  0.2782  0.0589  0.1100
   77MOL   O12418516   7.990   4.536   1.192 -0.6278  0.2069 -0.0669
   77MOL   C12518517   7.976   4.480   1.310 -0.2426  0.4006  0.3483
   77MOL   C12618518   0.038   4.553   1.409 -0.4085  0.0630  0.2496
   77MOL   O12718519   7.911   4.379   1.337 -0.2503  0.3758 -0.1201
   77MOL   H12818520   0.068   4.485   0.983  0.4506  1.6105 -2.5872
   77MOL   H12918521   8.020   4.634   0.939  0.2088 -0.5224 -2.5418
   77MOL   H13018522   7.863   4.415   1.093  0.9296 -0.6013 -2.1902
   77MOL   H13118523   0.076   4.493   1.491 -1.2080  0.4069  0.8802
   77MOL   H13218524   7.990   4.623   1.456  2.0120  0.9602  2.6098
   77MOL   H13318525   0.116   4.610   1.358 -0.6524 -1.1294 -1.4925
   77MOL   C13418526   7.792   4.623   1.082  0.1936 -0.3820 -0.0690
   77MOL   C13518527   7.643   4.567   1.073  0.2259  0.4664  0.4001
   77MOL   O13618528   7.619   4.477   1.176  0.0278  0.2780 -0.2431
   77MOL   C13718529   7.625   4.345   1.160 -0.1594 -0.7795 -0.3780
   77MOL   C13818530   7.616   4.252   1.277 -0.4807 -0.4058  0.3365
   77MOL   O13918531   7.627   4.294   1.046  0.0524  0.6941 -0.1302
   77MOL   H14018532   7.793   4.657   1.186  1.8322  1.7838 -0.7740
   77MOL   H14118533   7.808   4.719   1.034  1.7796  0.1228  1.4246
   77MOL   H14218534   7.648   4.524   0.972 -0.2478  1.2042  0.0562
   77MOL   H14318535   7.614   4.154   1.230  0.6746 -1.3526  2.1832
   77MOL   H14418536   7.530   4.261   1.342 -0.8213  0.4493 -0.2249
   77MOL   H14518537   7.708   4.257   1.336 -0.6334 -1.6791  0.6971
   77MOL   C14618538   7.523   4.664   1.074  0.2891 -0.4383  0.3099
   77MOL   C14718539   7.385   4.601   1.029  0.5805 -0.1418  0.2827
   77MOL   O14818540   7.286   4.699   1.050 -0.4615 -0.2682  0.2591
   77MOL   C14918541   7.246   4.734   1.170  0.1167  0.2214  0.2373
   77MOL   C15018542   7.151   4.848   1.160  0.6664 -0.0856 -0.2534
   77MOL   O15118543   7.271   4.676   1.272 -0.0320 -0.0257 -0.4034
   77MOL   H15218544   7.515   4.707   1.175 -0.1456  0.3454 -0.0544
   77MOL   H15318545   7.524   4.749   1.006 -1.1071 -0.5098  0.1874
   77MOL   H15418546   7.362   4.512   1.086  0.4747  2.1891  4.0576
   77MOL   H15518547   7.050   4.822   1.191  0.7645  1.2755  1.2192
   77MOL   H15618548   7.140   4.880   1.056  2.8022  2.6020  0.2686
   77MOL   H15718549   7.185   4.929   1.224 -0.5115  0.1418  0.0988
   77MOL   C15818550   7.382   4.547   0.887  0.3298  0.2600  0.4279
   77MOL   C15918551   7.286   4.423   0.865 -0.7783  0.3429 -0.8923
   77MOL   O16018552   7.153   4.467   0.889  0.2535 -0.1653  0.2973
   77MOL   C16118553   7.054   4.391   0.935 -0.3192 -0.0813 -0.0908
   77MOL   C16218554   6.915   4.459   0.939 -0.5400  0.1199  0.6341
   77MOL   O16318555   7.071   4.278   0.978  0.8541  0.4385  0.0717
   77MOL   H16418556   7.342   4.621   0.819 -1.1717  0.6777  1.7375
   77MOL   H16518557   7.481   4.521   0.850 -0.9341 -0.0257 -2.8510
   77MOL   H16618558   7.305   4.353   0.946 -0.4097 -0.0301 -1.2949
   77MOL   H16718559   6.895   4.513   0.846  1.3950  0.6275  0.5035
   77MOL   H16818560   6.904   4.536   1.016 -1.6216  0.8130 -0.1908
   77MOL   H16918561   6.829   4.393   0.948 -0.5267  0.0870  0.5197
   77MOL   C17018562   7.287   4.358   0.729 -0.6902  0.3863 -0.1561
   77MOL   C17118563   7.340   4.214   0.731  0.3414  0.4196  0.9575
   77MOL   O17218564   7.274   4.142   0.835  0.0222 -0.1271 -0.0969
   77MOL   C17318565   7.355   4.072   0.926 -0.2543  0.0457 -0.0343
   77MOL   C17418566   7.279   4.032   1.046  0.6333  0.3825 -0.0928
   77MOL   O17518567   7.473   4.041   0.905 -0.1256  0.0398 -0.8436
   77MOL   H17618568   7.192   4.356   0.675 -1.1197  1.2494  0.5492
   77MOL   H17718569   7.341   4.435   0.674  0.6376 -0.5330 -0.1509
   77MOL   H17818570   7.449   4.217   0.742  0.6538  2.1030 -1.9633
   77MOL   H17918571   7.182   3.990   1.022  0.4428  1.5950 -1.5171
   77MOL   H18018572   7.268   4.121   1.108  1.9601  0.7079 -0.3117
   77MOL   H18118573   7.336   3.959   1.104 -0.9084  0.1023  1.1097
   77MOL   C18218574   7.312   4.154   0.594 -0.0548  0.0838  0.3031
   77MOL   C18318575   7.389   4.214   0.475  0.0924 -0.4740 -0.3014
   77MOL   O18418576   7.521   4.161   0.497 -0.1160  0.3542 -0.3146
   77MOL   C18518577   7.626   4.227   0.459  1.0464  0.0848 -0.0787
   77MOL   C18618578   7.752   4.143   0.465 -0.2230  0.3848  0.0786
   77MOL   O18718579   7.640   4.342   0.437  0.1299 -0.2788  0.5301
   77MOL   H18818580   7.342   4.049   0.589 -1.1898 -0.1640 -1.8799
   77MOL   H18918581   7.208   4.155   0.563  0.2606 -0.6150 -0.8115
   77MOL   H19018582   7.395   4.323   0.476  0.0952 -0.4194 -2.5384
   77MOL   H19118583   7.724   4.038   0.475 -2.2463  0.8245 -0.8521
   77MOL   H19218584   7.822   4.164   0.545  1.2446  0.6908 -1.2538
   77MOL   H19318585   7.807   4.143   0.371  0.1727  3.2817  0.2738
   77MOL   C19418586   7.326   4.159   0.347  0.8219  0.1680 -0.3377
   77MOL   C19518587   7.393   4.209   0.215  0.1454 -0.0455 -0.4834
   77MOL   O19618588   7.337   4.129   0.112 -0.0504  0.2731 -0.5350
   77MOL   C19718589   7.421   4.061   0.032  0.5005  0.4532  0.3323
   77MOL   C19818590   7.335   3.958   7.977 -0.5556  0.0869 -0.2502
   77MOL   O19918591   7.547   4.061   0.033 -0.4297 -0.0239 -0.2218
   77MOL   H20018592   7.328   4.050   0.352 -0.9548  0.1285 -0.1868
   77MOL   H20118593   7.221   4.188   0.333  0.2928 -1.1418  0.8709
   77MOL   H20218594   7.498   4.186   0.234 -0.3566 -2.0246 -0.0130
   77MOL   H20318595   7.399   3.876   7.944  1.9002  1.5303  0.7399
   77MOL   H20418596   7.301   3.991   7.879  2.0895  1.2951 -0.8112
   77MOL   H20518597   7.256   3.914   0.016  0.5651 -1.0455  0.4028
   77MOL   C20618598   7.380   4.365   0.187 -0.4859  0.1616 -0.1216
   77MOL   C20718599   7.480   4.409   0.074  0.7997  0.5158 -0.2369
   77MOL   O20818600   7.436   4.539   0.043  0.1916  0.2568 -0.5867
   77MOL   C20918601   7.403   4.573   7.939  0.6830  0.1168 -0.4543
   77MOL   C21018602   7.339   4.707   7.932  0.4972 -0.0059  0.2346
   77MOL   O21118603   7.420   4.504   7.839  0.0650 -0.7048 -0.0497
   77MOL   H21218604   7.278   4.380   0.152 -0.7980 -1.6898 -0.0550
   77MOL   H21318605   7.381   4.428   0.276  0.3416  0.4411 -0.3222
   77MOL   H21418606   7.465   4.340   8.013  1.7363 -0.6265  0.5431
   77MOL   H21518607   7.311   4.731   7.830 -0.9765 -1.8749  0.1681
   77MOL   H21618608   7.419   4.775   7.961 -0.7448  0.9708  1.4453
   77MOL   H21718609   7.258   4.706   8.006 -0.9831 -0.0357 -1.3683
   77MOL   C21818610   7.632   4.415   0.109 -0.2884  0.6344  0.5494
   77MOL   C21918611   7.732   4.437   8.015 -0.6463 -0.1636  0.9757
   77MOL   O22018612   7.853   4.487   0.051 -0.0388  0.4590  0.6567
   77MOL   C22118613   7.893   4.616   0.036 -0.1637  0.3507  0.4887
   77MOL   C22218614   8.018   4.655   0.105 -0.5366 -0.2452  0.6969
   77MOL   O22318615   7.823   4.705   8.006 -0.3606 -0.4318  0.3116
   77MOL   H22418616   7.653   4.490   0.186  3.0320  0.2942  0.0261
   77MOL   H22518617   7.659   4.322   0.158  1.3682  0.1498 -1.2328
   77MOL   H22618618   7.690   4.514   7.951  1.0929 -0.3946 -0.5078
   77MOL   H22718619   0.060   4.571   0.133 -0.5628 -0.1595  1.0273
   77MOL   H22818620   7.986   4.706   0.196  0.3294  0.0731  0.8329
   77MOL   H22918621   0.044   4.724   0.036 -3.0642  1.9981  1.1189
   77MOL   C23018622   7.771   4.314   7.927  0.0351 -0.5076  0.2293
   77MOL   C23118623   7.884   4.337   7.838 -0.6756  0.0278  0.1984
   77MOL   O23218624   7.886   4.235   7.738  0.1839  0.6926  0.7319
   77MOL   C23318625   7.995   4.194   7.670  0.8703  0.0962 -0.4440
   77MOL   C23418626   7.945   4.114   7.549  0.1155 -0.2547 -0.0739
   77MOL   O23518627   0.090   4.216   7.699  0.5099 -0.5675  0.4919
   77MOL   H23618628   7.797   4.225   7.985 -0.7204 -0.1193  1.1783
   77MOL   H23718629   7.685   4.294   7.864  0.1627  1.0259 -0.4402
   77MOL   H23818630   7.978   4.337   7.894  0.4372 -0.0530 -1.5970
   77MOL   H23918631   7.954   4.006   7.560 -1.4554 -0.4833 -0.8885
   77MOL   H24018632   8.006   4.136   7.461  0.6817  1.9318  0.8219
   77MOL   H24118633   7.847   4.150   7.516 -0.1966 -0.2777  0.8280
   77MOL   H24218634   7.880   4.432   7.784  2.9631  0.0545 -0.1811
   78MOL     C118635   1.931   2.220   3.489 -0.8892  0.2834  0.3356
   78MOL     C218636   2.001   2.306   3.589 -0.6391  0.2083  0.3645
   78MOL     O318637   2.093   2.227   3.654  0.4135  0.1417 -1.0528
   78MOL     C418638   2.055   2.156   3.762  0.3649 -0.4360 -0.2290
   78MOL     C518639   2.166   2.112   3.844  0.0742  0.5225  0.1804
   78MOL     O618640   1.940   2.128   3.790 -0.0325  0.3773 -0.3708
   78MOL     H718641   1.863   2.146   3.531  2.2946 -1.4176  2.7327
   78MOL     H818642   2.003   2.169   3.426 -0.2430 -0.6638  1.8154
   78MOL     H918643   1.929   2.347   3.660 -1.1376 -0.5155  0.2803
   78MOL    H1018644   2.206   2.189   3.911  2.4733 -0.0361 -0.5600
   78MOL    H1118645   2.248   2.071   3.785 -2.0749 -1.6594 -1.3597
   78MOL    H1218646   2.122   2.025   3.892 -0.0299  0.0868 -0.7068
   78MOL    H1318647   1.868   2.279   3.422 -1.0706 -1.9932 -1.5536
   78MOL    C1418648   2.075   2.427   3.527 -0.0257  0.3830 -0.8515
   78MOL    C1518649   2.063   2.557   3.604 -0.7955 -0.2924  0.3733
   78MOL    O1618650   2.149   2.544   3.716  0.3156 -0.2006 -0.2145
   78MOL    C1718651   2.093   2.532   3.836  0.1867 -0.1047 -0.2740
   78MOL    C1818652   2.191   2.520   3.953  0.3196 -0.1744  0.4218
   78MOL    O1918653   1.972   2.534   3.860 -0.0251 -0.1785  0.5379
   78MOL    H2018654   2.180   2.401   3.517 -0.4350 -0.8289 -2.0060
   78MOL    H2118655   2.043   2.446   3.425 -1.3248  0.8697 -0.3679
   78MOL    H2218656   1.960   2.577   3.632 -0.8813 -0.9363  0.5333
   78MOL    H2318657   2.296   2.517   3.924  0.0786  2.8537 -0.9998
   78MOL    H2418658   2.176   2.422   3.997  2.3801 -0.5426  0.3495
   78MOL    H2518659   2.179   2.600   4.026  0.9575  0.1632  0.1647
   78MOL    C2618660   2.117   2.665   3.517  0.2715  0.3142 -0.4972
   78MOL    C2718661   2.012   2.741   3.432 -0.0980  0.2451 -1.1754
   78MOL    O2818662   1.909   2.798   3.508 -0.2549 -0.3481 -0.2946
   78MOL    C2918663   1.791   2.749   3.499 -0.0390 -0.1177 -0.3255
   78MOL    C3018664   1.698   2.812   3.597  0.3747 -0.9030 -0.3713
   78MOL    O3118665   1.758   2.650   3.434  0.3323 -0.1063 -0.0924
   78MOL    H3218666   2.157   2.739   3.586  0.2218 -0.1611  0.0468
   78MOL    H3318667   2.197   2.625   3.455 -0.5066 -1.0560 -0.6218
   78MOL    H3418668   1.980   2.659   3.367  0.6235 -1.8938  1.0507
   78MOL    H3518669   1.729   2.916   3.606 -2.3766  0.2007 -2.7245
   78MOL    H3618670   1.705   2.764   3.695 -1.8631 -0.2139  0.1736
   78MOL    H3718671   1.592   2.808   3.572  0.4441 -3.9384 -0.3711
   78MOL    C3818672   2.083   2.855   3.357  0.2027 -0.9013 -0.6169
   78MOL    C3918673   1.976   2.916   3.257  0.2117 -0.2108 -0.0516
   78MOL    O4018674   1.996   3.048   3.214 -0.0320  0.1491  0.5387
   78MOL    C4118675   1.928   3.148   3.279 -0.9044  0.0848 -0.5825
   78MOL    C4218676   1.955   3.280   3.212 -0.6622  0.1747  0.5055
   78MOL    O4318677   1.855   3.144   3.378 -0.4532 -0.5067  0.3645
   78MOL    H4418678   2.114   2.937   3.420 -0.2020  1.3979 -3.2962
   78MOL    H4518679   2.175   2.827   3.305  0.1656  0.3424 -1.3704
   78MOL    H4618680   1.870   2.910   3.285  0.7394  1.0858  2.3352
   78MOL    H4718681   2.021   3.339   3.277  1.5926  0.0132 -1.5508
   78MOL    H4818682   1.863   3.338   3.215  0.5216  2.1020  1.2802
   78MOL    H4918683   1.992   3.260   3.112  1.1740 -0.5264  1.2855
   78MOL    C5018684   1.976   2.839   3.123  0.2924 -1.0435 -0.5957
   78MOL    C5118685   1.856   2.855   3.018  0.2132  0.0705  0.0558
   78MOL    O5218686   1.894   2.971   2.946  0.5807  0.1322  0.3716
   78MOL    C5318687   1.811   3.083   2.929  0.2324  0.0525  0.0938
   78MOL    C5418688   1.882   3.196   2.843  0.5898  0.0310  0.0556
   78MOL    O5518689   1.698   3.103   2.977  0.1219 -0.4136  0.0650
   78MOL    H5618690   2.064   2.860   3.062  0.5374 -1.5226 -0.4092
   78MOL    H5718691   1.992   2.734   3.147 -1.2197 -0.7509  1.8433
   78MOL    H5818692   1.764   2.872   3.074  0.4775 -3.6266  1.7564
   78MOL    H5918693   1.833   3.202   2.746  0.6536 -0.6505 -0.0197
   78MOL    H6018694   1.986   3.167   2.832  1.2111  1.5296  1.6388
   78MOL    H6118695   1.870   3.287   2.902 -2.9182 -1.0608  1.1603
   78MOL    C6218696   1.837   2.741   2.918 -0.3326  0.1938 -0.2791
   78MOL    C6318697   1.758   2.621   2.967  0.0795 -0.2935  0.0494
   78MOL    O6418698   1.845   2.546   3.054  0.0336  0.1309 -0.1720
   78MOL    C6518699   1.930   2.462   3.009 -1.1290  0.3739  0.3032
   78MOL    C6618700   1.990   2.372   3.110 -0.3411 -0.5705 -0.7936
   78MOL    O6718701   1.956   2.450   2.888  0.4034 -0.2106  0.8178
   78MOL    H6818702   1.800   2.769   2.819  2.2696  1.9768 -0.8067
   78MOL    H6918703   1.939   2.708   2.902 -0.3833  1.1104 -2.5987
   78MOL    H7018704   1.741   2.563   2.877 -1.8274  0.6076 -0.1880
   78MOL    H7118705   1.950   2.404   3.206 -1.5069 -3.7535 -0.1442
   78MOL    H7218706   2.099   2.371   3.111 -0.3246  1.1142 -0.0323
   78MOL    H7318707   1.952   2.271   3.094  0.1260 -1.3368  2.5132
   78MOL    C7418708   1.623   2.640   3.035 -0.2947 -0.4689 -0.1141
   78MOL    C7518709   1.522   2.749   2.979 -0.3861  0.1727 -0.2808
   78MOL    O7618710   1.491   2.726   2.839 -0.4496 -0.1768 -0.0928
   78MOL    C7718711   1.542   2.808   2.738  0.1898  0.1873  0.2613
   78MOL    C7818712   1.502   2.753   2.603  0.7425  0.0914  0.8742
   78MOL    O7918713   1.602   2.917   2.748 -0.6130  0.2363  0.4065
   78MOL    H8018714   1.576   2.542   3.043 -0.6758 -0.1316  1.9546
   78MOL    H8118715   1.654   2.667   3.136 -0.5379 -2.0520  0.4023
   78MOL    H8218716   1.560   2.851   2.990 -0.8962  0.1115  2.2544
   78MOL    H8318717   1.402   2.796   2.597  0.7337  0.2310  1.8876
   78MOL    H8418718   1.503   2.645   2.616  0.8137  0.3646  3.3599
   78MOL    H8518719   1.561   2.799   2.525 -0.7424  2.3912  1.0471
   78MOL    C8618720   1.391   2.743   3.068 -0.1100 -0.8657 -0.1798
   78MOL    C8718721   1.409   2.782   3.217 -0.0785  0.2944  0.4380
   78MOL    O8818722   1.423   2.926   3.228  0.4696  0.0118 -0.2472
   78MOL    C8918723   1.544   2.983   3.242  0.4808  0.3671 -0.5555
   78MOL    C9018724   1.536   3.134   3.246 -0.0128 -0.1045  0.4347
   78MOL    O9118725   1.652   2.921   3.255  0.4810  0.5102 -0.9822
   78MOL    H9218726   1.321   2.816   3.028 -1.1830  0.3532  3.6850
   78MOL    H9318727   1.348   2.643   3.064  2.3369 -1.8897 -2.4774
   78MOL    H9418728   1.501   2.735   3.250  1.2041  1.4672 -1.3777
   78MOL    H9518729   1.442   3.167   3.292  0.9994  1.2728  1.5552
   78MOL    H9618730   1.547   3.176   3.147 -1.1873  0.5869  0.5871
   78MOL    H9718731   1.607   3.175   3.317 -0.1175  0.0115  0.4732
   78MOL    C9818732   1.289   2.741   3.305  1.1664  0.7443 -0.1829
   78MOL    C9918733   1.274   2.589   3.332 -0.0112  0.1380  0.9037
   78MOL   O10018734   1.391   2.552   3.404  0.0818 -0.0877 -0.6930
   78MOL   C10118735   1.467   2.453   3.370 -0.7108  0.1027  0.1370
   78MOL   C10218736   1.563   2.414   3.481  0.6793 -0.8189  0.4528
   78MOL   O10318737   1.463   2.392   3.266 -0.2894  0.0168 -0.0418
   78MOL   H10418738   1.290   2.790   3.402 -1.4636 -0.0628  0.2744
   78MOL   H10518739   1.205   2.778   3.246 -0.3342 -0.3899  1.2216
   78MOL   H10618740   1.275   2.540   3.235  3.4154 -0.2309  1.0532
   78MOL   H10718741   1.559   2.487   3.561 -2.4140 -0.3016 -0.1213
   78MOL   H10818742   1.667   2.400   3.448 -0.1990 -3.7212 -1.3785
   78MOL   H10918743   1.518   2.321   3.517 -3.0457  0.1549 -1.4597
   78MOL   C11018744   1.149   2.543   3.412 -0.2455  0.1124  0.0676
   78MOL   C11118745   1.010   2.593   3.361  0.4663  0.3856 -0.4465
   78MOL   O11218746   0.967   2.517   3.253  0.4219  0.0763 -0.2945
   78MOL   C11318747   1.001   2.549   3.130  0.2249  0.4513  0.1198
   78MOL   C11418748   0.924   2.488   3.013 -0.0846  0.3303  0.0502
   78MOL   O11518749   1.076   2.641   3.098  0.1958  0.2760 -0.0597
   78MOL   H11618750   1.147   2.434   3.407 -0.3800  0.1684 -1.4035
   78MOL   H11718751   1.161   2.548   3.520 -2.5229 -0.3096  0.3591
   78MOL   H11818752   1.026   2.698   3.335  1.2276  0.6235  0.9235
   78MOL   H11918753   0.944   2.534   2.916  1.5624 -1.0915 -0.3044
   78MOL   H12018754   0.816   2.496   3.027 -0.3819 -3.5865  0.5793
   78MOL   H12118755   0.949   2.383   3.000 -1.3412  0.2317 -1.5895
   78MOL   C12218756   0.893   2.583   3.463  0.6024  0.3939  0.5152
   78MOL   C12318757   0.907   2.671   3.592 -0.2370  0.5943 -0.0401
   78MOL   O12418758   0.897   2.810   3.566 -0.1069  0.0320 -0.1966
   78MOL   C12518759   1.004   2.895   3.585 -0.2936 -0.2773 -1.0117
   78MOL   C12618760   0.958   3.039   3.571 -0.1271 -0.8199 -0.7458
   78MOL   O12718761   1.123   2.865   3.602 -0.0401 -0.0454  0.3819
   78MOL   H12818762   0.797   2.610   3.418  1.1353  0.4431 -0.5915
   78MOL   H12918763   0.889   2.480   3.498 -1.2596  0.4334  0.4868
   78MOL   H13018764   1.008   2.645   3.624 -0.8446 -1.7660  0.0228
   78MOL   H13118765   0.858   3.053   3.612 -0.1976  0.3889 -1.3002
   78MOL   H13218766   0.953   3.079   3.470  0.5849  1.5570  0.1374
   78MOL   H13318767   1.023   3.105   3.628  0.0897 -1.4237 -0.2885
   78MOL   C13418768   0.812   2.634   3.708 -0.2003  0.0130 -0.0984
   78MOL   C13518769   0.659   2.680   3.687 -0.1344  0.0157 -0.1290
   78MOL   O13618770   0.595   2.595   3.586 -0.7661  0.0649  0.3289
   78MOL   C13718771   0.486   2.648   3.522 -0.5583  0.5776 -0.5866
   78MOL   C13818772   0.444   2.551   3.410 -0.4885  0.5244 -0.0561
   78MOL   O13918773   0.424   2.758   3.539 -0.6345  1.3116 -0.1714
   78MOL   H14018774   0.818   2.526   3.719  0.5572  0.1252  0.5958
   78MOL   H14118775   0.842   2.686   3.799  1.8558 -1.0537 -0.1420
   78MOL   H14218776   0.662   2.784   3.653 -1.5931  0.5717  1.3565
   78MOL   H14318777   0.401   2.462   3.456 -0.4834  0.5805  0.0571
   78MOL   H14418778   0.524   2.518   3.344 -0.9416 -0.7912  0.0262
   78MOL   H14518779   0.373   2.608   3.350 -0.8227 -0.4329 -0.5818
   78MOL   C14618780   0.578   2.672   3.819  0.1304 -0.8088 -0.6008
   78MOL   C14718781   0.571   2.535   3.883 -0.3475 -0.5101 -0.0382
   78MOL   O14818782   0.582   2.550   4.019 -0.6386  0.3637 -0.1198
   78MOL   C14918783   0.696   2.562   4.083 -0.2017  0.0540  0.3721
   78MOL   C15018784   0.673   2.571   4.227 -0.6555  0.2496 -0.2808
   78MOL   O15118785   0.810   2.575   4.034 -0.3856 -0.1597  0.1405
   78MOL   H15218786   0.623   2.748   3.883 -1.8710 -0.8543  0.9141
   78MOL   H15318787   0.487   2.721   3.784 -0.0440 -0.5660  0.1822
   78MOL   H15418788   0.655   2.471   3.853  1.8282  0.4782  3.6588
   78MOL   H15518789   0.628   2.668   4.248 -0.1679  0.4876 -0.3441
   78MOL   H15618790   0.769   2.552   4.276 -1.0248  0.1388  0.4082
   78MOL   H15718791   0.594   2.500   4.252  0.7603 -1.4966 -0.6923
   78MOL   C15818792   0.443   2.462   3.861  0.5652  0.1281  0.0401
   78MOL   C15918793   0.433   2.325   3.923 -0.1131  0.1659  0.1202
   78MOL   O16018794   0.298   2.291   3.922  0.1543  0.5096  0.6330
   78MOL   C16118795   0.217   2.332   4.031  0.4147  0.2873 -0.1372
   78MOL   C16218796   0.076   2.273   4.032  0.3850  0.2347  0.3641
   78MOL   O16318797   0.252   2.399   4.127 -0.5293  0.0807  0.3471
   78MOL   H16418798   0.354   2.524   3.871 -0.1227 -0.8969  0.3237
   78MOL   H16518799   0.433   2.447   3.753 -1.0920 -1.5402  0.3963
   78MOL   H16618800   0.470   2.333   4.026 -0.5462  1.9511  0.1416
   78MOL   H16718801   0.027   2.290   4.128  1.5041  0.4495  0.9210
   78MOL   H16818802   0.089   2.166   4.016 -0.8526 -0.0807  1.3876
   78MOL   H16918803   0.011   2.308   3.952 -0.0380 -0.8118  0.2570
   78MOL   C17018804   0.504   2.205   3.855  0.2164  0.3979  0.2260
   78MOL   C17118805   0.532   2.088   3.953 -0.4579  0.2976 -0.3852
   78MOL   O17218806   0.408   2.026   3.993  0.6020 -0.3518  0.5457
   78MOL   C17318807   0.377   2.017   4.129  0.1627  0.2819  0.3156
   78MOL   C17418808   0.235   1.968   4.158 -0.4699  0.4353  0.3629
   78MOL   O17518809   0.454   2.052   4.222  0.4793  0.1403  0.6138
   78MOL   H17618810   0.443   2.173   3.770 -0.0354  0.2265  0.4699
   78MOL   H17718811   0.594   2.241   3.805  1.1041 -1.1752  0.6926
   78MOL   H17818812   0.581   2.139   4.036 -0.6852  0.1057 -0.1315
   78MOL   H17918813   0.188   2.035   4.230 -0.3685 -0.4726  1.2848
   78MOL   H18018814   0.231   1.864   4.188 -2.6444  0.6058  0.7648
   78MOL   H18118815   0.177   2.000   4.071  0.1071  0.3115 -0.0692
   78MOL   C18218816   0.636   1.985   3.911  0.2380 -0.4359  0.2252
   78MOL   C18318817   0.603   1.917   3.773  0.5364 -0.8732  0.1723
   78MOL   O18418818   0.718   1.853   3.718  0.4820  0.4516 -0.0136
   78MOL   C18518819   0.794   1.914   3.630 -0.2004  0.5949 -0.6599
   78MOL   C18618820   0.904   1.824   3.569 -0.0088  0.4290  0.4329
   78MOL   O18718821   0.780   2.031   3.598 -0.1663  0.0139 -0.3547
   78MOL   H18818822   0.730   2.039   3.900  0.8611 -1.7921 -1.3415
   78MOL   H18918823   0.646   1.904   3.984  0.2651 -1.7457 -1.1959
   78MOL   H19018824   0.576   1.994   3.701  2.2715 -1.5683 -1.2572
   78MOL   H19118825   0.876   1.746   3.499  0.2235  0.5015  0.2595
   78MOL   H19218826   0.953   1.774   3.653  0.0704  0.6089  0.4944
   78MOL   H19318827   0.986   1.881   3.525 -1.2317  1.1695 -0.8940
   78MOL   C19418828   0.487   1.816   3.777 -0.4958  1.5212  0.4718
   78MOL   C19518829   0.432   1.760   3.640 -0.7207  0.5485 -0.1424
   78MOL   O19618830   0.362   1.640   3.666  0.2928 -0.1584 -0.3619
   78MOL   C19718831   0.408   1.516   3.631 -0.4396 -0.3028  0.1913
   78MOL   C19818832   0.330   1.409   3.701 -1.3244  0.6391 -0.2427
   78MOL   O19918833   0.498   1.493   3.544  0.5670  0.1820  0.0330
   78MOL   H20018834   0.534   1.736   3.836 -1.0251 -0.5539 -1.8504
   78MOL   H20118835   0.404   1.855   3.837 -0.5161  4.6289 -1.4751
   78MOL   H20218836   0.524   1.751   3.581  0.0767 -0.8978  1.2817
   78MOL   H20318837   0.324   1.321   3.637  0.9281  0.4928 -0.2945
   78MOL   H20418838   0.236   1.457   3.730 -1.5646 -1.0839  1.9463
   78MOL   H20518839   0.377   1.376   3.794  1.0430  1.0749 -1.2549
   78MOL   C20618840   0.340   1.855   3.569 -0.0370  0.1759 -0.0565
   78MOL   C20718841   0.369   1.842   3.413  0.1176  0.0739  0.0327
   78MOL   O20818842   0.346   1.705   3.369  0.6163 -0.5631 -0.3796
   78MOL   C20918843   0.405   1.650   3.264 -0.7817  0.1009  0.5803
   78MOL   C21018844   0.360   1.500   3.250 -0.2222  0.3108  0.4571
   78MOL   O21118845   0.490   1.701   3.197  0.3479 -0.0981 -0.1995
   78MOL   H21218846   0.241   1.818   3.594 -0.0413  0.1747 -0.0756
   78MOL   H21318847   0.346   1.958   3.604 -0.3219  0.4498 -0.7984
   78MOL   H21418848   0.475   1.858   3.390  0.3521 -2.0683 -0.4789
   78MOL   H21518849   0.447   1.434   3.255  1.4651  2.4064 -0.2427
   78MOL   H21618850   0.304   1.485   3.158  0.2550  1.3425 -0.0078
   78MOL   H21718851   0.301   1.473   3.337 -2.0926 -0.1704 -0.9275
   78MOL   C21818852   0.282   1.932   3.322  0.2214  0.2362 -0.7589
   78MOL   C21918853   0.295   2.082   3.344  0.7859 -0.5907 -0.3530
   78MOL   O22018854   0.429   2.125   3.324 -0.1813 -0.1918  0.5854
   78MOL   C22118855   0.498   2.184   3.417  0.7356  0.3543  0.3350
   78MOL   C22218856   0.632   2.228   3.367  0.1052 -0.1495  0.0326
   78MOL   O22318857   0.460   2.203   3.529  0.4937 -0.5278  0.0730
   78MOL   H22418858   0.304   1.921   3.216  0.1505 -0.6158 -0.6868
   78MOL   H22518859   0.179   1.898   3.332 -1.1021  3.0696 -4.0219
   78MOL   H22618860   0.253   2.103   3.443  0.8529  0.0481 -0.4590
   78MOL   H22718861   0.690   2.140   3.397 -1.1695 -1.1646 -0.4301
   78MOL   H22818862   0.655   2.311   3.433 -0.8282 -1.4807  2.1118
   78MOL   H22918863   0.638   2.240   3.259  1.2937  0.4368  0.1612
   78MOL   C23018864   0.221   2.169   3.241  0.0357 -0.1225  0.5522
   78MOL   C23118865   0.205   2.314   3.295 -0.0402 -0.1046 -0.1707
   78MOL   O23218866   0.098   2.384   3.237 -0.3557  0.0763  0.4246
   78MOL   C23318867   0.104   2.439   3.116  0.1200  0.1589  0.2248
   78MOL   C23418868   7.988   2.464   3.060  0.5728 -0.5115 -0.6890
   78MOL   O23518869   0.212   2.468   3.061  0.2123 -0.0759  0.3024
   78MOL   H23618870   0.281   2.152   3.151 -0.9219 -2.6540  0.3546
   78MOL   H23718871   0.121   2.128   3.226 -1.2133  3.2272 -0.7421
   78MOL   H23818872   0.294   2.375   3.278 -0.6075  1.2312  1.4446
   78MOL   H23918873   7.985   2.573   3.055  1.1130 -0.4771 -0.3211
   78MOL   H24018874   7.912   2.425   3.127  0.7293  1.1226  0.4687
   78MOL   H24118875   7.975   2.421   2.961 -0.8237 -1.3732 -0.1327
   78MOL   H24218876   0.187   2.307   3.403  0.1418 -0.2958 -0.1527
   79MOL     C118877   6.376   0.930   2.904  0.4582  0.1346  0.6564
   79MOL     C218878   6.504   0.968   2.833  0.3073 -0.5079  0.6067
   79MOL     O318879   6.597   0.946   2.942  0.4164 -0.0379 -0.3719
   79MOL     C418880   6.698   1.033   2.970  0.5890 -0.3767 -0.2566
   79MOL     C518881   6.771   1.015   3.096  0.3131 -0.1944 -0.3958
   79MOL     O618882   6.728   1.118   2.890  0.8602  0.2787 -0.1206
   79MOL     H718883   6.354   0.826   2.928  1.0582  0.3367  2.1234
   79MOL     H818884   6.286   0.939   2.844  0.5644 -0.8772  0.3345
   79MOL     H918885   6.499   1.077   2.822 -1.1738 -0.5776  0.4133
   79MOL    H1018886   6.739   0.922   3.145 -1.3437  0.8221  0.5298
   79MOL    H1118887   6.738   1.096   3.162 -2.7642 -0.9070 -0.9585
   79MOL    H1218888   6.878   1.019   3.081  0.4359  2.2621  0.9022
   79MOL    H1318889   6.364   0.987   2.996  0.8422  0.8066  0.2936
   79MOL    C1418890   6.539   0.905   2.703  0.1587  0.5690 -0.2562
   79MOL    C1518891   6.638   0.983   2.608  0.3125 -0.6487 -0.7006
   79MOL    O1618892   6.656   0.900   2.493  0.0014 -0.7487  0.2669
   79MOL    C1718893   6.784   0.845   2.449 -0.0145 -0.0547 -0.4285
   79MOL    C1818894   6.770   0.755   2.323  0.1272  0.2729  0.0441
   79MOL    O1918895   6.892   0.860   2.508  0.5450  0.1804  0.2107
   79MOL    H2018896   6.577   0.804   2.718  0.3303  0.6143 -0.3844
   79MOL    H2118897   6.449   0.890   2.642  0.4070  3.2492 -1.3288
   79MOL    H2218898   6.735   1.010   2.650 -0.6212  1.0917  0.3843
   79MOL    H2318899   6.669   0.756   2.282 -0.5217 -0.8402  1.5588
   79MOL    H2418900   6.800   0.653   2.351  0.1064  0.1046 -0.5471
   79MOL    H2518901   6.832   0.798   2.244 -0.3563  0.2316 -0.3560
   79MOL    C2618902   6.571   1.114   2.560 -0.2025 -0.4189  0.5353
   79MOL    C2718903   6.663   1.208   2.476 -0.0993 -0.2574 -0.4917
   79MOL    O2818904   6.784   1.229   2.555  0.1411  0.1452  0.4009
   79MOL    C2918905   6.802   1.341   2.620 -0.5998  0.3929 -0.0068
   79MOL    C3018906   6.915   1.318   2.716  0.2264  0.3761  0.0641
   79MOL    O3118907   6.742   1.446   2.607  1.2050 -0.1725 -0.0474
   79MOL    H3218908   6.480   1.092   2.504  0.6565 -2.9203  0.0792
   79MOL    H3318909   6.529   1.176   2.640 -0.5832  1.0122 -0.7588
   79MOL    H3418910   6.608   1.302   2.483  1.8137  0.9638 -1.5951
   79MOL    H3518911   6.991   1.246   2.684  1.4127  1.3835  0.5549
   79MOL    H3618912   6.880   1.294   2.817  0.8256 -0.7199  0.0224
   79MOL    H3718913   6.969   1.411   2.733 -0.0801  0.3333  1.3123
   79MOL    C3818914   6.697   1.168   2.331  0.2124  1.0439 -0.6484
   79MOL    C3918915   6.767   1.284   2.257 -0.9707 -0.2657  0.2041
   79MOL    O4018916   6.901   1.297   2.303 -0.0315  0.2034  0.5941
   79MOL    C4118917   6.997   1.207   2.277  0.3224 -0.2584  0.2604
   79MOL    C4218918   7.133   1.238   2.346 -0.2271 -0.0829  0.6544
   79MOL    O4318919   6.987   1.116   2.197 -0.1665  0.5429 -0.0668
   79MOL    H4418920   6.757   1.077   2.345  2.5177  2.7068  0.7096
   79MOL    H4518921   6.604   1.139   2.283 -0.5812  0.3863  1.2203
   79MOL    H4618922   6.712   1.374   2.283 -2.4475 -0.3876 -2.3179
   79MOL    H4718923   7.192   1.147   2.334  0.0026 -0.1924  2.4883
   79MOL    H4818924   7.118   1.254   2.453  2.9786 -2.0821  1.4877
   79MOL    H4918925   7.174   1.327   2.299 -1.6768  0.2235 -0.0292
   79MOL    C5018926   6.752   1.267   2.099 -0.0096 -0.1286 -0.4461
   79MOL    C5118927   6.611   1.303   2.054  0.1136  0.2186  0.5378
   79MOL    O5218928   6.594   1.438   2.067  0.2035 -0.2558  0.0218
   79MOL    C5318929   6.503   1.489   2.146 -0.1980  0.0108 -0.2359
   79MOL    C5418930   6.498   1.645   2.141 -0.1516  0.7846 -0.1690
   79MOL    O5518931   6.424   1.429   2.215  0.6446  0.1120  0.5780
   79MOL    H5618932   6.835   1.316   2.047  0.8240 -0.2082  0.7937
   79MOL    H5718933   6.772   1.163   2.073  2.3286 -0.1719  1.4053
   79MOL    H5818934   6.536   1.249   2.113  0.0902 -0.6617 -0.2881
   79MOL    H5918935   6.534   1.678   2.044 -0.1030 -0.7325 -0.6770
   79MOL    H6018936   6.566   1.692   2.212  1.2394 -1.9036  0.3727
   79MOL    H6118937   6.396   1.683   2.139  0.4436  2.3861 -3.4384
   79MOL    C6218938   6.582   1.261   1.907  0.5620 -0.6059  0.2484
   79MOL    C6318939   6.590   1.109   1.883  0.4031  0.2186 -0.5246
   79MOL    O6418940   6.487   1.046   1.963  0.2262 -0.0356  0.0036
   79MOL    C6518941   6.524   0.966   2.066 -0.2498 -0.7259  0.1880
   79MOL    C6618942   6.406   0.902   2.134  0.4680  0.2054  0.6547
   79MOL    O6718943   6.643   0.945   2.107  0.5966  0.0408 -0.0360
   79MOL    H6818944   6.480   1.294   1.887  0.9297  1.8628  2.1712
   79MOL    H6918945   6.658   1.317   1.852 -0.6102  2.2305  1.4113
   79MOL    H7018946   6.687   1.077   1.921  0.2137  1.9514  1.5496
   79MOL    H7118947   6.431   0.887   2.239  0.2310 -1.8807  0.4295
   79MOL    H7218948   6.391   0.801   2.096 -0.9278 -0.5823  3.2182
   79MOL    H7318949   6.317   0.963   2.125  0.7226  0.5793  0.6639
   79MOL    C7418950   6.566   1.084   1.728  0.0613 -0.4218 -0.3510
   79MOL    C7518951   6.623   0.952   1.682 -0.8972  0.4522 -0.6681
   79MOL    O7618952   6.559   0.848   1.763 -0.8072  0.1820 -0.5260
   79MOL    C7718953   6.639   0.745   1.798 -0.1067 -0.1737  0.3597
   79MOL    C7818954   6.575   0.660   1.897 -0.3680  0.2584  0.2990
   79MOL    O7918955   6.755   0.728   1.761  0.1488  0.0612  0.2705
   79MOL    H8018956   6.460   1.090   1.705 -0.1988  0.6826  1.0258
   79MOL    H8118957   6.620   1.160   1.672  1.2164 -0.8975  0.0905
   79MOL    H8218958   6.731   0.957   1.692 -1.0188  1.0740  0.3959
   79MOL    H8318959   6.569   0.555   1.869 -0.8753  0.1962  0.6357
   79MOL    H8418960   6.474   0.694   1.924 -0.7301 -0.6314  0.0654
   79MOL    H8518961   6.641   0.666   1.983 -0.5892  1.7881  0.3780
   79MOL    C8618962   6.587   0.913   1.539 -0.6812  0.1439  0.0433
   79MOL    C8718963   6.682   0.818   1.460  0.1546  0.5702 -0.1244
   79MOL    O8818964   6.642   0.819   1.322  0.2306 -0.8836  0.6450
   79MOL    C8918965   6.600   0.709   1.264  0.0544  0.4536 -0.1460
   79MOL    C9018966   6.549   0.738   1.129  0.3731  0.1886  0.2279
   79MOL    O9118967   6.611   0.597   1.314  0.3510 -0.1337 -0.3716
   79MOL    H9218968   6.484   0.878   1.531  0.5837 -3.8874  0.1234
   79MOL    H9318969   6.585   1.002   1.475  0.2761  0.8104  0.9406
   79MOL    H9418970   6.671   0.716   1.498 -3.0261  1.0784  0.4536
   79MOL    H9518971   6.540   0.641   1.079  0.3962 -0.3902  1.3519
   79MOL    H9618972   6.623   0.786   1.065 -0.6879  0.1184 -1.0899
   79MOL    H9718973   6.458   0.798   1.132  0.3531  0.1513  0.3482
   79MOL    C9818974   6.820   0.869   1.460 -0.0710 -0.4636 -0.7610
   79MOL    C9918975   6.933   0.776   1.406 -0.1924 -0.0302  0.4380
   79MOL   O10018976   7.050   0.860   1.398 -0.9474 -0.1237 -0.6355
   79MOL   C10118977   7.127   0.863   1.285  0.3872 -0.2948 -0.4908
   79MOL   C10218978   7.252   0.949   1.302 -0.0323 -0.0352 -0.6901
   79MOL   O10318979   7.098   0.801   1.180 -0.8713  0.6777  0.3662
   79MOL   H10418980   6.829   0.970   1.419 -0.9331 -0.1949 -0.3066
   79MOL   H10518981   6.853   0.883   1.563 -1.2143  1.5193 -0.6421
   79MOL   H10618982   6.904   0.731   1.311 -0.0537 -0.5768  0.6529
   79MOL   H10718983   7.214   1.041   1.346 -0.6160 -0.6043  0.0058
   79MOL   H10818984   7.294   0.967   1.203 -0.0184  1.6091 -0.3961
   79MOL   H10918985   7.331   0.902   1.360  0.1257 -0.3593 -1.1613
   79MOL   C11018986   6.953   0.657   1.507 -0.5195  0.4002 -0.4494
   79MOL   C11118987   7.044   0.545   1.459  0.2965  0.2879 -0.2459
   79MOL   O11218988   7.064   0.459   1.570 -0.6539 -0.8298  0.1417
   79MOL   C11318989   7.184   0.419   1.608  0.3251 -0.3176  0.0377
   79MOL   C11418990   7.182   0.299   1.701 -0.0293 -0.4522 -0.1333
   79MOL   O11518991   7.294   0.473   1.580  0.7864 -0.2714  0.8927
   79MOL   H11618992   6.996   0.691   1.601 -0.8939  1.0763 -0.5187
   79MOL   H11718993   6.856   0.612   1.532  0.1526 -0.7885  0.0743
   79MOL   H11818994   7.142   0.587   1.437 -0.5266  1.0456 -2.6618
   79MOL   H11918995   7.261   0.232   1.667 -0.5550 -0.7442 -0.7838
   79MOL   H12018996   7.087   0.248   1.693  0.4324 -1.3342 -0.0078
   79MOL   H12118997   7.211   0.345   1.795  1.2202 -1.0719 -0.2029
   79MOL   C12218998   6.994   0.465   1.337 -0.1511 -0.0219  0.0116
   79MOL   C12318999   7.098   0.373   1.263  0.2142  0.5253 -0.2850
   79MOL   O12419000   7.060   0.241   1.302  0.1788  0.1244 -0.6550
   79MOL   C12519001   7.152   0.150   1.340 -0.0470 -0.2948  0.0973
   79MOL   C12619002   7.088   0.013   1.358  1.0593 -0.1216 -0.0543
   79MOL   O12719003   7.268   0.173   1.336  0.1859 -0.0049  0.2493
   79MOL   H12819004   6.915   0.401   1.377 -0.2549 -0.0024 -0.1601
   79MOL   H12919005   6.947   0.531   1.265 -1.1615 -0.8920 -0.1473
   79MOL   H13019006   7.196   0.407   1.296  0.8394 -1.0550 -0.4715
   79MOL   H13119007   6.982   0.019   1.384  0.4380 -3.5154 -1.5125
   79MOL   H13219008   7.140   7.979   1.435 -1.4094 -1.7435  0.5018
   79MOL   H13319009   7.088   7.987   1.260 -1.3264  0.2726 -0.2757
   79MOL   C13419010   7.078   0.371   1.107 -0.1691 -0.5078  0.6671
   79MOL   C13519011   7.153   0.480   1.038  0.0309 -0.6218 -0.3026
   79MOL   O13619012   7.290   0.432   1.018  0.1483 -0.1319  0.3916
   79MOL   C13719013   7.395   0.494   1.069 -0.5274 -0.1378  0.5492
   79MOL   C13819014   7.528   0.410   1.036 -0.4714 -0.4755  0.2761
   79MOL   O13919015   7.397   0.595   1.135 -0.3395 -0.1779  0.4139
   79MOL   H14019016   7.112   0.274   1.072 -0.8927 -1.0662  1.4986
   79MOL   H14119017   6.973   0.359   1.080 -0.1980 -0.6106  0.8255
   79MOL   H14219018   7.149   0.561   1.111  0.1575  0.1745 -1.1702
   79MOL   H14319019   7.584   0.488   0.984 -1.8779  1.8452  2.0973
   79MOL   H14419020   7.507   0.330   0.966  0.1775 -1.5958  1.3564
   79MOL   H14519021   7.571   0.363   1.124  1.2777 -2.0926 -1.3979
   79MOL   C14619022   7.093   0.532   0.901 -0.6948 -0.9563  0.2281
   79MOL   C14719023   7.177   0.632   0.812 -0.3350 -0.1544 -0.0757
   79MOL   O14819024   7.084   0.669   0.711  0.1378 -0.1822 -0.1180
   79MOL   C14919025   7.079   0.606   0.589  0.4003 -0.0507  0.1870
   79MOL   C15019026   6.997   0.679   0.484 -0.3206 -0.1192 -0.0006
   79MOL   O15119027   7.145   0.506   0.560  0.6022 -0.1064 -0.1762
   79MOL   H15219028   7.081   0.440   0.844 -3.0143 -0.8797  0.5765
   79MOL   H15319029   7.003   0.577   0.941 -0.5107 -0.5095  0.1459
   79MOL   H15419030   7.275   0.593   0.783  0.2705  0.2784  1.3640
   79MOL   H15519031   6.907   0.620   0.466  0.4090 -1.1551 -0.3307
   79MOL   H15619032   7.066   0.680   0.399 -2.5076 -0.1622 -1.8075
   79MOL   H15719033   6.982   0.781   0.517 -0.0603  0.0907 -0.5154
   79MOL   C15819034   7.200   0.764   0.890  0.1732 -0.2968 -0.3287
   79MOL   C15919035   7.290   0.867   0.825 -0.2422 -0.3272  0.6946
   79MOL   O16019036   7.305   0.978   0.912  0.3329  0.1014  0.3344
   79MOL   C16119037   7.242   1.093   0.888 -0.2856  0.8433  0.3702
   79MOL   C16219038   7.259   1.194   1.003  0.3710 -0.1803 -0.1790
   79MOL   O16319039   7.209   1.139   0.778 -0.1481  0.4782  0.4176
   79MOL   H16419040   7.109   0.814   0.922  0.4680  0.4138 -0.5922
   79MOL   H16519041   7.247   0.752   0.988 -3.5834  2.3368  1.9370
   79MOL   H16619042   7.240   0.909   0.737  1.1156  1.0024  0.5264
   79MOL   H16719043   7.174   1.260   1.018 -0.3600 -0.9232 -0.9506
   79MOL   H16819044   7.334   1.257   0.954  0.4686  0.4186  0.7427
   79MOL   H16919045   7.317   1.158   1.088  1.0722  0.1087 -0.5244
   79MOL   C17019046   7.429   0.814   0.785 -0.1634  0.2882  0.0242
   79MOL   C17119047   7.524   0.896   0.693  0.3614 -0.7693  0.3336
   79MOL   O17219048   7.510   1.033   0.725 -0.2939  0.4711 -0.4365
   79MOL   C17319049   7.527   1.134   0.641 -0.6645  0.0376 -0.3780
   79MOL   C17419050   7.509   1.272   0.705 -1.0166 -0.5443 -0.0559
   79MOL   O17519051   7.547   1.131   0.518  0.0575  0.3017  0.4343
   79MOL   H17619052   7.475   0.794   0.881  1.6804  1.2979 -0.6279
   79MOL   H17719053   7.409   0.718   0.738  0.4457 -1.0449  2.4230
   79MOL   H17819054   7.498   0.879   0.589  1.4493  1.5130 -0.3638
   79MOL   H17919055   7.546   1.354   0.644 -2.9483 -0.1850 -0.7761
   79MOL   H18019056   7.565   1.272   0.798  1.1597 -1.8305 -1.3178
   79MOL   H18119057   7.403   1.292   0.722 -1.4903 -2.6312 -0.3691
   79MOL   C18219058   7.668   0.850   0.717 -0.0794 -0.6074 -0.0079
   79MOL   C18319059   7.736   0.779   0.595 -0.2047 -0.1342  0.2004
   79MOL   O18419060   7.744   0.883   0.493 -0.2103 -0.0411  0.0218
   79MOL   C18519061   7.781   0.862   0.364 -0.4448  0.5355 -0.0949
   79MOL   C18619062   7.782   0.993   0.291  0.2519 -0.0042 -0.2103
   79MOL   O18719063   7.802   0.756   0.307  0.2224 -0.4474 -0.5708
   79MOL   H18819064   7.736   0.935   0.725 -0.2016 -0.4145 -1.0123
   79MOL   H18919065   7.684   0.806   0.815  0.3034  3.4746  1.8755
   79MOL   H19019066   7.663   0.705   0.563 -0.2671  0.8031 -1.9612
   79MOL   H19119067   7.725   1.063   0.353 -0.3966 -1.1842  0.5447
   79MOL   H19219068   7.739   0.991   0.191 -0.4350 -0.9113  0.0963
   79MOL   H19319069   7.880   1.040   0.292 -0.0215  0.6755 -2.5896
   79MOL   C19419070   7.870   0.711   0.626  0.6938  0.3926  0.1819
   79MOL   C19519071   7.844   0.579   0.710  0.4338 -0.1635 -0.9969
   79MOL   O19619072   7.788   0.471   0.631  0.2218 -0.1401  0.3954
   79MOL   C19719073   7.656   0.438   0.637 -0.2351 -0.1716 -0.2084
   79MOL   C19819074   7.617   0.337   0.534 -0.6356  0.9639  0.1455
   79MOL   O19919075   7.572   0.488   0.707  0.0676  0.1120 -0.6946
   79MOL   H20019076   7.912   0.678   0.530 -0.7465 -0.6586 -0.1068
   79MOL   H20119077   7.936   0.781   0.678  0.8777  1.1406 -1.0236
   79MOL   H20219078   7.791   0.603   0.802  2.9194 -0.7045  0.6084
   79MOL   H20319079   7.700   0.269   0.514 -0.0787  2.0611 -1.4083
   79MOL   H20419080   7.594   0.371   0.433  0.3491  0.9595 -0.0812
   79MOL   H20519081   7.537   0.270   0.563 -1.1204  0.7474 -1.6632
   79MOL   C20619082   7.968   0.510   0.769  0.2151 -0.5235  0.0869
   79MOL   C20719083   0.038   0.586   0.860 -0.4617 -1.1533  0.2166
   79MOL   O20819084   7.993   0.606   0.987 -0.4186  0.5450  0.0373
   79MOL   C20919085   7.922   0.717   1.008 -0.0823  0.2146 -0.0399
   79MOL   C21019086   7.873   0.732   1.148 -0.2192 -0.1870 -0.8318
   79MOL   O21119087   7.914   0.812   0.933  0.0543 -0.1687 -0.0606
   79MOL   H21219088   7.935   0.421   0.822  0.2780  0.8107  2.4527
   79MOL   H21319089   0.011   0.479   0.687 -1.0544  1.1593 -1.5922
   79MOL   H21419090   0.056   0.674   0.799  0.8181 -1.6881 -0.1999
   79MOL   H21519091   7.903   0.830   1.185  0.5733 -0.6477 -0.2399
   79MOL   H21619092   7.916   0.651   1.207 -1.9084 -0.6408 -0.2008
   79MOL   H21719093   7.764   0.723   1.148 -0.2914  0.2576  1.3410
   79MOL   C21819094   0.179   0.520   0.887  0.4098  0.0387 -0.0559
   79MOL   C21919095   0.279   0.610   0.958 -0.6036  0.5718  0.0210
   79MOL   O22019096   0.261   0.591   1.101 -0.1355 -0.3331  0.1362
   79MOL   C22119097   0.270   0.699   1.181 -0.0960  0.4241 -0.1477
   79MOL   C22219098   0.228   0.680   1.324 -0.1699  0.1144  0.2291
   79MOL   O22319099   0.312   0.806   1.144  0.0920 -0.0369  0.2940
   79MOL   H22419100   0.163   0.421   0.929  1.0404 -0.2431 -0.4844
   79MOL   H22519101   0.216   0.519   0.785 -1.2086  2.6581 -0.7140
   79MOL   H22619102   0.249   0.710   0.925 -1.3467 -0.0919 -1.3813
   79MOL   H22719103   0.122   0.656   1.323  0.1310 -1.2336  0.2408
   79MOL   H22819104   0.242   0.772   1.381 -2.0920 -0.3464  1.4449
   79MOL   H22919105   0.288   0.597   1.362  1.3570  0.1638 -1.9221
   79MOL   C23019106   0.429   0.579   0.920 -0.7861  0.1315  0.4934
   79MOL   C23119107   0.519   0.692   0.951 -0.3760 -0.3043 -0.5775
   79MOL   O23219108   0.648   0.654   0.910 -0.1169  0.0780  0.4834
   79MOL   C23319109   0.733   0.750   0.869 -0.7017 -0.2288  0.1129
   79MOL   C23419110   0.859   0.697   0.805  0.1858 -0.7088  0.6066
   79MOL   O23519111   0.715   0.868   0.872  0.4027  0.3184 -0.0019
   79MOL   H23619112   0.461   0.491   0.975 -0.8905 -0.5081 -0.4543
   79MOL   H23719113   0.442   0.550   0.816 -1.2305 -0.0530  0.4874
   79MOL   H23819114   0.528   0.714   1.057 -0.7441  1.9180 -0.9877
   79MOL   H23919115   0.928   0.773   0.771 -1.3851  1.0576  1.2981
   79MOL   H24019116   0.817   0.632   0.728  3.3854 -0.4408 -1.4058
   79MOL   H24119117   0.912   0.628   0.871  0.2796 -0.6909  0.5497
   79MOL   H24219118   0.487   0.780   0.895  1.2516 -0.3619 -1.6424
   80MOL     C119119   0.233   3.135   4.589  0.7042  0.3764 -0.2253
   80MOL     C219120   0.384   3.145   4.593 -0.7377 -0.3905 -0.3600
   80MOL     O319121   0.434   3.017   4.544  0.1950 -0.0973 -0.1313
   80MOL     C419122   0.552   2.964   4.591 -0.3861  0.8585  0.2293
   80MOL     C519123   0.584   2.830   4.546  0.0159  0.1841  0.8276
   80MOL     O619124   0.634   3.019   4.661 -0.3123  0.0838  0.6082
   80MOL     H719125   0.183   3.054   4.642 -0.6375  1.0254 -0.4652
   80MOL     H819126   0.210   3.121   4.483 -1.6827  1.0650  0.1698
   80MOL     H919127   0.426   3.165   4.692 -0.1466  1.0283 -0.8837
   80MOL    H1019128   0.692   2.811   4.551 -0.1771 -1.2604 -0.2442
   80MOL    H1119129   0.573   2.819   4.438  0.2896  3.3631  0.4523
   80MOL    H1219130   0.522   2.761   4.604  0.2610  0.1475  1.0503
   80MOL    H1319131   0.196   3.236   4.611  0.5609  0.6198 -1.5239
   80MOL    C1419132   0.439   3.247   4.492 -0.2344  0.3249  0.3977
   80MOL    C1519133   0.418   3.399   4.524  1.1346  0.1449 -0.1619
   80MOL    O1619134   0.430   3.416   4.665  0.1021  0.6648  0.4313
   80MOL    C1719135   0.332   3.469   4.729  1.1198  0.9090 -0.2826
   80MOL    C1819136   0.355   3.487   4.881 -0.1823  0.1640  0.4956
   80MOL    O1919137   0.229   3.490   4.677 -0.0143  0.2940 -0.0470
   80MOL    H2019138   0.547   3.228   4.492 -0.4564 -1.0322  1.8130
   80MOL    H2119139   0.409   3.212   4.393 -1.0636 -0.6640  0.9943
   80MOL    H2219140   0.330   3.431   4.469  0.8160  0.5577  0.5743
   80MOL    H2319141   0.354   3.387   4.925 -1.5220  0.4082  1.0579
   80MOL    H2419142   0.274   3.544   4.925 -0.9656 -0.9302  0.5027
   80MOL    H2519143   0.442   3.546   4.911 -1.1220  0.9641  1.6943
   80MOL    C2619144   0.519   3.493   4.458 -0.7075  0.3505  0.3894
   80MOL    C2719145   0.494   3.645   4.463 -0.0609  0.2985 -0.6437
   80MOL    O2819146   0.618   3.710   4.412  0.3459  0.4275 -0.4401
   80MOL    C2919147   0.662   3.834   4.449  0.5245  0.4398 -0.5778
   80MOL    C3019148   0.802   3.856   4.404 -0.7308  0.2797  0.4861
   80MOL    O3119149   0.590   3.925   4.499  0.7134 -0.2520 -0.0127
   80MOL    H3219150   0.619   3.474   4.496 -1.5956 -0.0842  2.6017
   80MOL    H3319151   0.527   3.468   4.352  0.0639  0.7316  0.3545
   80MOL    H3419152   0.486   3.680   4.567 -0.4217  2.5167 -1.3909
   80MOL    H3519153   0.843   3.941   4.458 -1.5375 -0.1841  1.8720
   80MOL    H3619154   0.779   3.866   4.298 -1.3638 -1.9346  0.3917
   80MOL    H3719155   0.867   3.773   4.430  1.2961  0.8567 -2.4597
   80MOL    C3819156   0.369   3.686   4.377  0.3546  0.0102  0.2677
   80MOL    C3919157   0.292   3.820   4.400 -0.3964  0.5633 -0.4301
   80MOL    O4019158   0.208   3.856   4.289 -0.4526  0.2300  0.3375
   80MOL    C4119159   0.240   3.941   4.184  1.0157  0.3640 -0.3107
   80MOL    C4219160   0.127   3.966   4.084  0.1338  0.7449  0.6645
   80MOL    O4319161   0.345   4.002   4.165  0.0872  0.5123 -0.0623
   80MOL    H4419162   0.398   3.678   4.272  0.7110 -1.5122  0.4624
   80MOL    H4519163   0.287   3.613   4.384  1.3657 -1.0968  0.6984
   80MOL    H4619164   0.363   3.901   4.413  0.1043 -0.2996  2.5085
   80MOL    H4719165   0.056   4.043   4.112  0.1693  0.3523  1.8592
   80MOL    H4819166   0.067   3.877   4.065 -0.9803  1.9862 -1.8421
   80MOL    H4919167   0.161   4.004   3.988 -2.3001 -1.0264 -0.9552
   80MOL    C5019168   0.208   3.828   4.530 -0.3857 -0.7396  0.0951
   80MOL    C5119169   0.175   3.970   4.582 -0.2913  0.7826  0.5988
   80MOL    O5219170   0.298   4.038   4.580  0.3461 -0.8351 -0.7494
   80MOL    C5319171   0.322   4.135   4.668  0.2444 -0.0369  0.1602
   80MOL    C5419172   0.463   4.203   4.647  0.6521  0.6348  0.1040
   80MOL    O5519173   0.243   4.162   4.755  0.1931  0.1901 -0.1138
   80MOL    H5619174   0.118   3.768   4.520 -0.9922  0.1244  0.3855
   80MOL    H5719175   0.264   3.767   4.601 -0.0461 -0.9838 -0.3790
   80MOL    H5819176   0.129   3.968   4.681 -0.7776 -3.4373  0.3553
   80MOL    H5919177   0.507   4.158   4.558 -2.1626  1.2230 -1.6310
   80MOL    H6019178   0.538   4.169   4.718 -0.8231  0.1269  1.4719
   80MOL    H6119179   0.454   4.309   4.625  0.7702  0.3633 -1.2420
   80MOL    C6219180   0.075   4.051   4.499  1.0178 -0.3930 -0.6079
   80MOL    C6319181   7.942   4.020   4.508 -0.5987  0.5745 -0.5543
   80MOL    O6419182   7.908   3.891   4.452 -0.0288 -0.4035  0.1406
   80MOL    C6519183   7.883   3.886   4.323 -0.6067  0.5594 -0.4519
   80MOL    C6619184   7.864   3.747   4.273  0.2824 -1.0019 -0.2166
   80MOL    O6719185   7.876   3.982   4.247  0.1885  0.1391  0.7393
   80MOL    H6819186   0.090   4.156   4.525 -0.3913  0.3076 -2.4934
   80MOL    H6919187   0.108   4.043   4.396 -0.3761  0.0555 -1.0970
   80MOL    H7019188   7.890   4.087   4.440 -0.1118  2.4362  0.8768
   80MOL    H7119189   7.764   3.707   4.287 -0.6158  0.7294 -1.5266
   80MOL    H7219190   7.928   3.671   4.318  3.0910  1.2038 -0.3629
   80MOL    H7319191   7.906   3.742   4.173 -0.3669 -1.5972 -0.4639
   80MOL    C7419192   7.886   4.050   4.646  0.1044 -0.4176  0.3189
   80MOL    C7519193   7.737   4.070   4.654  0.2415  0.2386 -0.2921
   80MOL    O7619194   7.695   4.176   4.573 -0.3790  0.0099 -0.3125
   80MOL    C7719195   7.631   4.278   4.633  0.4955 -0.5364 -0.0885
   80MOL    C7819196   7.594   4.391   4.543  0.2107 -0.4329 -0.5223
   80MOL    O7919197   7.591   4.281   4.752 -0.2531 -0.3546 -0.2734
   80MOL    H8019198   7.920   3.982   4.724  0.4615  0.7316  1.1917
   80MOL    H8119199   7.933   4.141   4.685 -0.8108 -0.9230  2.7021
   80MOL    H8219200   7.727   4.099   4.758 -2.5057  0.1591 -0.5158
   80MOL    H8319201   7.522   4.456   4.593 -1.0313 -3.2741  1.5432
   80MOL    H8419202   7.552   4.351   4.451 -0.2756 -1.0056 -0.0604
   80MOL    H8519203   7.679   4.452   4.514 -1.1672  1.9465  0.2592
   80MOL    C8619204   7.652   3.947   4.622  0.7298  0.0065  0.2768
   80MOL    C8719205   7.656   3.836   4.732  0.0023  0.6692  0.1868
   80MOL    O8819206   7.581   3.889   4.848  0.0724  0.2926 -0.2645
   80MOL    C8919207   7.636   3.916   4.972 -0.1333  0.6727 -0.4615
   80MOL    C9019208   7.549   4.008   5.063  0.3281 -0.2614  0.3097
   80MOL    O9119209   7.753   3.897   5.005 -0.7994  0.1071 -0.1153
   80MOL    H9219210   7.546   3.974   4.620  0.7723  0.1194 -1.5337
   80MOL    H9319211   7.670   3.905   4.523  1.3885  0.6741  0.1078
   80MOL    H9419212   7.760   3.817   4.758 -0.2457  2.1584  2.3498
   80MOL    H9519213   7.597   4.099   5.101 -0.3054  0.0895  0.2816
   80MOL    H9619214   7.502   3.945   5.139 -0.3670  0.3249  0.3792
   80MOL    H9719215   7.473   4.045   4.994  0.5026 -0.3726  0.0587
   80MOL    C9819216   7.593   3.706   4.692  0.0547  0.7342 -0.2185
   80MOL    C9919217   7.611   3.595   4.793  0.0286  0.4256  0.8885
   80MOL   O10019218   7.491   3.535   4.837  0.2667  0.1057 -0.1428
   80MOL   C10119219   7.412   3.583   4.930  0.2366  0.0258  0.0480
   80MOL   C10219220   7.275   3.512   4.944  0.2258 -0.7706 -0.4031
   80MOL   O10319221   7.439   3.671   5.007 -0.6501  0.2114 -0.1419
   80MOL   H10419222   7.487   3.725   4.679 -0.5411 -1.6271  0.9674
   80MOL   H10519223   7.640   3.672   4.599 -1.0119 -1.0918 -0.1221
   80MOL   H10619224   7.659   3.630   4.884 -0.3366 -0.6161  1.4823
   80MOL   H10719225   7.195   3.576   4.907  1.1692  0.6444 -0.0228
   80MOL   H10819226   7.260   3.479   5.046 -1.3771  1.2434  0.0441
   80MOL   H10919227   7.259   3.423   4.882 -0.4745 -1.6383  1.0213
   80MOL   C11019228   7.691   3.478   4.731 -0.3622  0.2890 -0.2113
   80MOL   C11119229   7.844   3.508   4.709  0.1029  0.5332 -0.1665
   80MOL   O11219230   7.893   3.540   4.836  0.1493 -0.1208  0.3341
   80MOL   C11319231   7.973   3.643   4.862  0.5995  0.1364 -0.1884
   80MOL   C11419232   0.012   3.643   5.004  0.3067  0.7038 -1.0680
   80MOL   O11519233   7.997   3.731   4.781  0.1810 -0.0661 -0.2331
   80MOL   H11619234   7.670   3.393   4.795  0.4220  1.2675  1.3770
   80MOL   H11719235   7.668   3.445   4.630  1.5662 -2.5045  0.2086
   80MOL   H11819236   7.854   3.587   4.635 -0.9445  0.5568 -0.2953
   80MOL   H11919237   7.996   3.724   5.067  0.1729  0.0453 -0.2939
   80MOL   H12019238   0.121   3.645   5.000  0.3539 -0.1112 -0.5631
   80MOL   H12119239   8.004   3.547   5.048 -0.4042  2.2293  1.9342
   80MOL   C12219240   7.914   3.382   4.647 -0.5417 -0.1139 -0.0486
   80MOL   C12319241   7.895   3.252   4.718  0.2939 -0.2916 -0.2631
   80MOL   O12419242   7.941   3.140   4.636  0.0580  0.1832 -0.0428
   80MOL   C12519243   7.873   3.094   4.528 -0.2179  0.5004 -0.4633
   80MOL   C12619244   7.949   2.985   4.467  0.0690 -0.5154 -0.6903
   80MOL   O12719245   7.763   3.128   4.484 -0.2039  0.7564 -0.3090
   80MOL   H12819246   7.868   3.387   4.548  0.3263  1.5433 -0.3979
   80MOL   H12919247   0.000   3.393   4.635 -0.5522  0.5483  0.4331
   80MOL   H13019248   7.788   3.238   4.737  0.6984  0.3111  2.6705
   80MOL   H13119249   7.973   2.904   4.535 -1.6385 -0.8708 -0.4832
   80MOL   H13219250   0.022   3.023   4.428  0.1680  1.1713  1.1115
   80MOL   H13319251   7.887   2.938   4.391 -1.1058 -1.2257  0.6836
   80MOL   C13419252   7.965   3.236   4.854 -0.6636  0.3397  0.1237
   80MOL   C13519253   7.914   3.122   4.943  0.1839  0.1107 -0.5349
   80MOL   O13619254   8.018   3.023   4.926 -0.0151 -0.0066  0.0310
   80MOL   C13719255   7.994   2.897   4.904 -0.0680  0.3021  0.9954
   80MOL   C13819256   0.101   2.809   4.895  0.3026 -0.2566  0.3505
   80MOL   O13919257   7.888   2.844   4.909  0.2491  0.0439 -0.0066
   80MOL   H14019258   0.050   3.224   4.837 -0.5295  0.4761  0.8678
   80MOL   H14119259   7.963   3.328   4.914  0.9145  0.2775  0.2990
   80MOL   H14219260   7.818   3.082   4.910 -0.5888  0.8146  0.8372
   80MOL   H14319261   0.112   2.734   4.973 -0.5683 -1.5371 -0.7536
   80MOL   H14419262   0.187   2.876   4.910 -0.7542  0.8225  1.7657
   80MOL   H14519263   0.123   2.761   4.800 -0.3448  3.0686 -1.5522
   80MOL   C14619264   7.917   3.145   5.095 -0.2023 -0.0775 -0.1708
   80MOL   C14719265   7.812   3.238   5.158  0.0153 -0.0158 -0.7674
   80MOL   O14819266   7.690   3.172   5.165  0.4667  0.0650  0.0031
   80MOL   C14919267   7.576   3.221   5.107 -0.4472 -0.7203  0.0975
   80MOL   C15019268   7.453   3.149   5.145 -0.0253 -0.0509 -0.0129
   80MOL   O15119269   7.574   3.323   5.040  0.7427 -0.2395 -0.8810
   80MOL   H15219270   7.910   3.050   5.149  0.4877  0.5245  1.0041
   80MOL   H15319271   8.017   3.181   5.119 -0.6501 -0.9768  3.3461
   80MOL   H15419272   7.820   3.334   5.107 -2.3801  0.0509 -1.0700
   80MOL   H15519273   7.365   3.193   5.097 -0.1990  0.5507  0.8443
   80MOL   H15619274   7.448   3.156   5.253  0.5898  1.1633 -0.0498
   80MOL   H15719275   7.451   3.044   5.117 -0.3594  0.0958 -0.5554
   80MOL   C15819276   7.855   3.268   5.311  0.5045  0.3116  0.0040
   80MOL   C15919277   7.777   3.373   5.387 -0.1977  0.4289 -0.3402
   80MOL   O16019278   7.812   3.385   5.517 -1.1952  0.0378 -0.5880
   80MOL   C16119279   7.772   3.296   5.600 -0.1200  0.5978 -0.8029
   80MOL   C16219280   7.819   3.324   5.742 -0.2940  0.5875 -0.3004
   80MOL   O16319281   7.717   3.187   5.566  0.4943 -0.3827 -0.6070
   80MOL   H16419282   7.850   3.174   5.366 -2.5913  1.3611  1.6254
   80MOL   H16519283   7.959   3.300   5.316  0.8393 -1.0423  1.8745
   80MOL   H16619284   7.669   3.358   5.376 -0.1209  0.2177 -0.8058
   80MOL   H16719285   7.913   3.380   5.741 -0.6969  1.2525 -1.7733
   80MOL   H16819286   7.826   3.231   5.799 -0.7604 -0.4906 -1.9445
   80MOL   H16919287   7.760   3.388   5.807 -2.1390 -0.9636 -0.4168
   80MOL   C17019288   7.787   3.514   5.327  0.5507 -0.6899  0.4785
   80MOL   C17119289   7.711   3.623   5.406 -0.3508  0.3599 -0.1362
   80MOL   O17219290   7.751   3.746   5.347 -0.6572  0.3374 -0.2619
   80MOL   C17319291   7.863   3.813   5.392  0.3415  0.2487 -0.0243
   80MOL   C17419292   7.887   3.931   5.296  0.0391  0.0199 -0.6505
   80MOL   O17519293   7.931   3.794   5.492 -0.3533 -0.2123  0.2926
   80MOL   H17619294   7.891   3.545   5.318 -0.0071  1.4553  1.1943
   80MOL   H17719295   7.740   3.515   5.229 -0.1263 -0.8562  0.7990
   80MOL   H17819296   7.732   3.630   5.512  0.3584 -0.6028 -0.2140
   80MOL   H17919297   7.928   3.904   5.199  0.8062 -1.0342 -0.0446
   80MOL   H18019298   7.955   4.003   5.340  1.6875 -1.2270 -1.0949
   80MOL   H18119299   7.793   3.983   5.278  0.1389  0.3828 -0.1384
   80MOL   C18219300   7.558   3.612   5.410  0.0652  0.9953  0.1425
   80MOL   C18319301   7.488   3.716   5.503  0.6784 -0.5769  1.4050
   80MOL   O18419302   7.495   3.842   5.436  0.3409  0.1660  0.3710
   80MOL   C18519303   7.521   3.958   5.513 -0.3276 -0.6253 -0.3498
   80MOL   C18619304   7.533   4.087   5.429 -0.0571 -0.7298  0.0160
   80MOL   O18719305   7.543   3.966   5.631 -0.2693  0.0549 -0.0398
   80MOL   H18819306   7.513   3.617   5.311 -0.6555 -1.1576  0.3586
   80MOL   H18919307   7.522   3.518   5.451 -0.7388  1.2027 -0.0892
   80MOL   H19019308   7.546   3.733   5.594  1.1603 -0.7905  1.1428
   80MOL   H19119309   7.491   4.075   5.329  0.5190 -0.1574 -0.2948
   80MOL   H19219310   7.638   4.108   5.413 -0.2559 -0.6596 -1.2848
   80MOL   H19319311   7.483   4.173   5.472  2.6538  2.5450 -3.0590
   80MOL   C19419312   7.343   3.695   5.549  0.2443  0.2727 -0.2612
   80MOL   C19519313   7.232   3.685   5.438  1.4517  0.2503 -0.2159
   80MOL   O19619314   7.128   3.592   5.481  0.3205 -0.0622  0.4538
   80MOL   C19719315   7.109   3.480   5.403  0.0139 -0.0986 -0.2345
   80MOL   C19819316   7.002   3.394   5.469  0.0439  0.2396 -0.0789
   80MOL   O19919317   7.166   3.451   5.296 -0.2279 -0.2105  0.6759
   80MOL   H20019318   7.323   3.598   5.594  0.2474  0.2632 -0.2785
   80MOL   H20119319   7.308   3.766   5.624 -1.6782 -0.8233 -0.0772
   80MOL   H20219320   7.279   3.647   5.347 -1.8488  0.8509 -2.2839
   80MOL   H20319321   6.907   3.441   5.444  1.1333  2.4495 -0.1754
   80MOL   H20419322   7.014   3.369   5.574 -0.8502  3.4735  0.8471
   80MOL   H20519323   6.999   3.294   5.426 -0.3776 -0.1653  0.8986
   80MOL   C20619324   7.155   3.819   5.418  0.3558 -0.2393  0.7653
   80MOL   C20719325   7.058   3.813   5.300  0.7577 -0.4121  0.2302
   80MOL   O20819326   6.973   3.930   5.315  0.1213  0.5349  0.8426
   80MOL   C20919327   6.838   3.913   5.327 -0.4128  0.0577  0.5779
   80MOL   C21019328   6.766   4.052   5.340 -0.5677  0.0280 -0.2623
   80MOL   O21119329   6.783   3.801   5.313  0.0026 -0.4895  0.3739
   80MOL   H21219330   7.101   3.842   5.511 -0.8173  3.4431 -0.7141
   80MOL   H21319331   7.218   3.908   5.412 -0.0627  0.0320  0.3028
   80MOL   H21419332   7.004   3.719   5.306  0.6646 -0.5881 -2.5429
   80MOL   H21519333   6.678   4.056   5.275  0.4708  1.2850 -1.6062
   80MOL   H21619334   6.824   4.144   5.341  0.5000 -0.6211 -1.2413
   80MOL   H21719335   6.729   4.049   5.443  1.8541 -0.3059  0.6357
   80MOL   C21819336   7.124   3.826   5.162 -0.2717  0.2615  0.3413
   80MOL   C21919337   7.023   3.817   5.041 -1.0152  0.2626 -0.0542
   80MOL   O22019338   7.085   3.832   4.912 -0.2562  0.5553 -0.3348
   80MOL   C22119339   7.073   3.957   4.851 -0.0554  0.0338  0.1562
   80MOL   C22219340   7.158   3.974   4.726  0.0298  0.0583 -0.0290
   80MOL   O22319341   7.002   4.039   4.899 -0.0799 -0.0053 -0.5500
   80MOL   H22419342   7.181   3.918   5.154 -0.4944  0.3840  0.1918
   80MOL   H22519343   7.197   3.746   5.144 -0.1438  0.9183 -2.2055
   80MOL   H22619344   6.960   3.903   5.063 -1.5022 -0.1230  0.0908
   80MOL   H22719345   7.107   3.952   4.632 -0.9747 -1.2635  0.8001
   80MOL   H22819346   7.244   3.907   4.724  0.7821  0.9762  1.1563
   80MOL   H22919347   7.191   4.078   4.719  0.8232 -0.1479  0.6185
   80MOL   C23019348   6.933   3.690   5.046 -0.3815 -0.0848  0.0970
   80MOL   C23119349   6.816   3.693   4.943  0.4092  0.5350  0.3109
   80MOL   O23219350   6.753   3.819   4.953  0.3754 -0.2832 -0.0141
   80MOL   C23319351   6.628   3.843   4.923  0.2571 -0.0937  0.6552
   80MOL   C23419352   6.594   3.988   4.935 -0.3377 -0.0558  0.8040
   80MOL   O23519353   6.545   3.758   4.885  0.0715  0.3513  0.0745
   80MOL   H23619354   6.983   3.599   5.011 -0.9804 -0.2759 -0.2640
   80MOL   H23719355   6.888   3.659   5.140  0.1482 -2.5606 -0.4268
   80MOL   H23819356   6.750   3.613   4.977  0.8065  0.5770  1.1862
   80MOL   H23919357   6.501   3.982   4.993 -2.1041 -0.6341 -1.9929
   80MOL   H24019358   6.566   4.026   4.837  0.2129  2.9435  1.7345
   80MOL   H24119359   6.669   4.047   4.988 -0.8223  1.5597 -0.2732
   80MOL   H24219360   6.845   3.678   4.839 -1.0596  1.8518 -0.3045
   81MOL     C119361   3.250   5.121   6.899 -0.3023  0.6062  0.0437
   81MOL     C219362   3.276   4.985   6.961  0.1411  0.3073  0.3180
   81MOL     O319363   3.399   4.932   6.911 -0.7825 -0.2852  0.3588
   81MOL     C419364   3.403   4.863   6.795  0.3226 -0.0230  0.1162
   81MOL     C519365   3.545   4.813   6.770 -0.1722 -0.1487  0.3461
   81MOL     O619366   3.318   4.845   6.713  0.5365 -0.5223  0.5179
   81MOL     H719367   3.159   5.175   6.925 -0.2269  0.4310  0.6736
   81MOL     H819368   3.238   5.110   6.791  2.8628  2.4533 -0.5467
   81MOL     H919369   3.195   4.921   6.926 -0.0179  0.6450  0.0583
   81MOL    H1019370   3.567   4.738   6.847  1.6472 -0.0096 -0.0296
   81MOL    H1119371   3.624   4.887   6.768 -0.2465 -0.1048 -0.7808
   81MOL    H1219372   3.552   4.764   6.673  0.2219  0.0919  0.2518
   81MOL    H1319373   3.332   5.189   6.918 -0.2806  0.1193  1.8008
   81MOL    C1419374   3.291   4.991   7.117  0.6955 -0.5549  0.2077
   81MOL    C1519375   3.149   5.011   7.176 -0.1375  0.4381  0.2886
   81MOL    O1619376   3.080   4.890   7.149  0.2003  0.2745 -0.1653
   81MOL    C1719377   2.944   4.882   7.156  0.1210 -0.0139  0.1504
   81MOL    C1819378   2.889   4.738   7.146  0.0807  0.2027 -0.3292
   81MOL    O1919379   2.869   4.977   7.175  0.2348 -0.2371 -0.0307
   81MOL    H2019380   3.323   4.897   7.163 -1.3716 -1.4334 -0.1146
   81MOL    H2119381   3.364   5.071   7.131  1.4160 -1.1068 -0.3653
   81MOL    H2219382   3.079   5.083   7.134 -0.4229 -0.4398 -0.7770
   81MOL    H2319383   2.967   4.674   7.187  1.8593  0.9963 -2.3397
   81MOL    H2419384   2.871   4.700   7.045 -1.4552 -0.0524  0.0179
   81MOL    H2519385   2.797   4.710   7.197  0.0779 -0.9180 -0.9175
   81MOL    C2619386   3.160   5.042   7.329 -0.0868  0.3611  0.8060
   81MOL    C2719387   3.106   5.181   7.370 -0.0837  0.9559  0.4119
   81MOL    O2819388   3.006   5.170   7.467  0.2261  0.8688 -0.0718
   81MOL    C2919389   2.906   5.254   7.466 -0.6408 -0.4526 -0.4538
   81MOL    C3019390   2.823   5.248   7.589 -0.0039 -0.4626  0.2752
   81MOL    O3119391   2.875   5.334   7.377  0.5457  0.2064  0.4490
   81MOL    H3219392   3.089   4.970   7.369  0.0465 -0.8788 -1.1125
   81MOL    H3319393   3.258   5.018   7.370  0.0788 -0.4309 -0.0234
   81MOL    H3419394   3.075   5.234   7.280  1.0753  2.9402  1.1311
   81MOL    H3519395   2.731   5.305   7.578  0.5008  0.9750  3.0436
   81MOL    H3619396   2.873   5.279   7.681  2.0616 -1.1144 -0.6041
   81MOL    H3719397   2.793   5.144   7.599 -1.7792  0.0763  0.6694
   81MOL    C3819398   3.206   5.286   7.430 -0.1779  1.1078 -0.5628
   81MOL    C3919399   3.322   5.338   7.342 -0.7059  0.2021  1.1923
   81MOL    O4019400   3.262   5.450   7.276 -0.5419 -0.8129  0.5556
   81MOL    C4119401   3.271   5.456   7.139 -0.1790  0.1457 -0.0788
   81MOL    C4219402   3.196   5.574   7.082  0.3362  0.1172 -0.3648
   81MOL    O4319403   3.351   5.385   7.077  0.6750  0.2278  0.1488
   81MOL    H4419404   3.150   5.375   7.457 -1.8502 -0.9917  3.3982
   81MOL    H4519405   3.247   5.245   7.523  2.1766  1.0587 -1.5789
   81MOL    H4619406   3.349   5.253   7.279  1.9333  2.3793 -0.7163
   81MOL    H4719407   3.264   5.659   7.084  0.3060  0.1209  0.8299
   81MOL    H4819408   3.113   5.601   7.147  0.9608  0.5560  0.2570
   81MOL    H4919409   3.155   5.549   6.984 -1.0007 -0.0974  0.2458
   81MOL    C5019410   3.439   5.384   7.427 -0.6932  0.7521 -0.2230
   81MOL    C5119411   3.537   5.276   7.467 -0.0269 -0.1203 -0.1919
   81MOL    O5219412   3.600   5.226   7.349  0.0444  0.2139 -0.2609
   81MOL    C5319413   3.656   5.105   7.348  0.7132  0.5295 -0.2221
   81MOL    C5419414   3.705   5.075   7.210 -0.5276 -0.2880  0.1545
   81MOL    O5519415   3.667   5.029   7.440  0.3817  0.1741 -0.4771
   81MOL    H5619416   3.490   5.467   7.378  0.5373  0.2718  0.2217
   81MOL    H5719417   3.387   5.422   7.515 -1.2760 -1.1824  0.2856
   81MOL    H5819418   3.493   5.194   7.524 -0.9478  0.4579 -0.0707
   81MOL    H5919419   3.775   4.991   7.216 -0.4812 -0.4926 -2.4794
   81MOL    H6019420   3.757   5.163   7.172  0.3291 -0.9888 -0.3417
   81MOL    H6119421   3.625   5.057   7.139  0.8811 -2.7158 -0.8924
   81MOL    C6219422   3.656   5.342   7.548 -1.0424  0.8824 -0.2674
   81MOL    C6319423   3.627   5.352   7.700  0.2291 -0.4167 -0.3184
   81MOL    O6419424   3.577   5.220   7.729 -0.3654  0.0328  0.2106
   81MOL    C6519425   3.489   5.203   7.824  0.0848 -0.0720 -0.3566
   81MOL    C6619426   3.427   5.063   7.845 -0.4489  0.0549 -0.2454
   81MOL    O6719427   3.449   5.295   7.899  0.0252 -0.4020  0.6546
   81MOL    H6819428   3.749   5.284   7.546  0.0776  2.6453 -0.6224
   81MOL    H6919429   3.683   5.439   7.507  0.7797  1.6399  2.5613
   81MOL    H7019430   3.543   5.421   7.714  0.0133 -0.6197 -0.5831
   81MOL    H7119431   3.513   4.997   7.858  1.3738  2.5754  0.8158
   81MOL    H7219432   3.362   5.024   7.767  1.7265 -0.0874 -2.0430
   81MOL    H7319433   3.367   5.067   7.936  1.1870 -0.0024  0.8554
   81MOL    C7419434   3.746   5.378   7.789 -0.2911 -0.3067 -0.7073
   81MOL    C7519435   3.817   5.521   7.777 -0.2031 -0.3796 -0.8292
   81MOL    O7619436   3.856   5.563   7.908  0.5328  0.8088 -0.6154
   81MOL    C7719437   3.782   5.633   8.001 -0.4545  0.0706 -0.2389
   81MOL    C7819438   3.864   5.666   0.097 -1.0996 -0.1897 -0.4487
   81MOL    O7919439   3.662   5.667   7.987 -0.0245 -0.1446  0.3092
   81MOL    H8019440   3.708   5.355   7.889 -0.5622  1.1022 -0.4791
   81MOL    H8119441   3.814   5.295   7.771 -1.2217 -1.3931  0.6214
   81MOL    H8219442   3.737   5.586   7.742 -0.9306 -1.4293 -1.1788
   81MOL    H8319443   3.892   5.769   0.079 -1.5100 -0.3568 -2.1090
   81MOL    H8419444   3.950   5.600   0.108 -0.6309  0.7127  1.5323
   81MOL    H8519445   3.796   5.664   0.182 -0.5835 -0.1986 -0.0320
   81MOL    C8619446   3.938   5.541   7.675  0.2256  0.1713 -0.2240
   81MOL    C8719447   3.969   5.696   7.658 -0.3836  0.6914  0.1795
   81MOL    O8819448   4.080   5.706   7.569  0.2122  0.8565 -0.4661
   81MOL    C8919449   4.196   5.755   7.603 -0.4212 -0.0745 -0.1259
   81MOL    C9019450   4.282   5.777   7.486 -0.1290 -0.8426  0.2887
   81MOL    O9119451   4.221   5.798   7.719  0.8980  0.1592  0.1833
   81MOL    H9219452   4.018   5.482   7.720 -1.4834 -0.5748  1.9534
   81MOL    H9319453   3.915   5.498   7.578  0.0721 -0.4471  0.0819
   81MOL    H9419454   3.988   5.744   7.754  0.7080 -0.2044  0.4342
   81MOL    H9519455   4.370   5.834   7.516  0.6975 -1.2738 -1.2539
   81MOL    H9619456   4.231   5.843   7.416 -0.1485  0.4404  1.4807
   81MOL    H9719457   4.306   5.692   7.422  2.4977  0.3118 -0.3459
   81MOL    C9819458   3.853   5.768   7.588  0.3604 -0.2995 -0.3283
   81MOL    C9919459   3.793   5.869   7.694  0.3036 -0.1721  0.0000
   81MOL   O10019460   3.875   5.983   7.683 -0.0847  0.1972  0.1465
   81MOL   C10119461   3.945   6.030   7.792  0.2485 -0.1727 -0.1795
   81MOL   C10219462   4.028   6.154   7.760 -0.1367  0.3163  0.3662
   81MOL   O10319463   3.939   5.988   7.907 -0.1580  0.0278  0.1203
   81MOL   H10419464   3.876   5.826   7.498 -0.9844 -1.3489 -1.3761
   81MOL   H10519465   3.777   5.704   7.542 -0.1227 -1.0291  1.4636
   81MOL   H10619466   3.795   5.831   7.796  0.3657  1.0663  0.4645
   81MOL   H10719467   3.990   6.243   7.811  0.4858  1.7253 -1.5563
   81MOL   H10819468   4.033   6.172   7.653  1.2260  1.3899  0.5974
   81MOL   H10919469   4.130   6.135   7.792  0.5990  0.2308 -1.9395
   81MOL   C11019470   3.646   5.897   7.660  1.0155  0.0994 -0.2423
   81MOL   C11119471   3.573   5.982   7.771  0.0290 -0.2649  0.0935
   81MOL   O11219472   3.529   6.110   7.715 -0.0001  0.4568 -0.3647
   81MOL   C11319473   3.558   6.225   7.784 -0.4271  0.6949 -0.6348
   81MOL   C11419474   3.475   6.343   7.728  0.1487  0.4121 -0.7175
   81MOL   O11519475   3.632   6.240   7.883  0.2957  0.1446 -0.1992
   81MOL   H11619476   3.642   5.947   7.563 -0.2399 -0.1609 -0.3425
   81MOL   H11719477   3.593   5.803   7.640  0.3122  0.4428 -0.0220
   81MOL   H11819478   3.652   6.008   7.843  0.1904  2.1758 -0.9038
   81MOL   H11919479   3.386   6.304   7.680 -0.2737  2.3410 -1.5370
   81MOL   H12019480   3.547   6.395   7.665  0.4958  0.9019  0.0706
   81MOL   H12119481   3.433   6.398   7.813 -2.6706  2.0751 -3.1049
   81MOL   C12219482   3.446   5.903   7.822  0.7896 -0.2323  0.5140
   81MOL   C12319483   3.325   5.871   7.732 -0.5768  0.1171 -0.4768
   81MOL   O12419484   3.248   5.753   7.772  0.2659  0.0523  0.0393
   81MOL   C12519485   3.293   5.630   7.740 -0.0181 -0.1144  0.2384
   81MOL   C12619486   3.200   5.517   7.788 -0.4613 -0.3248  0.2391
   81MOL   O12719487   3.399   5.600   7.683  0.5401  0.4320  0.6970
   81MOL   H12819488   3.492   5.812   7.859 -1.7504 -1.2962  1.2094
   81MOL   H12919489   3.401   5.958   7.904  0.5746  1.1562 -0.5191
   81MOL   H13019490   3.365   5.842   7.634 -2.5252  0.3182 -1.3412
   81MOL   H13119491   3.240   5.422   7.751 -4.1728 -0.9866 -2.2817
   81MOL   H13219492   3.102   5.540   7.749 -0.0387 -0.4363 -0.8984
   81MOL   H13319493   3.195   5.516   7.897 -3.5948 -0.5031  0.1133
   81MOL   C13419494   3.219   5.987   7.712 -0.2925  0.1381  0.3669
   81MOL   C13519495   3.119   5.961   7.596 -0.2711  0.3621  0.5525
   81MOL   O13619496   3.014   5.868   7.622 -0.0913 -0.1282  0.5786
   81MOL   C13719497   3.007   5.745   7.565 -0.5845 -0.3292  0.9631
   81MOL   C13819498   2.894   5.666   7.622 -0.2934 -0.3020  0.3143
   81MOL   O13919499   3.088   5.692   7.489  0.4182  0.2394 -0.3175
   81MOL   H14019500   3.155   5.988   7.800 -0.3920 -0.4436  0.3043
   81MOL   H14119501   3.274   6.081   7.714  0.1546 -0.1175  0.1247
   81MOL   H14219502   3.167   5.942   7.499  1.2595 -0.2515  1.3968
   81MOL   H14319503   2.803   5.721   7.595  0.7685  1.1448 -0.3492
   81MOL   H14419504   2.908   5.657   7.730 -0.6315  0.2161  0.4005
   81MOL   H14519505   2.892   5.562   7.590 -2.0531 -0.0750 -0.3743
   81MOL   C14619506   3.040   6.100   7.576 -0.1139 -0.3500  0.7599
   81MOL   C14719507   2.940   6.117   7.451 -0.1405 -0.3632 -0.2609
   81MOL   O14819508   2.890   6.253   7.450 -0.4615 -0.1164  0.5277
   81MOL   C14919509   2.807   6.311   7.540 -0.4154  0.0708  0.4878
   81MOL   C15019510   2.790   6.463   7.525  0.7645 -0.3091  0.3439
   81MOL   O15119511   2.758   6.246   7.635  0.3905  0.1278 -0.1659
   81MOL   H15219512   2.988   6.123   7.669  0.2588  1.4908  0.5301
   81MOL   H15319513   3.116   6.178   7.564 -1.0853  0.2346 -1.9110
   81MOL   H15419514   2.864   6.046   7.485  0.1651 -0.6339 -0.1390
   81MOL   H15519515   2.773   6.498   7.423 -0.3673  0.7471  0.8732
   81MOL   H15619516   2.877   6.509   7.572  1.7702 -0.9379 -0.8957
   81MOL   H15719517   2.707   6.501   7.585 -1.1419 -0.0422 -2.3625
   81MOL   C15819518   2.987   6.053   7.315  0.1533 -0.0040  0.6879
   81MOL   C15919519   3.103   6.118   7.238 -0.6200 -0.7682  0.2800
   81MOL   O16019520   3.224   6.085   7.299  0.2826 -0.0712  0.1553
   81MOL   C16119521   3.299   6.174   7.358 -0.2357 -0.1963  0.1206
   81MOL   C16219522   3.427   6.112   7.406  0.3107  0.0481  0.1107
   81MOL   O16319523   3.262   6.287   7.393 -0.2816 -0.3996 -0.1220
   81MOL   H16419524   3.003   5.947   7.336 -0.9084  0.2049  2.6767
   81MOL   H16519525   2.897   6.056   7.253  0.5877  0.2754  0.0675
   81MOL   H16619526   3.081   6.225   7.237 -1.9573 -1.0200  0.9336
   81MOL   H16719527   3.409   6.065   7.503  0.6794 -2.4953 -0.9989
   81MOL   H16819528   3.516   6.175   7.410  0.9020 -0.6845 -1.1869
   81MOL   H16919529   3.458   6.033   7.338 -0.4345  1.4794 -1.9384
   81MOL   C17019530   3.124   6.067   7.095  0.3271 -0.3140  0.3557
   81MOL   C17119531   3.002   6.084   7.005  0.4338 -0.2238  0.3293
   81MOL   O17219532   2.976   6.218   6.967  0.2049 -0.2904  0.5502
   81MOL   C17319533   2.845   6.266   6.974  0.1754 -0.4914 -0.1801
   81MOL   C17419534   2.846   6.419   6.949  0.3966 -0.2098  0.0018
   81MOL   O17519535   2.738   6.199   7.000 -0.3261  0.5444  0.0471
   81MOL   H17619536   3.213   6.116   7.057  0.0943  0.4820  0.8308
   81MOL   H17719537   3.148   5.960   7.090 -1.6507 -0.7140 -1.0574
   81MOL   H17819538   2.916   6.043   7.056  1.0432 -1.1384  0.6428
   81MOL   H17919539   2.750   6.470   6.954  0.4367  0.0320 -1.4854
   81MOL   H18019540   2.872   6.436   6.844  0.3406  0.1722  0.0491
   81MOL   H18119541   2.922   6.459   7.016 -0.5199 -1.0228  1.5543
   81MOL   C18219542   3.013   6.004   6.872  1.0401 -0.0637 -0.2902
   81MOL   C18319543   2.878   5.976   6.802 -0.0988  0.6132 -0.3277
   81MOL   O18419544   2.902   5.937   6.672  0.8213  0.4882  0.0682
   81MOL   C18519545   2.807   5.935   6.576 -0.1631 -0.1540  0.1867
   81MOL   C18619546   2.850   5.875   6.445 -0.0579 -0.4151 -0.1170
   81MOL   O18719547   2.687   5.966   6.594 -0.5471  0.3536  0.9176
   81MOL   H18819548   3.086   6.055   6.810  1.9756 -0.8392  0.1548
   81MOL   H18919549   3.059   5.910   6.902 -1.3843 -1.3216 -0.4130
   81MOL   H19019550   2.815   6.065   6.790 -0.8571  0.1888  0.4337
   81MOL   H19119551   2.779   5.903   6.367 -0.0641 -1.6820 -0.5778
   81MOL   H19219552   2.865   5.767   6.453  1.1518 -0.2650 -0.1980
   81MOL   H19319553   2.954   5.901   6.423 -0.1759  0.3701  0.2509
   81MOL   C19419554   2.792   5.863   6.881 -0.5923  0.2364 -0.0849
   81MOL   C19519555   2.850   5.720   6.905 -0.2228  0.2326  0.2399
   81MOL   O19619556   2.779   5.656   7.011  0.0886  0.3420 -0.1439
   81MOL   C19719557   2.814   5.685   7.146  0.6387 -0.1485 -1.1508
   81MOL   C19819558   2.745   5.594   7.244 -0.9728 -0.3181 -0.0321
   81MOL   O19919559   2.878   5.781   7.184  0.1664 -0.3568  0.1961
   81MOL   H20019560   2.773   5.897   6.983  2.3405 -0.1072  0.6209
   81MOL   H20119561   2.694   5.866   6.833 -0.8958  0.4341  0.5366
   81MOL   H20219562   2.952   5.732   6.940  0.0730 -2.2704  0.3362
   81MOL   H20319563   2.644   5.566   7.213  0.5339 -4.7615 -1.3554
   81MOL   H20419564   2.756   5.620   7.349  0.3099 -0.1838 -0.1980
   81MOL   H20519565   2.799   5.501   7.225  0.7107  0.5116  0.6568
   81MOL   C20619566   2.850   5.639   6.773 -0.0470 -0.6767  0.2341
   81MOL   C20719567   2.917   5.503   6.790  0.2502 -0.0676 -0.0400
   81MOL   O20819568   2.829   5.424   6.864 -0.3068 -0.3631  0.2788
   81MOL   C20919569   2.869   5.343   6.966 -0.7645 -0.0375 -0.1158
   81MOL   C21019570   2.763   5.255   7.037 -0.3314 -0.0981 -0.6965
   81MOL   O21119571   2.989   5.346   7.003  0.3001 -0.1643  0.3454
   81MOL   H21219572   2.756   5.638   6.718 -0.6700 -1.0641  1.2842
   81MOL   H21319573   2.913   5.701   6.709  1.6748 -3.2461 -0.6520
   81MOL   H21419574   3.016   5.515   6.834 -0.3451 -1.7885  1.8231
   81MOL   H21519575   2.668   5.307   7.036 -0.2578  0.0682  0.2317
   81MOL   H21619576   2.780   5.254   7.145 -0.3251  2.8905 -0.6162
   81MOL   H21719577   2.778   5.153   7.002  1.5334 -0.5462  1.2870
   81MOL   C21819578   2.951   5.426   6.663  0.6841  0.4568 -0.5791
   81MOL   C21919579   3.062   5.486   6.577 -0.5386  0.3807  0.1206
   81MOL   O22019580   3.189   5.472   6.641 -0.0661  0.3662  0.5330
   81MOL   C22119581   3.243   5.586   6.682  0.1196 -0.6218 -0.3438
   81MOL   C22219582   3.385   5.576   6.746  0.1108 -0.5071  0.4978
   81MOL   O22319583   3.189   5.702   6.684 -0.0612  0.4287 -0.2758
   81MOL   H22419584   2.966   5.322   6.690 -2.0114  0.0505 -0.4921
   81MOL   H22519585   2.859   5.429   6.605  1.4283 -0.3060 -1.8142
   81MOL   H22619586   3.032   5.586   6.547 -0.4413  0.2444 -0.4265
   81MOL   H22719587   3.419   5.473   6.733 -0.6216 -0.5330 -1.3843
   81MOL   H22819588   3.379   5.598   6.852 -2.7727 -0.8768  0.4489
   81MOL   H22919589   3.451   5.645   6.693 -0.3548 -0.3117  0.1654
   81MOL   C23019590   3.081   5.410   6.441  0.2365 -0.0076  0.0672
   81MOL   C23119591   3.197   5.472   6.357 -0.1263  0.1473 -0.4791
   81MOL   O23219592   3.135   5.552   6.260 -0.0682  0.2900 -0.2693
   81MOL   C23319593   3.101   5.685   6.280 -0.0022  0.1485  0.0059
   81MOL   C23419594   3.000   5.745   6.180 -0.4790 -0.1032  0.1369
   81MOL   O23519595   3.135   5.753   6.375  0.5688  0.5244 -0.0422
   81MOL   H23619596   3.096   5.305   6.466 -1.9286 -0.7782 -1.6949
   81MOL   H23719597   2.993   5.406   6.377 -0.3824 -0.1989  0.9054
   81MOL   H23819598   3.252   5.394   6.305 -1.8062 -0.7832 -0.9178
   81MOL   H23919599   3.014   5.706   6.079  1.0259 -2.1842  1.1151
   81MOL   H24019600   3.013   5.854   6.179 -3.7934  0.3703  2.0311
   81MOL   H24119601   2.899   5.731   6.218 -0.0871  1.5549  1.8607
   81MOL   H24219602   3.267   5.531   6.416 -1.2150  0.5221  0.4660
   82MOL     C119603   7.435   5.650   3.965  0.0938  0.5964 -0.2190
   82MOL     C219604   7.398   5.580   4.089  0.6189 -0.4448  0.3430
   82MOL     O319605   7.455   5.632   4.200  0.2326 -0.5481 -0.5000
   82MOL     C419606   7.529   5.555   4.275 -0.7130 -0.4250  0.3477
   82MOL     C519607   7.577   5.623   4.396 -0.1284 -0.1413 -0.2364
   82MOL     O619608   7.565   5.442   4.254  0.9660 -0.2262  0.2344
   82MOL     H719609   7.356   5.607   3.903 -1.3170 -0.1899  2.0599
   82MOL     H819610   7.538   5.637   3.934 -0.3446 -2.5887 -0.5020
   82MOL     H919611   7.433   5.478   4.073  0.8119 -0.5052  1.1266
   82MOL    H1019612   7.570   5.555   4.481 -3.1245 -2.1584 -1.9976
   82MOL    H1119613   7.509   5.706   4.417  0.4653 -0.2594  2.3501
   82MOL    H1219614   7.682   5.653   4.394  0.0211 -0.7409 -1.5108
   82MOL    H1319615   7.411   5.757   3.972 -2.7820 -0.0563  0.7634
   82MOL    C1419616   7.248   5.558   4.111  0.0734 -0.8278  0.1274
   82MOL    C1519617   7.156   5.687   4.095  0.5220 -0.5381 -0.1455
   82MOL    O1619618   7.032   5.621   4.060  0.2766 -0.2144 -0.4313
   82MOL    C1719619   7.001   5.591   3.926  0.4904 -0.1755 -0.0154
   82MOL    C1819620   6.855   5.575   3.901  0.2143 -0.0518 -0.1785
   82MOL    O1919621   7.077   5.587   3.831 -0.1007 -0.8196  0.2010
   82MOL    H2019622   7.229   5.480   4.037 -0.0686 -0.3372 -0.3522
   82MOL    H2119623   7.225   5.504   4.203  0.7264 -0.3060  0.6041
   82MOL    H2219624   7.177   5.739   4.002 -0.8863 -1.3409 -0.9379
   82MOL    H2319625   6.809   5.478   3.881  2.9384 -1.5403  0.5493
   82MOL    H2419626   6.839   5.637   3.813  1.2704  2.1208  1.1027
   82MOL    H2519627   6.795   5.624   3.978 -0.7712 -1.1845 -0.2059
   82MOL    C2619628   7.139   5.770   4.214  1.1996  0.7982  0.8743
   82MOL    C2719629   7.093   5.912   4.187 -0.2109 -0.0774 -0.0964
   82MOL    O2819630   6.972   5.921   4.110  0.6884  0.0980  0.6695
   82MOL    C2919631   6.961   6.016   4.017  0.6680 -0.3761 -0.0898
   82MOL    C3019632   6.823   6.020   3.951  0.2609  0.5180  0.0960
   82MOL    O3119633   7.039   6.105   3.993  0.0957  0.3994 -0.0641
   82MOL    H3219634   7.060   5.730   4.278 -0.9149  1.1928 -1.4075
   82MOL    H3319635   7.236   5.777   4.264  2.0978 -0.3089 -0.6837
   82MOL    H3419636   7.169   5.953   4.122 -1.1057  2.3321  0.3244
   82MOL    H3519637   6.748   6.030   4.030  1.6061  3.2036  1.1046
   82MOL    H3619638   6.804   5.933   3.889  1.5873 -0.2044  0.6908
   82MOL    H3719639   6.815   6.108   3.888 -1.1401  0.1994 -0.2004
   82MOL    C3819640   7.068   5.989   4.314 -0.1366 -0.0306 -0.5148
   82MOL    C3919641   7.193   6.047   4.383  0.1506  0.4752  1.0631
   82MOL    O4019642   7.236   6.154   4.300  0.3090  0.3284  0.3857
   82MOL    C4119643   7.363   6.155   4.254  0.1100 -0.1792  0.0567
   82MOL    C4219644   7.393   6.263   4.155  0.6869  0.5050  0.4128
   82MOL    O4319645   7.450   6.073   4.282  0.2812 -0.0166 -0.1889
   82MOL    H4419646   7.002   6.075   4.299 -1.6041 -1.1298 -0.4065
   82MOL    H4519647   7.004   5.928   4.377  0.9448 -0.9768 -0.3093
   82MOL    H4619648   7.271   5.971   4.380  0.0413  0.4326 -1.8730
   82MOL    H4719649   7.398   6.240   4.048 -0.9692  3.3983 -0.3324
   82MOL    H4819650   7.493   6.303   4.170  1.1542  0.5437 -2.5414
   82MOL    H4919651   7.327   6.347   4.174  1.7442  1.5593 -0.5405
   82MOL    C5019652   7.169   6.111   4.519  0.3681  0.0094 -0.1963
   82MOL    C5119653   7.147   6.029   4.651 -0.1198  0.3707 -0.1054
   82MOL    O5219654   7.267   5.966   4.696 -0.4453  0.4713  0.2334
   82MOL    C5319655   7.307   5.855   4.649 -0.5818  0.1548  0.0110
   82MOL    C5419656   7.446   5.820   4.684 -0.1640 -0.1235  0.1306
   82MOL    O5519657   7.235   5.778   4.585 -0.2631 -0.2995  0.1797
   82MOL    H5619658   7.267   6.157   4.533 -0.0327  0.2863  2.0342
   82MOL    H5719659   7.092   6.188   4.509 -1.0325 -1.4351 -0.5775
   82MOL    H5819660   7.070   5.955   4.628  2.9759 -2.3615 -2.0959
   82MOL    H5919661   7.469   5.713   4.675  1.1370  0.0266  1.5296
   82MOL    H6019662   7.475   5.855   4.783  0.3992 -0.0687 -0.0469
   82MOL    H6119663   7.502   5.859   4.599 -0.7247 -1.0732 -0.7009
   82MOL    C6219664   7.096   6.108   4.770 -0.6418 -0.0989  0.6069
   82MOL    C6319665   6.957   6.168   4.755  0.3002  0.7318  0.0997
   82MOL    O6419666   6.850   6.072   4.754  0.5465 -0.1296 -0.3858
   82MOL    C6519667   6.778   6.051   4.641  0.8818  0.6353 -0.1011
   82MOL    C6619668   6.647   5.982   4.659  0.8989  0.1663  0.1764
   82MOL    O6719669   6.814   6.078   4.526 -0.4370  0.4238  0.3283
   82MOL    H6819670   7.106   6.051   4.862  0.7104  1.1636  1.2628
   82MOL    H6919671   7.161   6.193   4.790  1.9560 -2.1022  0.8580
   82MOL    H7019672   6.966   6.216   4.658 -1.7670  1.6978  0.3674
   82MOL    H7119673   6.660   5.874   4.646 -2.2014 -0.4996  2.0315
   82MOL    H7219674   6.570   6.021   4.593 -0.4905 -2.4653  0.1812
   82MOL    H7319675   6.616   5.993   4.763  1.9430 -0.8344  0.6162
   82MOL    C7419676   6.919   6.289   4.851  0.4428  0.2726  0.5170
   82MOL    C7519677   7.001   6.413   4.841 -0.4831 -0.1990 -0.3979
   82MOL    O7619678   7.026   6.455   4.702  0.1925  0.6596 -0.0075
   82MOL    C7719679   7.160   6.464   4.664 -0.9738 -0.2057 -0.5817
   82MOL    C7819680   7.159   6.500   4.517 -0.0266 -0.1353  0.2213
   82MOL    O7919681   7.263   6.454   4.733 -0.2474  0.3946  0.1464
   82MOL    H8019682   6.819   6.320   4.821 -0.0838 -0.6291  1.3662
   82MOL    H8119683   6.901   6.254   4.952 -0.1464 -0.9623 -0.0112
   82MOL    H8219684   7.090   6.399   4.902 -1.5745  0.5053  1.4118
   82MOL    H8319685   7.243   6.567   4.500  0.6166 -1.4830 -2.0386
   82MOL    H8419686   7.066   6.547   4.484  0.2746 -0.5732 -1.2879
   82MOL    H8519687   7.172   6.408   4.460  0.2671  1.2519 -2.0345
   82MOL    C8619688   6.930   6.531   4.893 -0.2745  0.4528 -0.7596
   82MOL    C8719689   6.910   6.528   5.048  0.5199  0.6592 -0.2012
   82MOL    O8819690   7.040   6.548   5.099  0.2510  0.3836 -0.7133
   82MOL    C8919691   7.083   6.480   5.208  0.1237 -0.9953 -0.1024
   82MOL    C9019692   7.231   6.480   5.216  0.3449  0.2320  0.6042
   82MOL    O9119693   7.012   6.420   5.290  0.2935 -0.1685  0.1955
   82MOL    H9219694   6.980   6.623   4.863 -0.8931  0.4356 -1.8778
   82MOL    H9319695   6.832   6.533   4.843 -1.0438 -1.0931  0.6260
   82MOL    H9419696   6.876   6.429   5.079 -3.4242  1.7571 -0.7309
   82MOL    H9519697   7.283   6.449   5.126 -3.4396  0.6493 -1.8568
   82MOL    H9619698   7.270   6.420   5.298  2.0793  0.1737 -0.2371
   82MOL    H9719699   7.256   6.585   5.231  1.2675  0.1926 -0.5796
   82MOL    C9819700   6.816   6.639   5.099 -0.3345 -0.5315 -0.6542
   82MOL    C9919701   6.670   6.619   5.064 -0.1825 -0.0092 -0.1235
   82MOL   O10019702   6.605   6.526   5.147  0.1029  0.0096  0.0254
   82MOL   C10119703   6.582   6.403   5.101  0.6170 -0.2561  0.3214
   82MOL   C10219704   6.516   6.301   5.192  0.1985  0.8457 -0.8981
   82MOL   O10319705   6.599   6.366   4.981 -0.2422 -0.3370 -0.3348
   82MOL   H10419706   6.832   6.648   5.207 -1.7111 -2.2185 -0.2791
   82MOL   H10519707   6.863   6.730   5.063 -0.0334  0.4307  2.0560
   82MOL   H10619708   6.666   6.586   4.960  1.5021  0.1518 -0.2592
   82MOL   H10719709   6.538   6.209   5.139  0.8574  1.0343 -0.9576
   82MOL   H10819710   6.410   6.324   5.206  0.0964  0.2586 -0.7041
   82MOL   H10919711   6.562   6.313   5.290  0.2241  1.7013 -1.0097
   82MOL   C11019712   6.591   6.749   5.072  0.5088 -0.2019  0.8202
   82MOL   C11119713   6.627   6.863   4.975 -0.7916  0.7424  0.3662
   82MOL   O11219714   6.736   6.937   5.035  0.4462  0.8148 -0.2295
   82MOL   C11319715   6.709   7.067   5.066 -0.4287  0.6249  0.0363
   82MOL   C11419716   6.830   7.133   5.129  0.1042 -0.4568  0.3442
   82MOL   O11519717   6.596   7.125   5.057  0.2859 -0.0248  0.2999
   82MOL   H11619718   6.490   6.717   5.047  0.3956  1.2531 -0.6593
   82MOL   H11719719   6.581   6.792   5.172 -0.0021  0.2040  0.5987
   82MOL   H11819720   6.533   6.918   4.962 -0.9405  0.5411  0.5734
   82MOL   H11919721   6.821   7.241   5.123  0.8796 -0.4643 -1.1520
   82MOL   H12019722   6.924   7.109   5.079  0.5765 -0.2480  1.1129
   82MOL   H12119723   6.854   7.097   5.229 -1.7642 -0.9694  0.6356
   82MOL   C12219724   6.668   6.820   4.834 -0.5301 -0.5017  0.2632
   82MOL   C12319725   6.703   6.936   4.738  0.6001  0.1802 -0.3095
   82MOL   O12419726   6.836   6.970   4.767 -0.0493  0.4372  0.1316
   82MOL   C12519727   6.879   7.099   4.732 -0.7831 -0.6900 -0.1731
   82MOL   C12619728   7.018   7.137   4.787  0.7812 -0.4369  0.6134
   82MOL   O12719729   6.817   7.180   4.661 -0.1510 -0.1395 -0.3443
   82MOL   H12819730   6.759   6.761   4.838  0.1463  0.7016  3.5058
   82MOL   H12919731   6.584   6.760   4.799 -0.2589  0.4027 -2.0345
   82MOL   H13019732   6.634   7.016   4.765  1.8325  1.0449  0.3498
   82MOL   H13119733   7.035   7.105   4.889  1.3068  2.6154  1.5399
   82MOL   H13219734   7.019   7.245   4.772  1.0574 -0.5564 -0.2610
   82MOL   H13319735   7.091   7.085   4.724 -1.2641 -1.5478 -0.8760
   82MOL   C13419736   6.683   6.896   4.588  0.1200  1.2935 -0.3924
   82MOL   C13519737   6.535   6.902   4.533 -0.1778  0.0420  0.4070
   82MOL   O13619738   6.517   7.038   4.495 -0.4092 -0.2156 -0.4129
   82MOL   C13719739   6.457   7.125   4.584  0.4037  0.5705  0.1001
   82MOL   C13819740   6.457   7.266   4.532 -0.1954 -0.2036 -0.2353
   82MOL   O13919741   6.426   7.091   4.699  0.7493  0.7118 -0.1607
   82MOL   H14019742   6.736   6.967   4.524 -1.7233  1.0126 -2.2838
   82MOL   H14119743   6.741   6.805   4.574 -0.5306  0.5272  1.7060
   82MOL   H14219744   6.471   6.868   4.614  1.2230 -1.9417  0.7116
   82MOL   H14319745   6.377   7.329   4.570  1.3551  0.1333  2.5751
   82MOL   H14419746   6.450   7.260   4.423 -0.3297 -2.7403 -0.0948
   82MOL   H14519747   6.554   7.309   4.558 -0.3780 -0.2795  0.5660
   82MOL   C14619748   6.516   6.821   4.403  0.2466  0.5980 -0.0418
   82MOL   C14719749   6.525   6.667   4.409 -0.3769  0.2574 -1.0387
   82MOL   O14819750   6.449   6.619   4.519 -0.0559  0.1911 -0.2499
   82MOL   C14919751   6.498   6.556   4.622  0.2211  0.0761 -0.3192
   82MOL   C15019752   6.388   6.504   4.718 -0.3923 -0.0341  0.5613
   82MOL   O15119753   6.610   6.557   4.658 -0.2478 -0.0894  0.2940
   82MOL   H15219754   6.419   6.847   4.360 -0.7886  0.1867  1.9756
   82MOL   H15319755   6.589   6.853   4.329 -0.1213  1.0994 -0.1942
   82MOL   H15419756   6.628   6.636   4.428 -1.1520 -1.7041  0.0929
   82MOL   H15519757   6.332   6.422   4.673 -0.4129 -0.5781  1.5755
   82MOL   H15619758   6.318   6.584   4.739  2.3863  2.2873  1.3005
   82MOL   H15719759   6.433   6.475   4.813  0.3584  0.4909  0.3702
   82MOL   C15819760   6.479   6.601   4.280 -0.1224 -0.6214  0.5261
   82MOL   C15919761   6.595   6.578   4.188 -0.7360  0.2147  0.2984
   82MOL   O16019762   6.693   6.493   4.239 -0.4134 -0.0443 -0.3388
   82MOL   C16119763   6.827   6.520   4.248 -0.2684 -0.0112 -0.0762
   82MOL   C16219764   6.905   6.393   4.277 -0.9274 -0.0505 -0.9821
   82MOL   O16319765   6.876   6.630   4.228  0.2139  0.0038 -0.2817
   82MOL   H16419766   6.437   6.502   4.295 -1.7699  0.2739  1.9238
   82MOL   H16519767   6.396   6.663   4.246  0.9646  0.4561 -0.2096
   82MOL   H16619768   6.643   6.670   4.154  3.8035 -2.7935 -1.9376
   82MOL   H16719769   6.916   6.390   4.385  3.2215 -0.6478 -1.3157
   82MOL   H16819770   7.010   6.386   4.248 -0.6375 -1.3211  0.3513
   82MOL   H16919771   6.852   6.307   4.235 -0.1884 -1.5924  1.1788
   82MOL   C17019772   6.547   6.508   4.056  0.5743 -0.7082  0.4223
   82MOL   C17119773   6.455   6.593   3.960 -0.5152 -0.0404  0.2350
   82MOL   O17219774   6.513   6.725   3.941  0.0356  0.2141  0.1161
   82MOL   C17319775   6.476   6.833   4.007  0.7913 -0.5985  0.7639
   82MOL   C17419776   6.550   6.953   3.955  0.0069 -0.3585 -0.8904
   82MOL   O17519777   6.391   6.845   4.094  0.6246  0.1212 -0.5218
   82MOL   H17619778   6.625   6.464   3.994  0.7586  0.9155 -0.5394
   82MOL   H17719779   6.492   6.419   4.087  1.3386 -1.4389 -0.3009
   82MOL   H17819780   6.356   6.607   4.002  0.2633 -1.2151  2.5501
   82MOL   H17919781   6.619   6.925   3.875 -0.6591  0.6691 -1.8326
   82MOL   H18019782   6.600   6.987   4.045 -1.4538  0.0598 -0.2206
   82MOL   H18119783   6.488   7.040   3.932 -0.7652 -0.5680  0.4080
   82MOL   C18219784   6.428   6.511   3.828  0.0868 -0.3251  0.3886
   82MOL   C18319785   6.338   6.386   3.846 -0.3036 -0.1101  0.1651
   82MOL   O18419786   6.206   6.429   3.885  0.0175 -0.8035 -0.0394
   82MOL   C18519787   6.158   6.413   4.009 -0.7173 -0.4615  0.1386
   82MOL   C18619788   6.017   6.472   4.011 -0.7109  0.8932 -0.2517
   82MOL   O18719789   6.222   6.372   4.109  0.2995 -1.0642 -0.1326
   82MOL   H18819790   6.391   6.573   3.746 -1.6644 -1.4146  0.3313
   82MOL   H18919791   6.529   6.485   3.795  0.0145  0.3908 -0.4188
   82MOL   H19019792   6.378   6.330   3.931  2.8810  0.8044 -0.6441
   82MOL   H19119793   6.007   6.569   3.964  2.2742  1.0153 -0.7240
   82MOL   H19219794   5.989   6.486   4.115 -0.1567 -0.4975  0.1118
   82MOL   H19319795   5.948   6.399   3.969 -0.7829  0.9254 -0.1889
   82MOL   C19419796   6.334   6.281   3.734 -0.4042 -1.0418  0.3801
   82MOL   C19519797   6.468   6.201   3.714 -0.2579 -0.4818  1.0373
   82MOL   O19619798   6.440   6.067   3.746 -0.7394  0.5507  0.3462
   82MOL   C19719799   6.454   6.024   3.869  0.0773  0.4768 -0.5819
   82MOL   C19819800   6.440   5.875   3.889  0.4237 -0.3917 -0.8398
   82MOL   O19919801   6.473   6.101   3.964 -0.1586  0.0921 -0.2662
   82MOL   H20019802   6.260   6.207   3.765  0.1086 -1.6409  0.1780
   82MOL   H20119803   6.300   6.322   3.639  1.0778  0.1659  0.3477
   82MOL   H20219804   6.536   6.236   3.792  0.9718 -1.5518  0.4632
   82MOL   H20319805   6.384   5.859   3.981 -1.9614  0.2620 -2.1195
   82MOL   H20419806   6.537   5.827   3.896  1.5546  1.9267 -0.1677
   82MOL   H20519807   6.371   5.836   3.814 -0.9015  1.4322 -0.6310
   82MOL   C20619808   6.544   6.227   3.580 -0.3963  0.8323 -0.1047
   82MOL   C20719809   6.650   6.336   3.579  0.1634 -0.3291  0.3695
   82MOL   O20819810   6.745   6.309   3.677 -0.3881  0.2540  0.1092
   82MOL   C20919811   6.811   6.415   3.734  0.1357 -0.7033 -0.4515
   82MOL   C21019812   6.914   6.360   3.832  0.1962 -0.7206 -0.2920
   82MOL   O21119813   6.778   6.533   3.725 -0.5879  0.1210  0.5727
   82MOL   H21219814   6.597   6.134   3.557 -0.6854  0.7774 -0.5541
   82MOL   H21319815   6.474   6.220   3.497  2.7233 -0.2283 -2.7356
   82MOL   H21419816   6.606   6.432   3.605  0.7095  0.1541 -0.4521
   82MOL   H21519817   6.988   6.438   3.849 -0.7719  0.0710  0.3380
   82MOL   H21619818   6.953   6.264   3.796 -1.1029 -1.1329 -0.6281
   82MOL   H21719819   6.866   6.339   3.927  0.2828  1.2067  0.1837
   82MOL   C21819820   6.694   6.371   3.433  0.0857  0.3763 -0.9290
   82MOL   C21919821   6.598   6.477   3.375  0.0766  0.6623 -0.6995
   82MOL   O22019822   6.609   6.594   3.448 -0.7923  0.1114  0.8673
   82MOL   C22119823   6.499   6.656   3.501 -0.2934  0.1746  0.5044
   82MOL   C22219824   6.522   6.768   3.600 -0.3338 -0.0447 -0.7464
   82MOL   O22319825   6.387   6.617   3.487  0.3738 -0.4721  0.3097
   82MOL   H22419826   6.800   6.397   3.430  0.6437 -1.7966 -1.2446
   82MOL   H22519827   6.675   6.280   3.376 -2.7988  0.0846  0.3886
   82MOL   H22619828   6.493   6.447   3.370  0.9235 -2.8878  1.0978
   82MOL   H22719829   6.421   6.795   3.631 -1.0493 -1.0557 -2.1429
   82MOL   H22819830   6.557   6.861   3.555 -1.8416  1.3627  0.8744
   82MOL   H22919831   6.571   6.733   3.691 -0.2847  0.2268 -0.6673
   82MOL   C23019832   6.654   6.526   3.239  0.8026  0.0809 -0.1988
   82MOL   C23119833   6.626   6.439   3.119  0.2187 -0.1975  0.1890
   82MOL   O23219834   6.721   6.333   3.131  0.1966 -0.1808  0.2207
   82MOL   C23319835   6.819   6.331   3.041 -0.3749  0.2771  0.0353
   82MOL   C23419836   6.924   6.207   3.049  0.1922 -0.0406  0.0204
   82MOL   O23519837   6.847   6.416   2.960  0.2855 -1.0209 -0.3615
   82MOL   H23619838   6.606   6.619   3.211  2.7760  1.6095  1.3958
   82MOL   H23719839   6.757   6.560   3.242 -0.2610  3.5261 -1.2187
   82MOL   H23819840   6.644   6.497   3.028 -0.0679  0.4043  0.5168
   82MOL   H23919841   6.984   6.209   2.959 -1.8803 -0.9365 -1.4141
   82MOL   H24019842   6.857   6.121   3.053  0.8312 -0.4971  1.0333
   82MOL   H24119843   6.985   6.225   3.138  1.2371 -0.8807 -0.5251
   82MOL   H24219844   6.524   6.399   3.114  0.8848 -1.7818 -1.8446
   83MOL     C119845   2.197   0.055   0.878 -0.6182  0.1592 -0.3099
   83MOL     C219846   2.215   7.999   1.008  0.7801  0.0761 -0.3606
   83MOL     O319847   2.085   7.999   1.074 -0.2507 -0.4691 -0.1597
   83MOL     C419848   2.094   8.001   1.213  0.6472  0.1921 -0.2524
   83MOL     C519849   1.959   8.011   1.276 -0.4383  0.0590  0.3210
   83MOL     O619850   2.204   8.008   1.267 -0.5387  0.1383  0.5182
   83MOL     H719851   2.134   0.011   0.800  1.2447  2.4489 -3.1867
   83MOL     H819852   2.296   0.061   0.832 -0.3439  1.0310  0.3913
   83MOL     H919853   2.284   0.035   1.069 -0.1936  0.6765  0.1838
   83MOL    H1019854   1.904   7.917   1.267  1.4759 -1.1059  0.5433
   83MOL    H1119855   1.897   0.072   1.240  2.2682  1.8012 -0.4265
   83MOL    H1219856   1.981   0.009   1.381 -1.3793 -2.7904  1.1195
   83MOL    H1319857   2.162   0.156   0.899 -0.1322 -0.0458  1.5657
   83MOL    C1419858   2.265   7.853   0.984  0.1029  0.3075  0.3606
   83MOL    C1519859   2.414   7.832   0.978  0.7551 -0.1176 -0.2180
   83MOL    O1619860   2.457   7.808   1.114  0.6173  0.8300  0.0092
   83MOL    C1719861   2.526   7.899   1.169  0.2366 -0.0707 -0.2815
   83MOL    C1819862   2.551   7.868   1.315 -0.6613  0.1176  0.0457
   83MOL    O1919863   2.563   8.003   1.112  1.2231 -0.3599 -0.5272
   83MOL    H2019864   2.217   7.788   1.058  0.4506 -0.4628 -0.0797
   83MOL    H2119865   2.220   7.821   0.889  0.5271 -0.5150  0.4314
   83MOL    H2219866   2.459   7.919   0.930  2.1497 -2.3566 -3.1616
   83MOL    H2319867   2.457   7.857   1.370 -0.2302  0.5372  0.8793
   83MOL    H2419868   2.608   7.938   1.377  0.7621 -0.3426 -0.7286
   83MOL    H2519869   2.612   7.778   1.320 -0.8697 -0.0174  0.1874
   83MOL    C2619870   2.473   7.712   0.896 -0.0244  0.1023 -0.0365
   83MOL    C2719871   2.379   7.588   0.891 -0.0549 -0.6182 -0.1883
   83MOL    O2819872   2.286   7.596   0.786  0.8168 -0.2392 -0.0375
   83MOL    C2919873   2.148   7.577   0.803  0.0271 -0.9494  0.0126
   83MOL    C3019874   2.078   7.588   0.668 -0.4336  0.4991 -0.5299
   83MOL    O3119875   2.090   7.569   0.907  0.6298 -0.6918 -0.3656
   83MOL    H3219876   2.493   7.742   0.793 -0.0664 -1.9996 -0.6698
   83MOL    H3319877   2.574   7.683   0.921  0.5456  1.3303 -0.8656
   83MOL    H3419878   2.323   7.584   0.984 -0.7350  1.0482 -0.4974
   83MOL    H3519879   2.003   7.509   0.671  1.1688 -1.0067  0.5719
   83MOL    H3619880   2.153   7.567   0.592 -0.2183  1.0728 -0.4807
   83MOL    H3719881   2.035   7.688   0.670 -0.6718  0.3808  0.3116
   83MOL    C3819882   2.458   7.460   0.867  0.2077 -0.0428  0.1749
   83MOL    C3919883   2.533   7.412   0.995  0.7831  0.0529  0.6524
   83MOL    O4019884   2.442   7.421   1.105 -0.2575  0.6739  0.0904
   83MOL    C4119885   2.473   7.498   1.210  0.2173  0.5610 -0.2853
   83MOL    C4219886   2.354   7.520   1.298  0.3917  0.4308 -0.1272
   83MOL    O4319887   2.577   7.558   1.235  0.4660 -0.2485  0.1211
   83MOL    H4419888   2.382   7.389   0.835 -2.0079  2.3194  0.0045
   83MOL    H4519889   2.516   7.477   0.776 -0.4501 -1.8907 -0.6033
   83MOL    H4619890   2.610   7.485   1.022  0.5365 -0.3557  2.5274
   83MOL    H4719891   2.330   7.625   1.290  1.7415  0.9137  1.6685
   83MOL    H4819892   2.368   7.508   1.406 -1.6598  0.5291  0.1710
   83MOL    H4919893   2.265   7.457   1.287 -0.6472  1.6056  1.3866
   83MOL    C5019894   2.597   7.276   0.982 -0.1523  0.1099  0.0436
   83MOL    C5119895   2.712   7.268   0.885  0.4047 -0.6142  0.0254
   83MOL    O5219896   2.801   7.375   0.913  0.1335  0.5026  0.2589
   83MOL    C5319897   2.827   7.472   0.817 -0.0563  0.0414  0.0555
   83MOL    C5419898   2.940   7.569   0.856  0.3758 -0.3623  0.0353
   83MOL    O5519899   2.761   7.486   0.714  0.3080 -0.4539 -0.5058
   83MOL    H5619900   2.622   7.243   1.083 -2.4084 -0.8421  0.3300
   83MOL    H5719901   2.524   7.205   0.943  0.4457 -0.5521  0.1152
   83MOL    H5819902   2.670   7.280   0.785  1.2772 -0.0207 -0.2762
   83MOL    H5919903   3.016   7.507   0.902  1.7579  0.4398 -1.1376
   83MOL    H6019904   2.907   7.647   0.925 -0.6140  0.1990 -1.0436
   83MOL    H6119905   2.978   7.600   0.758  1.0354 -2.0695 -0.2647
   83MOL    C6219906   2.791   7.135   0.891  0.1227 -0.3049 -0.9782
   83MOL    C6319907   2.712   7.005   0.871  0.2145 -0.5640 -0.0942
   83MOL    O6419908   2.661   7.009   0.735 -0.0529 -0.1451 -0.3223
   83MOL    C6519909   2.537   6.957   0.705 -0.1528  0.3037  0.5025
   83MOL    C6619910   2.474   7.004   0.574 -0.2952  0.3444 -0.2499
   83MOL    O6719911   2.462   6.897   0.778 -0.1855  0.1437 -0.6693
   83MOL    H6819912   2.867   7.147   0.814  1.3885  1.5047  0.5098
   83MOL    H6919913   2.858   7.132   0.977 -0.7407  0.9979 -0.2572
   83MOL    H7019914   2.633   7.009   0.946  0.4664 -1.3464  0.2221
   83MOL    H7119915   2.446   7.110   0.571 -3.5002 -0.4285  1.0049
   83MOL    H7219916   2.390   6.944   0.540  0.1035 -1.3226  1.6872
   83MOL    H7319917   2.553   6.995   0.499  0.5120  3.4334  0.1480
   83MOL    C7419918   2.801   6.876   0.883  0.2856  0.2496 -0.3889
   83MOL    C7519919   2.799   6.826   1.027 -0.0598  0.4897  1.1156
   83MOL    O7619920   2.691   6.730   1.036 -0.1220 -0.3615 -0.4554
   83MOL    C7719921   2.596   6.759   1.118 -0.5038  0.4479  0.3495
   83MOL    C7819922   2.486   6.658   1.111  0.2604 -0.1923 -0.3938
   83MOL    O7919923   2.580   6.863   1.187 -0.1894 -0.4255 -0.2814
   83MOL    H8019924   2.764   6.790   0.828  0.7590 -1.1398  1.4220
   83MOL    H8119925   2.904   6.887   0.848  1.1763 -0.8083  1.7937
   83MOL    H8219926   2.787   6.912   1.093  0.2315 -1.2255  3.4625
   83MOL    H8319927   2.520   6.558   1.085 -1.6845 -0.8018 -0.6352
   83MOL    H8419928   2.418   6.678   1.029  1.9731  1.3237 -1.4927
   83MOL    H8519929   2.439   6.673   1.208  0.0459  0.9219 -0.6665
   83MOL    C8619930   2.925   6.750   1.060 -0.7241  0.7637 -0.4409
   83MOL    C8719931   2.940   6.703   1.205 -0.4508  0.2151 -0.2342
   83MOL    O8819932   2.867   6.578   1.212 -0.2674 -0.1314  0.2691
   83MOL    C8919933   2.794   6.542   1.316  0.1175 -0.1328 -0.9370
   83MOL    C9019934   2.708   6.413   1.296  0.2280  0.8887 -0.5351
   83MOL    O9119935   2.801   6.602   1.429  0.1478  0.3799  0.4854
   83MOL    H9219936   2.948   6.665   0.997 -0.4095 -1.5627  2.6695
   83MOL    H9319937   3.006   6.821   1.042  1.7168 -2.1084 -1.1511
   83MOL    H9419938   2.899   6.767   1.282 -2.3011 -0.9165 -0.2571
   83MOL    H9519939   2.606   6.428   1.333  0.6119  1.3799  0.3440
   83MOL    H9619940   2.762   6.325   1.330  2.2420  2.9713  1.9215
   83MOL    H9719941   2.682   6.400   1.191  0.9097  2.0451 -0.8645
   83MOL    C9819942   3.088   6.689   1.237  0.0911  0.1655  0.0029
   83MOL    C9919943   3.148   6.827   1.285 -0.6149 -0.0435 -0.2301
   83MOL   O10019944   3.156   6.819   1.431 -0.0466  0.2174 -0.2391
   83MOL   C10119945   3.140   6.925   1.517  0.3269 -0.4822 -0.6199
   83MOL   C10219946   3.161   6.888   1.665  0.2214 -0.3270 -0.0465
   83MOL   O10319947   3.105   7.041   1.482  0.0890 -0.8614 -0.1021
   83MOL   H10419948   3.083   6.620   1.321 -4.1579 -1.3201 -1.2899
   83MOL   H10519949   3.150   6.643   1.160 -0.8311  0.2900 -0.8371
   83MOL   H10619950   3.095   6.920   1.264  0.3951  0.3327 -1.1486
   83MOL   H10719951   3.265   6.895   1.698  0.7690  1.3881 -2.0575
   83MOL   H10819952   3.125   6.788   1.691 -0.4148  0.1919  1.1057
   83MOL   H10919953   3.116   6.961   1.733  2.5229  1.6053 -0.5365
   83MOL   C11019954   3.296   6.853   1.235  0.0295 -0.1784  0.5094
   83MOL   C11119955   3.307   6.912   1.097 -0.0248 -0.4961 -0.4146
   83MOL   O11219956   3.269   7.047   1.112  0.1585  0.2839 -0.0243
   83MOL   C11319957   3.168   7.101   1.036  0.1531 -0.2254  0.3501
   83MOL   C11419958   3.155   7.259   1.059 -0.2531  0.3988  0.6891
   83MOL   O11519959   3.093   7.042   0.952 -1.0366  0.1947 -0.1722
   83MOL   H11619960   3.353   6.921   1.299  1.6398 -0.5349 -0.5220
   83MOL   H11719961   3.347   6.758   1.248 -0.1945 -0.3452  0.1717
   83MOL   H11819962   3.233   6.856   1.040 -2.5042  0.6640  1.5887
   83MOL   H11919963   3.134   7.315   0.968  0.7112 -1.6140 -0.7981
   83MOL   H12019964   3.242   7.295   1.115 -0.0564  2.6997 -1.0228
   83MOL   H12119965   3.080   7.288   1.133 -0.2894  0.1349  0.7573
   83MOL   C12219966   3.450   6.900   1.038 -0.3715  0.2624  0.0206
   83MOL   C12319967   3.456   6.848   0.893 -0.1468  0.1126  0.0573
   83MOL   O12419968   3.362   6.922   0.819 -0.3954  0.0248  0.1591
   83MOL   C12519969   3.260   6.872   0.750  0.1083  0.5898  0.0274
   83MOL   C12619970   3.186   6.984   0.671  0.2840 -0.5036  0.1952
   83MOL   O12719971   3.231   6.752   0.743  0.2736 -0.1714 -0.7575
   83MOL   H12819972   3.505   6.992   1.053  1.2239 -0.9218  1.7371
   83MOL   H12919973   3.509   6.831   1.099 -2.6284  0.0783  2.0824
   83MOL   H13019974   3.423   6.744   0.887 -1.2545  0.3774  1.1088
   83MOL   H13119975   3.172   7.078   0.723 -2.0842 -0.1527 -1.0059
   83MOL   H13219976   3.084   6.951   0.651 -0.5573  2.2519 -0.2210
   83MOL   H13319977   3.232   6.995   0.573 -0.1275  0.4362  0.1033
   83MOL   C13419978   3.593   6.847   0.828 -0.2658 -0.2325 -0.8749
   83MOL   C13519979   3.608   6.782   0.684  0.6367 -0.3582  0.7511
   83MOL   O13619980   3.745   6.810   0.650  0.0378  0.2416 -0.2903
   83MOL   C13719981   3.775   6.844   0.521 -0.2601  0.3578  0.5852
   83MOL   C13819982   3.923   6.829   0.488 -0.0871  0.3653 -0.1682
   83MOL   O13919983   3.695   6.882   0.433  0.9046  0.0966 -0.4018
   83MOL   H14019984   3.636   6.948   0.828 -2.5192  0.7882  2.0055
   83MOL   H14119985   3.664   6.789   0.886 -0.3019  1.7590  1.2532
   83MOL   H14219986   3.544   6.841   0.618  0.8737  1.3547  2.0105
   83MOL   H14319987   3.976   6.750   0.541 -0.9079 -1.0585 -1.4239
   83MOL   H14419988   3.974   6.923   0.507 -1.9721  0.6937  3.6390
   83MOL   H14519989   3.936   6.794   0.385  0.9877  1.9884 -0.5979
   83MOL   C14619990   3.581   6.633   0.675 -0.0318  0.6348  0.1237
   83MOL   C14719991   3.675   6.533   0.742 -0.5185  0.8609 -0.5614
   83MOL   O14819992   3.609   6.439   0.813 -0.1458  0.3622 -0.4561
   83MOL   C14919993   3.584   6.459   0.943  0.7964 -0.0460  0.0558
   83MOL   C15019994   3.514   6.340   1.013  0.0973  0.1943 -0.2656
   83MOL   O15119995   3.605   6.567   1.008  0.2545 -0.7658  0.2398
   83MOL   H15219996   3.482   6.615   0.716  0.0113 -0.7971 -0.3662
   83MOL   H15319997   3.570   6.620   0.568 -1.0299 -0.4134  0.3400
   83MOL   H15419998   3.749   6.585   0.803  0.3442 -0.7565 -0.2046
   83MOL   H15519999   3.483   6.268   0.938  2.3867  0.3482 -1.4019
   83MOL   H15620000   3.427   6.374   1.068  0.0430  0.1345 -0.3156
   83MOL   H15720001   3.580   6.287   1.082  0.1262  3.0465  2.0262
   83MOL   C15820002   3.775   6.458   0.643  0.5104 -0.1576 -0.3873
   83MOL   C15920003   3.864   6.346   0.700  0.3370  0.4484 -0.7384
   83MOL   O16020004   3.845   6.220   0.637 -0.0281  0.2829  0.3482
   83MOL   C16120005   3.752   6.129   0.669 -0.0848 -1.1348  0.4291
   83MOL   C16220006   3.768   6.011   0.571 -1.1577 -0.0784 -0.7193
   83MOL   O16320007   3.668   6.139   0.757 -0.1985  0.2384  0.6501
   83MOL   H16420008   3.698   6.411   0.581  1.3757 -1.5674 -0.4224
   83MOL   H16520009   3.833   6.526   0.582 -0.7579 -0.1448 -1.6259
   83MOL   H16620010   3.826   6.339   0.802  1.0078  0.2335 -0.5076
   83MOL   H16720011   3.782   6.042   0.468  0.7158 -2.1851 -1.1493
   83MOL   H16820012   3.671   5.961   0.567 -1.6584  0.9164 -1.0837
   83MOL   H16920013   3.848   5.943   0.602 -0.5501  0.4535 -1.1163
   83MOL   C17020014   4.005   6.387   0.693  0.4144  0.3683 -0.5331
   83MOL   C17120015   4.106   6.293   0.768  0.0844 -0.7817 -0.1703
   83MOL   O17220016   4.129   6.186   0.673  0.3687  0.4088  0.1423
   83MOL   C17320017   4.145   6.059   0.714 -0.1540  0.3449 -0.0158
   83MOL   C17420018   4.180   5.968   0.602 -0.6462 -0.2437 -0.3670
   83MOL   O17520019   4.159   6.014   0.830  0.0222  0.1737  0.4233
   83MOL   H17620020   4.029   6.397   0.587 -4.5854 -0.4022 -1.8608
   83MOL   H17720021   4.009   6.489   0.730 -1.3931  0.3979 -0.3791
   83MOL   H17820022   4.056   6.262   0.859 -1.0281 -2.1243 -1.2245
   83MOL   H17920023   4.197   6.029   0.514 -0.3034  1.3101  0.7464
   83MOL   H18020024   4.085   5.918   0.585 -0.9820  0.0794  0.5055
   83MOL   H18120025   4.259   5.896   0.621  0.4907  1.5044  1.8200
   83MOL   C18220026   4.240   6.359   0.809  1.0620  0.0838  0.5344
   83MOL   C18320027   4.229   6.477   0.901  0.1259  0.3702 -0.1030
   83MOL   O18420028   4.178   6.436   1.024  0.2870 -0.2014  0.4785
   83MOL   C18520029   4.045   6.457   1.053 -0.0388  0.4098 -0.4232
   83MOL   C18620030   4.030   6.448   1.204 -1.0858  0.8415 -0.7146
   83MOL   O18720031   3.949   6.488   0.980 -0.1655 -0.2091  0.1994
   83MOL   H18820032   4.296   6.281   0.861 -1.8879 -1.4780  1.5048
   83MOL   H18920033   4.282   6.394   0.715 -2.8343  3.7436 -0.0444
   83MOL   H19020034   4.175   6.556   0.849  1.4895  2.1684  1.1156
   83MOL   H19120035   4.086   6.531   1.246  0.3831 -2.0680  3.3697
   83MOL   H19220036   4.068   6.352   1.240  1.0281  0.8556 -2.7754
   83MOL   H19320037   3.924   6.449   1.229 -1.3646 -2.7616 -1.5254
   83MOL   C19420038   4.361   6.534   0.943 -0.1885  0.3812 -0.0981
   83MOL   C19520039   4.366   6.679   0.987 -0.2620 -0.3011 -0.4344
   83MOL   O19620040   4.486   6.694   1.061  0.1879 -0.1080  0.1746
   83MOL   C19720041   4.488   6.731   1.187 -0.4704 -0.0234 -0.0045
   83MOL   C19820042   4.627   6.730   1.250 -0.2302  0.8848 -0.4405
   83MOL   O19920043   4.395   6.784   1.245  0.2402  0.1983  0.4122
   83MOL   H20020044   4.400   6.463   1.017 -0.5712  0.2837  0.0088
   83MOL   H20120045   4.439   6.526   0.867  1.5033 -0.4014  1.6620
   83MOL   H20220046   4.278   6.700   1.047 -0.5232  1.5998 -1.4408
   83MOL   H20320047   4.612   6.762   1.353 -0.9891  0.3145 -0.3683
   83MOL   H20420048   4.685   6.804   1.196 -0.9457  1.3296 -0.6152
   83MOL   H20520049   4.670   6.630   1.254  0.2353  1.0334 -1.5825
   83MOL   C20620050   4.381   6.774   0.867  0.3751 -0.2659  0.1064
   83MOL   C20720051   4.247   6.815   0.803  0.1255 -0.5607  0.9499
   83MOL   O20820052   4.145   6.844   0.894 -0.0731 -0.6835  0.6666
   83MOL   C20920053   4.019   6.803   0.876 -0.0944 -0.6311 -0.1297
   83MOL   C21020054   3.923   6.850   0.983  0.7368 -0.1970  0.3950
   83MOL   O21120055   3.986   6.738   0.775  0.5135 -0.4910 -0.3547
   83MOL   H21220056   4.427   6.867   0.899  0.6422 -0.6454  0.8193
   83MOL   H21320057   4.433   6.722   0.787 -2.1893 -0.4949 -1.5015
   83MOL   H21420058   4.218   6.724   0.750  1.5757  1.1887 -2.9922
   83MOL   H21520059   3.971   6.904   1.065  2.8660  0.2982 -1.1441
   83MOL   H21620060   3.884   6.757   1.025  1.3973  0.1758  1.8644
   83MOL   H21720061   3.833   6.905   0.954 -0.0363 -0.8437  1.5305
   83MOL   C21820062   4.251   6.929   0.693 -0.4613  0.3450  0.9537
   83MOL   C21920063   4.332   6.898   0.560 -0.2685  0.5353  0.0779
   83MOL   O22020064   4.256   6.806   0.487 -0.1593 -0.0732 -0.1154
   83MOL   C22120065   4.277   6.665   0.493 -0.1542 -0.0687  0.2283
   83MOL   C22220066   4.193   6.596   0.389  0.3737 -0.7565  0.2417
   83MOL   O22320067   4.338   6.607   0.581 -0.0055 -0.4437 -0.2419
   83MOL   H22420068   4.152   6.963   0.663  0.8695  1.4514 -2.5838
   83MOL   H22520069   4.297   7.014   0.744  1.9658  0.0016 -0.5480
   83MOL   H22620070   4.428   6.854   0.587  0.4538  0.3260 -2.6241
   83MOL   H22720071   4.092   6.596   0.431  0.4616  0.5467  0.4830
   83MOL   H22820072   4.242   6.504   0.360  0.1548 -0.1600 -2.1015
   83MOL   H22920073   4.181   6.679   0.319  1.4180 -1.3623 -0.6658
   83MOL   C23020074   4.366   7.026   0.472  0.6257  0.3394 -0.1436
   83MOL   C23120075   4.443   6.994   0.343  0.8368 -0.3965 -0.0877
   83MOL   O23220076   4.579   6.956   0.369  0.2461  0.3418 -0.1204
   83MOL   C23320077   4.674   6.971   0.277  0.3942 -0.3075  0.0796
   83MOL   C23420078   4.803   6.898   0.308 -0.3649  0.5438 -0.0540
   83MOL   O23520079   4.670   7.045   0.177 -0.5344  0.2393 -0.2976
   83MOL   H23620080   4.266   7.065   0.451  0.8226  0.5864 -0.6069
   83MOL   H23720081   4.422   7.103   0.524 -0.6256  0.6956  0.7103
   83MOL   H23820082   4.434   7.086   0.286  1.7560 -0.5217 -0.4410
   83MOL   H23920083   4.783   6.790   0.311  0.9997  0.3112  1.3064
   83MOL   H24020084   4.832   6.922   0.410 -2.2833  1.7070  0.2432
   83MOL   H24120085   4.887   6.923   0.243  0.1744 -1.9376 -0.3653
   83MOL   H24220086   4.381   6.918   0.295 -0.9420  1.1061 -0.2508
   84MOL     C120087   0.152   6.805   4.332 -0.0706 -0.2423 -0.6110
   84MOL     C220088   0.229   6.937   4.296  0.3641 -0.5281 -0.8379
   84MOL     O320089   0.160   6.983   4.181  0.3494  0.3535  1.1021
   84MOL     C420090   0.240   7.021   4.078  0.1923  1.1617 -0.2939
   84MOL     C520091   0.160   7.080   3.969 -0.1844  0.4473 -0.1382
   84MOL     O620092   0.360   7.008   4.065 -0.1704  0.3320  0.3081
   84MOL     H720093   0.228   6.743   4.379 -0.3060  0.5755  0.8777
   84MOL     H820094   0.114   6.751   4.245 -0.6902  0.4281 -0.7672
   84MOL     H920095   0.333   6.904   4.291  0.1067 -1.3753 -0.6656
   84MOL    H1020096   0.073   7.134   4.006 -0.0370 -1.0591  2.5021
   84MOL    H1120097   0.124   7.002   3.902 -0.7750  2.5543 -2.3732
   84MOL    H1220098   0.223   7.138   3.901  0.6244  0.3944  0.5585
   84MOL    H1320099   0.073   6.828   4.404  0.1182 -0.2255 -0.4080
   84MOL    C1420100   0.211   7.040   4.406 -0.0112  0.1896  0.1488
   84MOL    C1520101   0.324   7.030   4.508  0.7140  0.7718  0.1846
   84MOL    O1620102   0.309   6.916   4.580  0.3522 -0.4473 -0.0388
   84MOL    C1720103   0.228   6.922   4.689  0.8560  0.4204 -0.1358
   84MOL    C1820104   0.252   6.808   4.783  0.7657  0.3728 -0.2074
   84MOL    O1920105   0.151   7.016   4.720 -0.2659  0.0183 -0.6010
   84MOL    H2020106   0.223   7.141   4.368 -2.2917  0.8999  1.1836
   84MOL    H2120107   0.118   7.057   4.462 -1.4241  0.3113 -2.1746
   84MOL    H2220108   0.298   7.123   4.559 -1.5851 -0.1815  0.7837
   84MOL    H2320109   0.289   6.845   4.878  0.5538  1.0070 -0.3640
   84MOL    H2420110   0.309   6.726   4.741 -1.1873 -2.1089  1.8267
   84MOL    H2520111   0.160   6.758   4.814 -0.0038  1.3239 -0.8764
   84MOL    C2620112   0.458   7.054   4.445  0.2930 -0.5553  0.1603
   84MOL    C2720113   0.558   7.095   4.551 -0.4200 -0.5347 -0.0219
   84MOL    O2820114   0.628   6.971   4.577 -0.4198 -0.0739  0.3907
   84MOL    C2920115   0.607   6.898   4.689  0.2344 -0.7137  0.2268
   84MOL    C3020116   0.697   6.774   4.704 -0.4384  0.4293  0.4491
   84MOL    O3120117   0.532   6.936   4.781  0.0396 -0.6209  0.4120
   84MOL    H3220118   0.492   6.960   4.402  2.2021 -0.5957  1.6909
   84MOL    H3320119   0.438   7.132   4.371  0.4910  0.4125  1.1171
   84MOL    H3420120   0.515   7.132   4.644 -1.6436 -0.2905 -0.6720
   84MOL    H3520121   0.768   6.800   4.782 -1.5538  0.0007  1.6363
   84MOL    H3620122   0.751   6.765   4.610 -0.5847 -0.1562  0.4208
   84MOL    H3720123   0.637   6.684   4.718 -0.7669  0.6336  0.3674
   84MOL    C3820124   0.661   7.188   4.501  0.2391 -0.2451  0.2717
   84MOL    C3920125   0.728   7.273   4.609  0.1265 -0.0978  0.2766
   84MOL    O4020126   0.857   7.337   4.568 -0.0507 -0.1206  0.1725
   84MOL    C4120127   0.967   7.315   4.644 -0.4120 -0.0994 -0.0841
   84MOL    C4220128   1.075   7.392   4.586  0.2373 -0.1229 -0.2857
   84MOL    O4320129   0.982   7.254   4.751  0.1143 -0.3285  0.3892
   84MOL    H4420130   0.738   7.136   4.443 -0.4927  1.9071 -2.7637
   84MOL    H4520131   0.610   7.252   4.429  2.6566 -1.6777 -2.8470
   84MOL    H4620132   0.747   7.197   4.685 -2.0200  1.1809  2.1512
   84MOL    H4720133   1.147   7.317   4.552 -1.2145 -0.3748 -2.9997
   84MOL    H4820134   1.117   7.463   4.657 -1.5428  0.6642  0.0010
   84MOL    H4920135   1.036   7.434   4.493 -1.1363 -1.3344 -0.2845
   84MOL    C5020136   0.628   7.376   4.667 -0.6750  0.1146 -0.2486
   84MOL    C5120137   0.692   7.488   4.751 -0.1012  0.4450 -0.2318
   84MOL    O5220138   0.615   7.607   4.751 -0.0851 -0.3584 -0.6025
   84MOL    C5320139   0.671   7.721   4.684  0.0295 -0.0984  0.1761
   84MOL    C5420140   0.576   7.841   4.689 -0.3798 -0.0755 -0.4064
   84MOL    O5520141   0.780   7.735   4.629  0.6558  0.6933 -0.3823
   84MOL    H5620142   0.567   7.419   4.588 -1.0056 -2.6590 -1.5581
   84MOL    H5720143   0.558   7.315   4.723 -0.7821 -0.2069 -0.7314
   84MOL    H5820144   0.788   7.512   4.707  0.6650 -1.3772  0.4040
   84MOL    H5920145   0.497   7.810   4.757  0.1314 -0.4829  0.0101
   84MOL    H6020146   0.524   7.868   4.597 -1.4047 -0.1179  0.1567
   84MOL    H6120147   0.642   7.919   4.727 -2.1861  0.7902  0.9991
   84MOL    C6220148   0.715   7.454   4.897  0.4367  0.9129 -0.3056
   84MOL    C6320149   0.762   7.564   4.999  0.3693  0.0330  0.1839
   84MOL    O6420150   0.646   7.644   5.034 -0.1215 -0.3404  0.2271
   84MOL    C6520151   0.663   7.776   5.028  0.2380 -0.0551 -0.6617
   84MOL    C6620152   0.531   7.845   5.044 -0.3142 -0.5997 -0.3359
   84MOL    O6720153   0.760   7.837   4.982 -0.8873 -0.1046  0.1429
   84MOL    H6820154   0.616   7.419   4.925 -0.0230  1.1510 -1.6143
   84MOL    H6920155   0.774   7.364   4.912 -0.2109  0.8777  2.3132
   84MOL    H7020156   0.837   7.622   4.946 -3.4887  1.2275 -4.2232
   84MOL    H7120157   0.543   7.949   5.015  0.2766 -0.4506  0.4436
   84MOL    H7220158   0.506   7.838   5.149  0.8938  0.8421  0.0598
   84MOL    H7320159   0.454   7.801   4.980 -0.8436  0.7248 -0.6290
   84MOL    C7420160   0.809   7.493   5.128  0.3923  0.1341 -0.6472
   84MOL    C7520161   0.951   7.439   5.123 -0.4847  0.3263  0.4565
   84MOL    O7620162   1.055   7.537   5.104  0.2972 -0.3717 -0.6928
   84MOL    C7720163   1.057   7.654   5.178  0.3403  0.5427 -0.3979
   84MOL    C7820164   1.165   7.752   5.138  0.3197 -0.3268  0.7024
   84MOL    O7920165   0.981   7.684   5.272 -0.9223 -0.0725  0.0567
   84MOL    H8020166   0.788   7.552   5.217 -3.2174 -0.4056 -1.0650
   84MOL    H8120167   0.736   7.412   5.138 -3.9727  3.8869 -0.1249
   84MOL    H8220168   0.954   7.372   5.036  1.9402 -1.2895  1.7298
   84MOL    H8320169   1.222   7.708   5.057 -0.9883 -0.8240  0.0373
   84MOL    H8420170   1.238   7.777   5.216  1.2880  1.3085 -0.6915
   84MOL    H8520171   1.125   7.840   5.087  1.5285 -0.5700 -0.6814
   84MOL    C8620172   0.992   7.346   5.246 -0.1998 -0.2055 -0.3125
   84MOL    C8720173   0.902   7.224   5.271 -0.1396 -0.2020  0.6270
   84MOL    O8820174   0.945   7.124   5.185 -0.1519 -0.2370 -0.0179
   84MOL    C8920175   0.892   7.087   5.073 -0.2618 -0.3452  0.6209
   84MOL    C9020176   0.954   6.961   5.022 -0.0513 -0.8270  0.2505
   84MOL    O9120177   0.792   7.134   5.016 -0.3624 -0.2321 -0.2218
   84MOL    H9220178   1.093   7.305   5.246  0.1276  0.5789  1.0473
   84MOL    H9320179   0.986   7.416   5.330 -1.3099  0.6433 -1.0783
   84MOL    H9420180   0.798   7.254   5.260 -0.7750 -2.0663  1.2623
   84MOL    H9520181   1.040   6.934   5.083  0.4918  0.7487  0.2225
   84MOL    H9620182   0.986   6.970   4.918 -0.8754 -3.4624 -0.2502
   84MOL    H9720183   0.886   6.876   5.024  0.7486 -1.4798 -0.1287
   84MOL    C9820184   0.919   7.180   5.419 -0.3151 -0.2849  0.7810
   84MOL    C9920185   0.812   7.066   5.461 -0.1631  0.3572 -0.0982
   84MOL   O10020186   0.845   6.943   5.399 -0.7886 -0.0870  0.1790
   84MOL   C10120187   0.748   6.856   5.366 -0.4459 -0.6138  0.7021
   84MOL   C10220188   0.808   6.727   5.308 -0.8579  0.4649  1.0820
   84MOL   O10320189   0.626   6.866   5.383 -0.2735  0.3450  0.0562
   84MOL   H10420190   1.022   7.152   5.442  0.1924 -1.4967 -2.7059
   84MOL   H10520191   0.902   7.267   5.482  1.0932  0.5582 -0.0033
   84MOL   H10620192   0.712   7.094   5.429 -0.7043  0.4869  1.6744
   84MOL   H10720193   0.754   6.641   5.346  0.8437 -1.4542 -0.7371
   84MOL   H10820194   0.914   6.706   5.321 -0.7669 -1.6587 -2.5078
   84MOL   H10920195   0.787   6.725   5.201  0.0282 -1.4303  0.9289
   84MOL   C11020196   0.807   7.049   5.617  0.2347 -0.6283  0.3019
   84MOL   C11120197   0.669   7.016   5.687 -0.2347  0.2311  0.0404
   84MOL   O11220198   0.708   7.000   5.823  0.0228  0.1393 -0.6831
   84MOL   C11320199   0.716   6.890   5.893 -0.7146  0.7747  0.3680
   84MOL   C11420200   0.767   6.908   6.031 -0.9824  0.8379  0.5300
   84MOL   O11520201   0.676   6.782   5.853  0.0810  0.5475 -0.0732
   84MOL   H11620202   0.881   6.971   5.635  1.9194  0.7554 -0.3982
   84MOL   H11720203   0.843   7.144   5.656  0.7933  0.6394 -3.0811
   84MOL   H11820204   0.620   6.930   5.642 -1.0955  0.1815  1.0534
   84MOL   H11920205   0.795   7.011   6.055 -0.6184  0.5530  1.3419
   84MOL   H12020206   0.858   6.849   6.048 -1.2793  0.7508  1.8523
   84MOL   H12120207   0.696   6.880   6.108 -0.6009 -0.7990  0.2964
   84MOL   C12220208   0.564   7.131   5.676 -0.2790  0.5412 -0.1561
   84MOL   C12320209   0.431   7.092   5.735  0.1214  0.4046  0.6316
   84MOL   O12420210   0.353   7.217   5.726  0.6372  0.2969  0.2173
   84MOL   C12520211   0.329   7.289   5.834 -0.1039 -0.5171  0.1250
   84MOL   C12620212   0.241   7.409   5.809 -0.3083  0.0765 -0.0169
   84MOL   O12720213   0.358   7.257   5.947 -0.3565  0.7308 -0.4326
   84MOL   H12820214   0.608   7.212   5.734 -0.3992  0.0844  0.5846
   84MOL   H12920215   0.563   7.168   5.574  1.0007  0.7664 -0.0853
   84MOL   H13020216   0.442   7.046   5.833 -0.2835  1.2202  1.0622
   84MOL   H13120217   0.273   7.506   5.849 -0.2276 -0.4257  1.1735
   84MOL   H13220218   0.141   7.395   5.850  0.0728 -1.2646  0.4937
   84MOL   H13320219   0.239   7.426   5.702  1.7937 -0.2674 -0.1299
   84MOL   C13420220   0.350   6.995   5.647  0.5328  0.9450  0.4872
   84MOL   C13520221   0.197   6.985   5.681 -0.4469  0.5424 -0.4129
   84MOL   O13620222   0.108   6.985   5.572  0.1394 -0.0952  0.6123
   84MOL   C13720223   0.066   7.104   5.525  0.2179 -1.4272  0.2075
   84MOL   C13820224   8.015   7.087   5.392  0.7210  0.3952  0.0853
   84MOL   O13920225   0.076   7.208   5.590 -0.0402  0.2068 -0.2818
   84MOL   H14020226   0.360   7.035   5.546 -0.4198  2.5339  1.0116
   84MOL   H14120227   0.399   6.898   5.654 -1.3350  0.0339  1.3378
   84MOL   H14220228   0.175   7.073   5.742  2.1514  1.4852 -0.7885
   84MOL   H14320229   0.033   7.138   5.305  1.0594  2.5816  1.4919
   84MOL   H14420230   7.918   7.136   5.398  0.2790 -0.3491 -0.9341
   84MOL   H14520231   7.996   6.987   5.353 -1.0051  0.7553 -0.0094
   84MOL   C14620232   0.171   6.865   5.783  0.6945 -0.7159 -0.0087
   84MOL   C14720233   0.046   6.873   5.875  0.4594 -0.8202  0.8271
   84MOL   O14820234   0.036   6.998   5.947 -0.1145  0.3333  0.1924
   84MOL   C14920235   0.080   7.012   6.066  0.6100  0.4679 -0.1625
   84MOL   C15020236   0.050   7.151   6.117 -0.1275  0.7326 -0.2015
   84MOL   O15120237   0.149   6.932   6.127  0.8199 -0.1117  0.3202
   84MOL   H15220238   0.171   6.769   5.733 -1.7344 -0.5894 -0.2989
   84MOL   H15320239   0.259   6.857   5.846  1.2746 -2.3927 -1.0030
   84MOL   H15420240   0.053   6.801   5.956  0.5084  0.3577  1.8903
   84MOL   H15520241   0.014   7.149   6.219 -1.0894  0.5610 -0.5375
   84MOL   H15620242   7.993   7.210   6.069  0.5671  2.1610  0.3928
   84MOL   H15720243   0.135   7.216   6.134  0.6120 -0.5422  1.0152
   84MOL   C15820244   7.929   6.856   5.811 -0.5992  0.7831 -0.3815
   84MOL   C15920245   7.908   6.710   5.743 -0.0553  0.1781 -0.6012
   84MOL   O16020246   7.802   6.649   5.802  0.3316  0.4226  0.1212
   84MOL   C16120247   7.815   6.549   5.899 -0.2462 -0.4961 -0.0745
   84MOL   C16220248   7.683   6.522   5.969 -0.0347 -0.3923 -0.2433
   84MOL   O16320249   7.924   6.500   5.936  0.9313 -0.0480  0.0752
   84MOL   H16420250   7.845   6.888   5.872 -0.1823  1.6830 -0.2696
   84MOL   H16520251   7.925   6.930   5.731 -1.5795 -0.9084 -1.9562
   84MOL   H16620252   7.994   6.647   5.767 -0.6086 -0.1295  0.5883
   84MOL   H16720253   7.608   6.498   5.894 -0.0541 -0.4527 -0.2034
   84MOL   H16820254   7.657   6.620   6.010 -0.5981 -0.1358 -1.1844
   84MOL   H16920255   7.677   6.446   6.046 -1.3580  1.2568  1.3401
   84MOL   C17020256   7.898   6.715   5.591  0.3738  0.2826 -0.6907
   84MOL   C17120257   7.940   6.582   5.529  0.1489 -0.5196  0.1461
   84MOL   O17220258   7.837   6.487   5.563 -0.5076 -0.5031 -0.8104
   84MOL   C17320259   7.877   6.373   5.634 -0.3537 -0.5564  0.2727
   84MOL   C17420260   7.765   6.282   5.677 -0.4980  1.1426  0.5400
   84MOL   O17520261   7.994   6.342   5.657  0.3193  0.2198 -0.1377
   84MOL   H17620262   7.801   6.749   5.554  0.7056  0.6493 -1.2422
   84MOL   H17720263   7.961   6.795   5.551 -0.2419  2.5568  2.6186
   84MOL   H17820264   0.021   6.558   5.558  0.4678  1.4420  0.7237
   84MOL   H17920265   7.701   6.328   5.753  1.0977  0.9869  2.0259
   84MOL   H18020266   7.800   6.190   5.724 -0.2785 -0.3040 -2.3460
   84MOL   H18120267   7.706   6.242   5.595  2.0664 -0.5794 -0.5232
   84MOL   C18220268   7.939   6.596   5.375 -0.5141 -0.2119  0.0911
   84MOL   C18320269   7.974   6.467   5.300  0.2708 -0.6829 -0.4186
   84MOL   O18420270   7.855   6.390   5.280 -0.5810 -0.3420  0.2045
   84MOL   C18520271   7.858   6.259   5.304  1.0448 -0.5471 -0.5187
   84MOL   C18620272   7.730   6.195   5.245  0.6039 -0.2090  0.0536
   84MOL   O18720273   7.954   6.195   5.348  0.5070 -0.3847 -0.2807
   84MOL   H18820274   7.853   6.652   5.337 -0.8859 -1.6472 -1.2405
   84MOL   H18920275   0.003   6.658   5.349  1.6347 -3.0850  0.0661
   84MOL   H19020276   0.016   6.410   5.368 -0.0020 -0.2698  0.1936
   84MOL   H19120277   7.680   6.148   5.329 -0.3866  0.9209  0.1100
   84MOL   H19220278   7.752   6.112   5.177  0.7448  0.3572 -0.6055
   84MOL   H19320279   7.668   6.269   5.194  1.0276 -0.3089 -0.6213
   84MOL   C19420280   0.016   6.487   5.164 -0.0195  0.7855  0.1982
   84MOL   C19520281   7.952   6.583   5.067 -0.2170  0.1700 -0.0158
   84MOL   O19620282   8.005   6.719   5.071 -0.0838  0.1465 -0.3184
   84MOL   C19720283   7.927   6.830   5.067  0.5266  0.2368  0.6785
   84MOL   C19820284   8.016   6.954   5.049 -0.2433 -0.1036 -0.2540
   84MOL   O19920285   7.804   6.840   5.066 -1.0347 -0.1109 -0.0005
   84MOL   H20020286   0.111   6.535   5.189 -0.1230  0.6208  0.9065
   84MOL   H20120287   0.043   6.394   5.114 -0.7648  0.8507 -0.3347
   84MOL   H20220288   7.850   6.577   5.106 -1.3801  1.8985 -2.7230
   84MOL   H20320289   0.016   6.983   4.946 -1.2258  2.2581  0.1723
   84MOL   H20420290   0.091   6.941   5.098  0.5228 -1.3939 -2.0235
   84MOL   H20520291   7.970   7.041   5.095 -0.3766  1.1187 -2.5866
   84MOL   C20620292   7.957   6.536   4.920 -0.1570  0.0003  0.0888
   84MOL   C20720293   7.862   6.608   4.831  0.9017  0.2642  0.2936
   84MOL   O20820294   7.881   6.552   4.703 -0.5930  0.1487 -0.2486
   84MOL   C20920295   7.960   6.615   4.609 -0.0938 -0.1017 -0.4864
   84MOL   C21020296   7.985   6.531   4.492 -0.2623 -0.3325  0.4387
   84MOL   O21120297   8.013   6.730   4.617 -0.2404  0.5177 -0.2085
   84MOL   H21220298   0.039   6.531   4.885 -0.1885 -3.1284  0.2897
   84MOL   H21320299   7.937   6.429   4.919  0.1580 -0.0541 -1.8961
   84MOL   H21420300   7.888   6.713   4.823  0.2108  0.3730 -0.6110
   84MOL   H21520301   7.938   6.578   4.405  1.0499  1.1863  0.5191
   84MOL   H21620302   7.954   6.428   4.509  1.6059 -0.9898  0.0410
   84MOL   H21720303   0.071   6.536   4.474 -0.2447 -2.0990 -0.0108
   84MOL   C21820304   7.713   6.587   4.876 -0.2954  0.4146 -0.6919
   84MOL   C21920305   7.612   6.668   4.786  0.2189 -0.1563  0.1293
   84MOL   O22020306   7.586   6.589   4.672 -0.1737 -0.2001  0.3704
   84MOL   C22120307   7.607   6.634   4.546  0.3246  0.0516 -0.4593
   84MOL   C22220308   7.562   6.525   4.447  0.2921 -0.5251 -0.1103
   84MOL   O22320309   7.618   6.750   4.507 -0.4146 -0.6879 -0.3474
   84MOL   H22420310   7.678   6.484   4.881  0.1679  0.3050  0.3233
   84MOL   H22520311   7.711   6.626   4.978 -1.3253 -2.8801  0.6174
   84MOL   H22620312   7.670   6.756   4.756 -1.3038  0.6663 -0.4960
   84MOL   H22720313   7.637   6.447   4.452  2.1069  1.3099  2.4376
   84MOL   H22820314   7.540   6.564   4.347 -1.3181 -0.6740  0.1623
   84MOL   H22920315   7.473   6.474   4.485 -1.4391  1.0502 -1.9270
   84MOL   C23020316   7.488   6.709   4.865  0.1475  0.2198  0.3763
   84MOL   C23120317   7.394   6.809   4.808 -0.5526  0.4404  0.4619
   84MOL   O23220318   7.269   6.806   4.872  0.1511  0.1469 -0.3597
   84MOL   C23320319   7.256   6.880   4.985 -0.4265 -0.5649 -0.0901
   84MOL   C23420320   7.127   6.864   5.060 -0.0785  0.0149  0.0532
   84MOL   O23520321   7.342   6.960   5.028 -0.0941 -0.2751  0.4695
   84MOL   H23620322   7.427   6.619   4.878  1.4728 -0.8746 -0.7856
   84MOL   H23720323   7.521   6.762   4.955 -1.6253  3.7704 -0.9746
   84MOL   H23820324   7.373   6.773   4.707 -0.1510  1.3392  0.0575
   84MOL   H23920325   7.138   6.791   5.141  3.6853  0.2309 -0.1826
   84MOL   H24020326   7.057   6.827   4.985  0.4431  0.2753 -0.5665
   84MOL   H24120327   7.089   6.960   5.093  0.2528  0.5270 -1.0375
   84MOL   H24220328   7.443   6.906   4.813  0.1778  0.0798  0.4169
   85MOL     C120329   0.737   2.134   1.498 -0.2663  0.2902 -0.5236
   85MOL     C220330   0.688   2.141   1.643  0.2934  0.9390 -0.1526
   85MOL     O320331   0.588   2.036   1.647 -0.6898 -0.4089 -0.1617
   85MOL     C420332   0.482   2.051   1.728 -0.7143  0.0309  0.1814
   85MOL     C520333   0.400   1.925   1.734 -0.0061  0.2066 -0.5463
   85MOL     O620334   0.449   2.155   1.796 -0.1309  0.5669 -0.4575
   85MOL     H720335   0.797   2.223   1.480  1.7458 -0.4641  2.0860
   85MOL     H820336   0.650   2.152   1.435 -0.9120 -1.5815 -0.2006
   85MOL     H920337   0.650   2.240   1.668 -0.5712  0.6059 -0.1430
   85MOL    H1020338   0.296   1.952   1.752 -0.5741 -2.4476  0.4598
   85MOL    H1120339   0.432   1.860   1.816 -2.0923 -0.5570 -0.3092
   85MOL    H1220340   0.399   1.865   1.643 -0.2941  0.2762 -0.5882
   85MOL    H1320341   0.797   2.050   1.463 -0.3561  0.1132 -0.2515
   85MOL    C1420342   0.803   2.099   1.732  0.1729  0.5804 -0.2359
   85MOL    C1520343   0.915   2.204   1.756  0.2673 -0.8227 -0.7631
   85MOL    O1620344   0.880   2.294   1.864 -0.3344 -0.4196  0.0220
   85MOL    C1720345   0.844   2.422   1.829 -0.0769  0.6609 -0.5770
   85MOL    C1820346   0.818   2.513   1.947 -0.6233 -0.8547 -0.7314
   85MOL    O1920347   0.836   2.465   1.714 -0.2317 -0.2834  0.3268
   85MOL    H2020348   0.760   2.077   1.830  2.3164  1.5863  0.9565
   85MOL    H2120349   0.838   2.003   1.693 -4.3717 -0.4643 -2.1643
   85MOL    H2220350   0.923   2.262   1.665  1.4135 -0.5919 -0.5195
   85MOL    H2320351   0.877   2.604   1.935 -0.1120 -1.0524  0.2312
   85MOL    H2420352   0.851   2.462   2.038 -0.7806 -0.0021 -0.1855
   85MOL    H2520353   0.714   2.546   1.942 -0.4212 -0.0361  0.2914
   85MOL    C2620354   1.055   2.141   1.773 -0.8693  0.0833 -0.3015
   85MOL    C2720355   1.173   2.233   1.820  0.2986  0.0585  0.2729
   85MOL    O2820356   1.194   2.223   1.962 -0.3904  0.1284 -0.0297
   85MOL    C2920357   1.172   2.322   2.053  0.4071 -0.2711 -0.1126
   85MOL    C3020358   1.208   2.278   2.189  0.2838 -0.1575  0.3110
   85MOL    O3120359   1.122   2.434   2.035  0.6086 -0.4022  0.0566
   85MOL    H3220360   1.053   2.067   1.853  0.4165  1.0627  0.6544
   85MOL    H3320361   1.076   2.087   1.681  0.2983  0.1630 -0.0864
   85MOL    H3420362   1.138   2.335   1.803 -2.4141 -1.0966 -1.5061
   85MOL    H3520363   1.310   2.239   2.187  0.5170  0.3910 -5.4390
   85MOL    H3620364   1.147   2.190   2.212  0.2151 -0.5711 -1.4397
   85MOL    H3720365   1.199   2.360   2.260  0.6136  1.0672 -1.0457
   85MOL    C3820366   1.307   2.216   1.743  0.1037 -0.2681  0.1022
   85MOL    C3920367   1.292   2.222   1.590  0.6339 -0.1359  0.3810
   85MOL    O4020368   1.227   2.350   1.572  0.0527  0.1734 -0.2769
   85MOL    C4120369   1.123   2.360   1.486  0.1418 -0.0349  0.7138
   85MOL    C4220370   1.077   2.502   1.457 -0.6511 -0.1718  0.1356
   85MOL    O4320371   1.065   2.263   1.438  0.3831  0.5514  0.2788
   85MOL    H4420372   1.369   2.299   1.776 -1.2992  1.9831 -2.6082
   85MOL    H4520373   1.356   2.124   1.774  1.5576 -0.0006 -1.3497
   85MOL    H4620374   1.232   2.142   1.548 -0.1665 -0.1353  1.5001
   85MOL    H4720375   1.016   2.523   1.544  0.2916 -2.0385  1.2762
   85MOL    H4820376   1.006   2.497   1.374 -1.1998 -3.1254  0.7250
   85MOL    H4920377   1.162   2.568   1.439 -0.1573 -1.3807 -2.2343
   85MOL    C5020378   1.434   2.244   1.523 -0.0718 -0.0793 -1.3170
   85MOL    C5120379   1.525   2.117   1.521 -0.3336  0.2428  0.4100
   85MOL    O5220380   1.471   2.019   1.432  0.1861 -0.1688 -0.0695
   85MOL    C5320381   1.397   1.918   1.485  0.7222  0.9262 -0.4085
   85MOL    C5420382   1.340   1.824   1.380 -0.7612  0.9104  0.4164
   85MOL    O5520383   1.377   1.896   1.605 -0.2219  0.1458  0.0090
   85MOL    H5620384   1.414   2.280   1.422 -2.1680 -2.3835 -1.7655
   85MOL    H5720385   1.488   2.326   1.571  0.2300 -1.8866  1.5236
   85MOL    H5820386   1.532   2.079   1.623 -0.6854  0.0867  0.3742
   85MOL    H5920387   1.336   1.721   1.417 -1.6319  1.2598  1.3240
   85MOL    H6020388   1.382   1.828   1.279 -1.0174  1.3636  0.3288
   85MOL    H6120389   1.233   1.845   1.379 -1.3171 -1.5719 -3.2999
   85MOL    C6220390   1.678   2.129   1.483 -0.3090  0.5654  0.9490
   85MOL    C6320391   1.703   2.197   1.347 -0.3389 -0.5190 -1.1015
   85MOL    O6420392   1.820   2.272   1.346 -0.1040  0.3659 -0.3147
   85MOL    C6520393   1.816   2.393   1.395  0.9763 -1.1228  0.2955
   85MOL    C6620394   1.935   2.484   1.362  0.1756  0.1140  0.2200
   85MOL    O6720395   1.718   2.444   1.449 -0.0649 -0.0104  0.0078
   85MOL    H6820396   1.736   2.177   1.562 -3.4944  0.1060  3.6716
   85MOL    H6920397   1.721   2.029   1.494 -0.6653 -0.0267 -2.5257
   85MOL    H7020398   1.618   2.259   1.316 -0.6479 -0.3939 -0.0555
   85MOL    H7120399   1.901   2.585   1.385  2.7945  1.1245 -0.2136
   85MOL    H7220400   1.970   2.470   1.260 -1.9181  1.6170 -0.7240
   85MOL    H7320401   2.016   2.456   1.430  0.8502 -1.2860 -1.1294
   85MOL    C7420402   1.712   2.103   1.225  0.6656  0.0536 -1.0811
   85MOL    C7520403   1.678   2.168   1.085  0.2285 -0.1708 -0.8806
   85MOL    O7620404   1.786   2.245   1.032  0.2126 -0.7720  0.4485
   85MOL    C7720405   1.778   2.377   1.011  0.0556  0.1995  0.3072
   85MOL    C7820406   1.909   2.437   0.961 -0.2523 -0.5623 -0.2255
   85MOL    O7920407   1.680   2.449   1.022  0.4057  0.6050 -0.7716
   85MOL    H8020408   1.812   2.063   1.214  0.9157  0.8001 -1.5371
   85MOL    H8120409   1.641   2.024   1.251 -0.1414  1.4797  1.2355
   85MOL    H8220410   1.593   2.235   1.096  1.8234  1.9370 -1.1389
   85MOL    H8320411   1.928   2.422   0.854 -0.1159  3.2050 -0.7883
   85MOL    H8420412   1.986   2.377   1.010  0.2049 -0.0725 -0.3371
   85MOL    H8520413   1.919   2.543   0.984 -0.5161 -0.4362 -0.6760
   85MOL    C8620414   1.649   2.043   0.990  0.3064  0.0812 -0.3654
   85MOL    C8720415   1.505   1.984   0.994  0.0484  0.3107  0.3178
   85MOL    O8820416   1.412   2.087   0.962  0.1134 -0.0346  0.2318
   85MOL    C8920417   1.343   2.152   1.064 -0.2237  0.0393 -0.3003
   85MOL    C9020418   1.254   2.250   1.000 -0.6987  0.8649 -0.6002
   85MOL    O9120419   1.351   2.137   1.189  0.6077 -0.9099 -0.4506
   85MOL    H9220420   1.665   2.080   0.889 -0.8837  0.3546 -0.4685
   85MOL    H9320421   1.722   1.967   1.018  1.0092  1.3345  1.2679
   85MOL    H9420422   1.479   1.955   1.096  1.3755 -2.5082 -0.0744
   85MOL    H9520423   1.196   2.209   0.917  0.4909 -0.0653 -0.9996
   85MOL    H9620424   1.318   2.331   0.965  3.1968 -0.9821  1.8165
   85MOL    H9720425   1.190   2.285   1.081 -2.3949  0.3121 -1.6883
   85MOL    C9820426   1.466   1.858   0.911 -0.0906  0.1867 -1.0414
   85MOL    C9920427   1.559   1.735   0.926 -0.0846 -0.3520 -0.0483
   85MOL   O10020428   1.688   1.775   0.884 -0.0081 -0.1577 -0.1407
   85MOL   C10120429   1.716   1.778   0.747 -0.4922 -0.2065 -0.1670
   85MOL   C10220430   1.858   1.796   0.715  0.8056 -0.1605 -0.2176
   85MOL   O10320431   1.641   1.752   0.655 -0.5075 -0.7331 -0.3043
   85MOL   H10420432   1.370   1.824   0.951 -0.0822 -0.9730 -1.9855
   85MOL   H10520433   1.450   1.893   0.809 -0.8678  2.8272 -0.0690
   85MOL   H10620434   1.513   1.657   0.865 -0.6343  1.2102 -1.6678
   85MOL   H10720435   1.898   1.723   0.644  2.3862  1.3805 -0.9364
   85MOL   H10820436   1.919   1.808   0.804  1.5771  2.1073 -1.0299
   85MOL   H10920437   1.871   1.890   0.660 -0.7646 -0.1450 -0.5921
   85MOL   C11020438   1.559   1.685   1.066  0.0475  0.9520  0.1359
   85MOL   C11120439   1.632   1.554   1.092  0.3855  0.1483 -0.1324
   85MOL   O11220440   1.769   1.572   1.070 -0.3670  0.3361 -0.4196
   85MOL   C11320441   1.838   1.509   0.971 -0.1813  0.1837  0.1000
   85MOL   C11420442   1.987   1.537   0.972  0.2164 -0.3914  0.2513
   85MOL   O11520443   1.788   1.429   0.891 -0.0919  0.3020 -0.2439
   85MOL   H11620444   1.599   1.758   1.137  0.2222 -0.7726  1.8561
   85MOL   H11720445   1.455   1.666   1.093  0.2723  1.3832  1.3686
   85MOL   H11820446   1.595   1.478   1.024  1.3516  0.7339 -1.3500
   85MOL   H11920447   2.045   1.448   0.946 -2.6657 -2.4779  0.8414
   85MOL   H12020448   2.021   1.569   1.070 -1.9643 -1.4705  1.3794
   85MOL   H12120449   2.006   1.618   0.901  1.3675 -1.2869 -0.4936
   85MOL   C12220450   1.617   1.510   1.242 -0.2235 -0.0110  0.0289
   85MOL   C12320451   1.682   1.368   1.274 -0.2359  0.2327 -0.2334
   85MOL   O12420452   1.693   1.346   1.417 -0.0824 -0.5512 -0.0298
   85MOL   C12520453   1.808   1.309   1.487  0.8045 -1.2259  0.6481
   85MOL   C12620454   1.779   1.293   1.640 -0.8348 -0.4170 -0.4301
   85MOL   O12720455   1.919   1.285   1.444  0.2245 -0.2815  0.1139
   85MOL   H12820456   1.661   1.581   1.312 -0.6081  0.8118 -0.5608
   85MOL   H12920457   1.513   1.511   1.276  0.0330  0.4197  0.7963
   85MOL   H13020458   1.785   1.365   1.237 -0.7696 -1.3533 -1.6622
   85MOL   H13120459   1.708   1.212   1.655 -0.6066 -0.1709  2.1015
   85MOL   H13220460   1.737   1.378   1.694 -1.3998 -2.3506  2.2671
   85MOL   H13320461   1.875   1.287   1.692 -0.3704 -2.3006 -1.4537
   85MOL   C13420462   1.577   1.265   1.217  0.3930 -0.1799  0.1778
   85MOL   C13520463   1.650   1.170   1.122  0.3745  0.4816 -0.0517
   85MOL   O13620464   1.748   1.093   1.188  0.3750 -0.2217  0.0519
   85MOL   C13720465   1.872   1.109   1.163  0.2773 -0.1394  0.2162
   85MOL   C13820466   1.958   1.014   1.245 -0.4546 -0.3323  0.4767
   85MOL   O13920467   1.929   1.199   1.100  0.1264 -0.2992 -0.3038
   85MOL   H14020468   1.541   1.196   1.294  0.0896 -0.2680 -0.0433
   85MOL   H14120469   1.485   1.307   1.176 -0.4521 -0.0219  2.1603
   85MOL   H14220470   1.692   1.231   1.041  0.5553 -1.2191 -1.2564
   85MOL   H14320471   1.893   0.963   1.317 -2.3824  0.6692 -0.5252
   85MOL   H14420472   2.040   1.069   1.292  0.7970  0.3827 -2.4233
   85MOL   H14520473   2.011   0.942   1.183 -0.3679  0.0769  0.0769
   85MOL   C14620474   1.565   1.066   1.042 -0.8738  0.1532  0.1703
   85MOL   C14720475   1.451   1.133   0.967 -0.4602  0.2446  0.1385
   85MOL   O14820476   1.496   1.234   0.867  0.2981  0.1646 -0.1996
   85MOL   C14920477   1.432   1.350   0.840 -0.7563 -0.5848  0.8676
   85MOL   C15020478   1.490   1.419   0.710  0.4079  0.1113  0.5378
   85MOL   O15120479   1.329   1.380   0.894 -0.4715 -0.0146 -0.2644
   85MOL   H15220480   1.641   1.018   0.981  0.7728  1.8374  0.8483
   85MOL   H15320481   1.518   1.002   1.117 -2.5093  0.8346 -0.2553
   85MOL   H15420482   1.376   1.182   1.029  0.7481  1.8462  0.3688
   85MOL   H15520483   1.435   1.396   0.619 -0.8336 -1.4441  1.6545
   85MOL   H15620484   1.591   1.385   0.686  0.9490  1.3555  1.0475
   85MOL   H15720485   1.482   1.527   0.712 -2.6945 -0.0071 -1.3608
   85MOL   C15820486   1.379   1.019   0.897  0.6660  0.3095 -0.1263
   85MOL   C15920487   1.254   1.062   0.822  0.7063  0.4593 -1.0667
   85MOL   O16020488   1.205   0.951   0.742  0.0874 -0.0586  0.1286
   85MOL   C16120489   1.188   0.959   0.609 -0.2848 -0.2283 -0.1201
   85MOL   C16220490   1.138   0.828   0.553 -0.0266 -0.0930  0.4011
   85MOL   O16320491   1.217   1.052   0.532 -0.3989 -0.2478 -0.5630
   85MOL   H16420492   1.451   0.970   0.831  0.3951 -0.2789  0.0092
   85MOL   H16520493   1.349   0.933   0.958  1.0518  0.1861 -0.1032
   85MOL   H16620494   1.286   1.145   0.759  3.5137 -1.2041 -1.9309
   85MOL   H16720495   1.110   0.821   0.448 -1.5329 -1.8466  0.8744
   85MOL   H16820496   1.049   0.802   0.612 -0.1116  1.3571  0.9178
   85MOL   H16920497   1.224   0.762   0.567 -0.0759 -0.6086 -1.5519
   85MOL   C17020498   1.142   1.123   0.906 -0.0378  0.1975  0.3255
   85MOL   C17120499   1.081   1.038   1.020 -0.9946  0.1986  0.5560
   85MOL   O17220500   1.170   1.015   1.132 -0.3365 -0.1613 -0.4256
   85MOL   C17320501   1.146   0.916   1.219  0.1824 -0.1448 -0.8189
   85MOL   C17420502   1.250   0.905   1.332 -0.1627  0.6234 -0.5271
   85MOL   O17520503   1.044   0.849   1.220 -0.5997 -0.1982 -0.5343
   85MOL   H17620504   1.185   1.218   0.939  0.7982  0.5780 -1.7656
   85MOL   H17720505   1.060   1.155   0.842 -0.9565  1.6348  2.1777
   85MOL   H17820506   1.048   0.942   0.979  1.6233 -1.3542  1.9305
   85MOL   H17920507   1.270   0.798   1.341 -2.6702  0.1115 -0.5570
   85MOL   H18020508   1.211   0.921   1.432  1.4478 -2.1186  0.5896
   85MOL   H18120509   1.346   0.956   1.326 -0.8001  1.7758 -1.1173
   85MOL   C18220510   0.955   1.117   1.070  0.3106  0.8259 -0.0661
   85MOL   C18320511   0.969   1.219   1.188 -0.2164  0.2230  0.0773
   85MOL   O18420512   1.005   1.347   1.139 -0.3602  0.7079 -0.5984
   85MOL   C18520513   1.110   1.407   1.198  0.7617 -1.0324 -0.0808
   85MOL   C18620514   1.156   1.538   1.129 -0.7868 -0.0625 -0.1011
   85MOL   O18720515   1.173   1.368   1.297  0.5563  0.3813  0.0594
   85MOL   H18820516   0.903   1.166   0.988 -1.4290 -0.6927  0.1047
   85MOL   H18920517   0.881   1.039   1.088 -0.5732  1.8253  0.7154
   85MOL   H19020518   1.043   1.176   1.256  0.0873  0.6878  0.0469
   85MOL   H19120519   1.261   1.561   1.150 -0.6540 -1.1865  0.5372
   85MOL   H19220520   1.089   1.616   1.163  0.1399  0.2056  1.1628
   85MOL   H19320521   1.144   1.530   1.021 -0.1933 -0.2489 -0.1556
   85MOL   C19420522   0.837   1.232   1.261  0.7298  0.0923  0.0162
   85MOL   C19520523   0.847   1.315   1.387 -0.2994  0.0250  0.8056
   85MOL   O19620524   0.716   1.391   1.393  0.2114 -0.0390 -0.2105
   85MOL   C19720525   0.716   1.523   1.383  0.6775 -0.9436 -0.0375
   85MOL   C19820526   0.598   1.591   1.461 -0.2508  0.1750 -0.4103
   85MOL   O19920527   0.807   1.588   1.329  0.4529  0.2144  0.1304
   85MOL   H20020528   0.765   1.281   1.195  0.0997 -0.8170  0.0218
   85MOL   H20120529   0.783   1.137   1.270  0.2960  0.2435 -0.8868
   85MOL   H20220530   0.938   1.374   1.390  0.3713 -0.8856 -1.1163
   85MOL   H20320531   0.506   1.545   1.428  0.4651  0.0757 -2.3091
   85MOL   H20420532   0.596   1.699   1.443  2.9433  0.3830  0.1340
   85MOL   H20520533   0.607   1.571   1.568  0.1806 -0.4941 -0.5643
   85MOL   C20620534   0.875   1.226   1.515  0.1628  0.1199  0.5519
   85MOL   C20720535   0.885   1.306   1.644  0.3324 -0.2421  0.0653
   85MOL   O20820536   0.861   1.228   1.761  0.2072 -0.2038  0.3361
   85MOL   C20920537   0.743   1.179   1.807 -0.2700 -0.1946 -0.3699
   85MOL   C21020538   0.766   1.073   1.917  0.6988  0.3552 -0.8104
   85MOL   O21120539   0.632   1.203   1.762 -0.4402 -0.0977  0.6813
   85MOL   H21220540   0.799   1.148   1.526  0.0734  0.4888  2.7950
   85MOL   H21320541   0.968   1.170   1.513 -0.0655 -0.3888  2.7819
   85MOL   H21420542   0.812   1.386   1.636  1.0779  0.3562 -0.8508
   85MOL   H21520543   0.691   0.994   1.908 -2.0999  2.7285  0.7105
   85MOL   H21620544   0.753   1.125   2.012 -0.3249 -0.7491 -0.3216
   85MOL   H21720545   0.862   1.025   1.902  0.3026 -0.1310 -1.8106
   85MOL   C21820546   1.032   1.365   1.647  0.4189 -0.0577  0.0867
   85MOL   C21920547   1.035   1.499   1.721  0.2183  0.4481  0.3922
   85MOL   O22020548   0.969   1.591   1.639  0.2033 -0.3692  0.1579
   85MOL   C22120549   1.001   1.723   1.633  0.4246 -0.0124 -0.6372
   85MOL   C22220550   0.937   1.792   1.515  0.6721 -0.3411  0.5331
   85MOL   O22320551   1.071   1.781   1.721 -0.4232 -0.4918  0.3020
   85MOL   H22420552   1.088   1.292   1.705 -0.1622 -1.5496 -1.1986
   85MOL   H22520553   1.075   1.371   1.547  1.6002 -0.4573  0.5629
   85MOL   H22620554   1.140   1.528   1.714  0.7740 -1.4869  0.6410
   85MOL   H22720555   1.003   1.878   1.505  1.4797 -0.9585  0.4712
   85MOL   H22820556   0.831   1.815   1.518  0.2395 -1.9380 -1.5688
   85MOL   H22920557   0.971   1.755   1.418  0.5143  1.0320 -0.0539
   85MOL   C23020558   0.994   1.500   1.874 -0.4097  0.6038  0.2416
   85MOL   C23120559   1.080   1.401   1.953 -0.0050  0.6443  0.9594
   85MOL   O23220560   1.048   1.397   2.088  0.3104  0.6735  0.0362
   85MOL   C23320561   1.058   1.279   2.146  0.4043 -0.0667  0.1639
   85MOL   C23420562   0.982   1.281   2.275 -0.4621 -0.5531 -0.4378
   85MOL   O23520563   1.101   1.173   2.098  0.0184 -1.0546 -1.0450
   85MOL   H23620564   1.004   1.588   1.937 -1.1106  0.2509  0.8524
   85MOL   H23720565   0.887   1.480   1.871 -0.6335  1.6160  1.2588
   85MOL   H23820566   1.185   1.432   1.946 -0.2271  0.7289 -2.4429
   85MOL   H23920567   0.877   1.290   2.247 -0.6588 -0.5179  0.2924
   85MOL   H24020568   1.025   1.363   2.334 -0.9219 -0.0527 -0.7922
   85MOL   H24120569   0.991   1.182   2.321  1.6246  0.7184  2.0170
   85MOL   H24220570   1.058   1.301   1.915  0.1202  0.8411  0.3698
   86MOL     C120571   3.577   2.317   3.644  0.0639 -0.0153 -0.7456
   86MOL     C220572   3.725   2.315   3.677  0.3739 -0.3952 -0.0177
   86MOL     O320573   3.743   2.433   3.754  0.5095  0.5115  0.1760
   86MOL     C420574   3.864   2.504   3.778  0.0287 -0.3368 -0.2948
   86MOL     C520575   3.844   2.637   3.862  0.0955  0.0875  0.7356
   86MOL     O620576   3.976   2.472   3.733  0.3356 -0.2786  0.5466
   86MOL     H720577   3.554   2.391   3.567 -2.0520 -2.3102 -2.3995
   86MOL     H820578   3.525   2.343   3.736  2.4458  0.4058  0.5261
   86MOL     H920579   3.784   2.330   3.587  0.6821 -0.0458  0.2429
   86MOL    H1020580   3.815   2.625   3.966  2.4140 -1.3852  1.2546
   86MOL    H1120581   3.771   2.694   3.806  0.4302  2.1612  2.3654
   86MOL    H1220582   3.937   2.692   3.854 -0.0464  0.0109 -1.8809
   86MOL    H1320583   3.545   2.221   3.603  1.3734 -0.2650 -1.1917
   86MOL    C1420584   3.769   2.185   3.754 -0.2014  0.2269 -0.5400
   86MOL    C1520585   3.922   2.154   3.771 -0.1883  0.6640  0.6861
   86MOL    O1620586   3.935   2.036   3.847  0.4627 -0.0291  0.0108
   86MOL    C1720587   4.001   2.035   3.966  0.0958 -0.7399  0.1387
   86MOL    C1820588   3.987   1.904   4.031  0.4401 -0.2996 -0.5531
   86MOL    O1920589   4.087   2.117   4.006 -0.2720  0.5432  0.2281
   86MOL    H2020590   3.729   2.184   3.855  2.0706 -1.4705  0.3653
   86MOL    H2120591   3.734   2.099   3.697  0.0037 -0.2136  0.0010
   86MOL    H2220592   3.970   2.239   3.820  1.1046  0.6004 -0.4141
   86MOL    H2320593   3.976   1.827   3.955 -0.6656 -0.7543  0.0498
   86MOL    H2420594   3.901   1.901   4.097  0.5425  0.4945 -0.3831
   86MOL    H2520595   4.069   1.878   4.099 -0.0753 -1.2495 -0.2899
   86MOL    C2620596   3.999   2.132   3.641 -0.2348  0.1974  0.6326
   86MOL    C2720597   4.151   2.115   3.649  0.6899  0.3024  0.5570
   86MOL    O2820598   4.189   2.084   3.511 -0.0326 -0.4594 -0.4537
   86MOL    C2920599   4.227   1.961   3.471  0.3353 -0.1355 -0.6160
   86MOL    C3020600   4.284   1.975   3.334  0.4104  0.3521  0.6827
   86MOL    O3120601   4.227   1.860   3.539 -0.1284  0.2611 -1.2015
   86MOL    H3220602   3.974   2.034   3.600 -0.1499 -0.0761  1.2338
   86MOL    H3320603   3.978   2.210   3.568  1.4424 -0.2694 -0.3885
   86MOL    H3420604   4.181   2.033   3.713  0.2639 -1.0455 -0.9502
   86MOL    H3520605   4.260   1.880   3.287  0.1741  1.4322 -1.4294
   86MOL    H3620606   4.392   1.991   3.336  0.2237  1.6724  0.3349
   86MOL    H3720607   4.244   2.063   3.284  0.2563 -0.1673 -0.1225
   86MOL    C3820608   4.214   2.246   3.701 -0.2497 -0.3519  0.4916
   86MOL    C3920609   4.350   2.218   3.760 -0.0161 -0.1065 -0.4584
   86MOL    O4020610   4.449   2.228   3.657  0.2462 -0.4867 -0.3686
   86MOL    C4120611   4.533   2.131   3.625 -0.2581 -0.2959 -0.5860
   86MOL    C4220612   4.611   2.148   3.489  0.3783 -0.3968  0.1369
   86MOL    O4320613   4.558   2.032   3.692 -0.2007  0.1642  0.0869
   86MOL    H4420614   4.229   2.310   3.613  2.2828 -1.1601  0.3058
   86MOL    H4520615   4.156   2.311   3.766  0.1977 -0.0517  0.5863
   86MOL    H4620616   4.362   2.125   3.816  0.5872  0.7338  0.8230
   86MOL    H4720617   4.534   2.168   3.414  0.1724  0.3069  0.5272
   86MOL    H4820618   4.666   2.062   3.452  0.4304 -0.0831 -0.5395
   86MOL    H4920619   4.679   2.233   3.494 -1.1634  0.9779 -1.2952
   86MOL    C5020620   4.365   2.328   3.863  0.2832  0.3155 -0.2667
   86MOL    C5120621   4.489   2.310   3.958  0.3422  0.2029 -0.1978
   86MOL    O5220622   4.479   2.431   4.042 -0.1951  0.1548 -0.1478
   86MOL    C5320623   4.594   2.501   4.069  0.5306 -0.3194  0.7756
   86MOL    C5420624   4.576   2.619   4.150 -0.0282 -0.4958  0.3279
   86MOL    O5520625   4.707   2.466   4.042 -0.3606 -0.2961 -0.4021
   86MOL    H5620626   4.380   2.425   3.816  3.1398 -0.3029 -0.7593
   86MOL    H5720627   4.278   2.328   3.928  0.0658  0.1360 -0.5607
   86MOL    H5820628   4.575   2.320   3.893 -1.5680  3.2264 -2.4434
   86MOL    H5920629   4.559   2.587   4.253 -1.5031  2.9034  1.1964
   86MOL    H6020630   4.494   2.680   4.111  1.0231  1.8065  1.6194
   86MOL    H6120631   4.663   2.684   4.150 -0.0844 -0.4204 -0.0147
   86MOL    C6220632   4.486   2.179   4.043  0.1216  0.0088 -0.3610
   86MOL    C6320633   4.592   2.172   4.162  0.0252 -0.3490 -0.0245
   86MOL    O6420634   4.526   2.221   4.283  0.6986  0.2949  0.3427
   86MOL    C6520635   4.592   2.295   4.369 -0.2556  0.1470 -1.1983
   86MOL    C6620636   4.516   2.331   4.496 -0.2412 -0.4440 -0.3036
   86MOL    O6720637   4.710   2.341   4.361 -0.4278 -0.6453  0.2125
   86MOL    H6820638   4.383   2.170   4.078  0.8220 -0.9673  1.5220
   86MOL    H6920639   4.509   2.102   3.970 -1.0181 -0.2315 -0.4730
   86MOL    H7020640   4.677   2.235   4.137 -0.6031  0.3860 -0.3649
   86MOL    H7120641   4.428   2.267   4.493 -0.3771 -0.2564 -0.3303
   86MOL    H7220642   4.505   2.439   4.507  1.4370  0.0635 -2.9756
   86MOL    H7320643   4.574   2.296   4.581 -1.2620  1.2850  1.1336
   86MOL    C7420644   4.624   2.023   4.193  0.3895 -0.9073  0.4540
   86MOL    C7520645   4.726   1.959   4.104  0.4580 -0.1850 -0.0959
   86MOL    O7620646   4.834   2.046   4.062 -0.1609  0.5451 -0.5709
   86MOL    C7720647   4.936   2.082   4.148 -0.1828 -0.3558  0.6224
   86MOL    C7820648   4.996   2.212   4.098 -0.3617 -0.0241 -0.3849
   86MOL    O7920649   4.972   2.023   4.249 -0.0440 -0.6831  0.5878
   86MOL    H8020650   4.660   2.026   4.295 -0.6916  0.4194  0.8182
   86MOL    H8120651   4.535   1.961   4.202 -0.3586  0.2642  1.3028
   86MOL    H8220652   4.693   1.952   4.001  0.2146 -2.2785  0.0872
   86MOL    H8320653   5.101   2.212   4.127 -0.3613 -0.9681 -0.3777
   86MOL    H8420654   4.948   2.288   4.161  2.3776  1.1943  0.2906
   86MOL    H8520655   4.989   2.225   3.990 -1.0534 -3.9076 -0.8754
   86MOL    C8620656   4.770   1.816   4.123 -0.4509 -0.5512 -0.1763
   86MOL    C8720657   4.657   1.714   4.105  0.7088 -0.2779  0.0869
   86MOL    O8820658   4.579   1.743   3.993 -0.5442  0.1601 -0.1215
   86MOL    C8920659   4.449   1.778   3.990  0.2259 -0.1292 -0.5819
   86MOL    C9020660   4.396   1.808   3.846 -0.5800  0.7934  0.8727
   86MOL    O9120661   4.371   1.769   4.088  0.1251  0.3135 -0.1217
   86MOL    H9220662   4.855   1.800   4.056 -0.4129  2.7335 -1.0033
   86MOL    H9320663   4.821   1.806   4.219 -2.3635  1.7241  1.1362
   86MOL    H9420664   4.603   1.724   4.199  0.4321 -0.8615 -0.0083
   86MOL    H9520665   4.470   1.796   3.768 -0.0874  0.7488  1.3428
   86MOL    H9620666   4.363   1.910   3.824 -1.0889  0.5115  0.3251
   86MOL    H9720667   4.317   1.734   3.830  0.1687  0.1761 -0.0124
   86MOL    C9820668   4.701   1.569   4.104  0.0949 -0.5367  0.2162
   86MOL    C9920669   4.594   1.463   4.145 -0.3585 -0.5304 -0.2352
   86MOL   O10020670   4.509   1.444   4.034 -0.1328  0.0577  0.3008
   86MOL   C10120671   4.373   1.442   4.041  0.1459 -0.0705  0.1640
   86MOL   C10220672   4.309   1.412   3.907  0.3491 -0.4747  0.1185
   86MOL   O10320673   4.306   1.444   4.145  0.3434  0.5343 -0.0747
   86MOL   H10420674   4.749   1.544   4.010  0.3607  1.7935 -0.3134
   86MOL   H10520675   4.778   1.557   4.181 -1.5693 -2.1322  1.6578
   86MOL   H10620676   4.534   1.502   4.227  0.5460 -0.0344  0.1935
   86MOL   H10720677   4.376   1.452   3.831  0.7790  0.8419  1.1599
   86MOL   H10820678   4.212   1.461   3.901  0.3507 -0.0999  2.7266
   86MOL   H10920679   4.287   1.305   3.913 -1.0315 -0.2883 -1.3527
   86MOL   C11020680   4.666   1.331   4.186  0.8322 -0.4066 -0.3020
   86MOL   C11120681   4.583   1.211   4.224 -0.2384  0.2518 -0.1597
   86MOL   O11220682   4.670   1.106   4.261 -0.3140 -1.1436  0.0378
   86MOL   C11320683   4.663   0.981   4.206 -0.9289 -0.5345 -0.2028
   86MOL   C11420684   4.768   0.883   4.254 -0.6613  0.4038  0.6605
   86MOL   O11520685   4.567   0.941   4.140  0.1316 -0.3283  0.3715
   86MOL   H11620686   4.746   1.302   4.117 -0.1559 -3.9352 -0.0600
   86MOL   H11720687   4.727   1.348   4.275 -1.1929  0.0782  1.0291
   86MOL   H11820688   4.523   1.183   4.137 -2.0801 -0.4248  1.2600
   86MOL   H11920689   4.826   0.846   4.170 -1.2558 -0.7538  0.7483
   86MOL   H12020690   4.725   0.795   4.302 -0.8197 -1.3149 -2.4802
   86MOL   H12120691   4.833   0.946   4.314  0.5977  1.0817 -1.3526
   86MOL   C12220692   4.493   1.238   4.346 -0.8486  0.0766 -0.0489
   86MOL   C12320693   4.404   1.121   4.373 -0.6440 -0.0433  0.2537
   86MOL   O12420694   4.330   1.135   4.492 -0.0594 -0.5068  0.1896
   86MOL   C12520695   4.389   1.080   4.602  0.9014 -0.6495  0.0534
   86MOL   C12620696   4.290   1.069   4.716  0.5641 -0.4566  0.3410
   86MOL   O12720697   4.495   1.023   4.608 -0.1682  0.1184 -0.3796
   86MOL   H12820698   4.562   1.247   4.430 -0.5533  0.1843 -0.3015
   86MOL   H12920699   4.442   1.335   4.340  0.0902  0.6418  0.9929
   86MOL   H13020700   4.470   1.033   4.371 -0.4730 -0.1029  4.1135
   86MOL   H13120701   4.262   0.966   4.737  3.2523 -1.4189 -0.5943
   86MOL   H13220702   4.209   1.137   4.689  2.8121  1.9093 -0.7797
   86MOL   H13320703   4.336   1.116   4.803  0.2346  0.3813  0.0693
   86MOL   C13420704   4.285   1.100   4.266  0.2975  0.2768  0.3448
   86MOL   C13520705   4.195   0.985   4.308  0.8901  0.2896  0.4737
   86MOL   O13620706   4.105   0.970   4.203 -0.6370  0.9711  0.3058
   86MOL   C13720707   3.973   0.954   4.237  0.2033  0.8916  0.6061
   86MOL   C13820708   3.887   0.955   4.114  0.6608  0.0161  0.0401
   86MOL   O13920709   3.933   0.929   4.352  0.1925 -0.2449  0.5893
   86MOL   H14020710   4.225   1.190   4.249 -1.2833 -0.5850  1.1462
   86MOL   H14120711   4.336   1.079   4.173  0.0341  0.2287  0.2089
   86MOL   H14220712   4.139   1.012   4.397 -3.6551  1.5736 -2.5592
   86MOL   H14320713   3.939   0.969   4.019 -1.1208  1.7978 -0.7139
   86MOL   H14420714   3.812   1.030   4.139  1.2244  0.0442  1.7426
   86MOL   H14520715   3.838   0.858   4.108 -1.0206  0.8156  0.6236
   86MOL   C14620716   4.274   0.845   4.324 -0.0200 -0.0609 -0.1021
   86MOL   C14720717   4.184   0.735   4.399 -0.2651 -0.3657 -0.3237
   86MOL   O14820718   4.239   0.613   4.374  0.0477 -0.1607  0.0788
   86MOL   C14920719   4.211   0.551   4.257  0.3064 -0.5805 -0.0954
   86MOL   C15020720   4.292   0.429   4.245  0.1553  0.2578 -0.2089
   86MOL   O15120721   4.138   0.575   4.160  0.1952 -0.0064 -0.2144
   86MOL   H15220722   4.296   0.804   4.226  0.5747  1.9723 -0.8461
   86MOL   H15320723   4.364   0.853   4.386  0.3759 -2.7274 -0.2964
   86MOL   H15420724   4.079   0.732   4.369  0.2455  1.7472 -2.5475
   86MOL   H15520725   4.270   0.359   4.325 -0.3674 -1.1184 -1.5207
   86MOL   H15620726   4.399   0.448   4.242  0.2909 -0.5903 -0.8514
   86MOL   H15720727   4.271   0.374   4.153 -1.1203 -0.8551  0.7246
   86MOL   C15820728   4.169   0.745   4.555 -0.6079 -0.1350  0.3237
   86MOL   C15920729   4.069   0.648   4.623 -0.1449 -0.5634  0.5516
   86MOL   O16020730   4.116   0.518   4.604 -0.1362  0.7621  0.1511
   86MOL   C16120731   4.031   0.416   4.598  0.0129 -0.0731 -0.1655
   86MOL   C16220732   4.108   0.288   4.559  1.1024  0.2459 -0.1678
   86MOL   O16320733   3.911   0.425   4.627 -0.0489  0.3043 -0.2975
   86MOL   H16420734   4.267   0.741   4.602 -0.3484  0.5350 -0.1400
   86MOL   H16520735   4.133   0.848   4.562  0.3726  0.1176  1.9028
   86MOL   H16620736   3.968   0.664   4.585 -0.4250 -0.3297  1.3807
   86MOL   H16720737   4.111   0.221   4.645  1.4790  0.4198 -0.0444
   86MOL   H16820738   4.212   0.318   4.547  1.5463 -1.2037 -0.1066
   86MOL   H16920739   4.073   0.242   4.467 -2.3888 -1.0761  1.7155
   86MOL   C17020740   4.060   0.687   4.771 -0.5995  0.1890 -0.2493
   86MOL   C17120741   3.915   0.723   4.819  0.1498 -0.3708  0.6887
   86MOL   O17220742   3.908   0.715   4.963 -0.1900  0.5665  0.4919
   86MOL   C17320743   3.872   0.606   5.028 -0.3428 -0.0273 -0.4773
   86MOL   C17420744   3.863   0.620   5.182 -0.5400  0.2009 -0.2279
   86MOL   O17520745   3.844   0.498   4.976  0.1528  0.3173 -0.7760
   86MOL   H17620746   4.097   0.608   4.837 -1.4434 -0.8122 -0.9631
   86MOL   H17720747   4.126   0.770   4.796 -0.1608 -0.1691 -0.2040
   86MOL   H17820748   3.838   0.652   4.789  0.6283 -0.9483  0.8187
   86MOL   H17920749   3.963   0.617   5.226 -0.6560 -0.9797 -0.0481
   86MOL   H18020750   3.814   0.536   5.230 -0.2520 -0.0673 -0.4043
   86MOL   H18120751   3.813   0.713   5.210 -0.4385  0.4922 -0.9886
   86MOL   C18220752   3.878   0.870   4.785 -0.3061  0.0704 -0.1461
   86MOL   C18320753   3.734   0.919   4.814  0.2203  0.4327 -0.5721
   86MOL   O18420754   3.748   1.055   4.785 -0.6976  0.4278 -0.1815
   86MOL   C18520755   3.655   1.139   4.832  0.6996  0.7043 -0.3110
   86MOL   C18620756   3.689   1.281   4.800  0.5324  0.8027 -0.1759
   86MOL   O18720757   3.558   1.107   4.901 -0.4369 -0.1929  0.0351
   86MOL   H18820758   3.950   0.941   4.826  0.5001 -0.7752 -0.0672
   86MOL   H18920759   3.898   0.870   4.678 -1.9195 -0.5930 -0.4700
   86MOL   H19020760   3.703   0.893   4.916 -1.9093 -3.0406 -2.0183
   86MOL   H19120761   3.605   1.326   4.747  0.6122 -1.5580 -2.4360
   86MOL   H19220762   3.787   1.300   4.755  0.7401 -0.8185 -0.4649
   86MOL   H19320763   3.693   1.338   4.892  0.1389 -2.0126  1.6694
   86MOL   C19420764   3.623   0.850   4.722 -0.1053  0.5041  0.9590
   86MOL   C19520765   3.543   0.743   4.797 -0.1956 -0.3595 -0.3530
   86MOL   O19620766   3.463   0.813   4.893 -0.0281 -0.3222 -0.2734
   86MOL   C19720767   3.451   0.769   5.014  0.4768  0.2367 -0.5415
   86MOL   C19820768   3.362   0.848   5.109 -0.6230 -0.5406 -0.0616
   86MOL   O19920769   3.505   0.666   5.051 -0.9463 -0.0700  0.8641
   86MOL   H20020770   3.552   0.925   4.686  0.7002  0.1373 -1.4714
   86MOL   H20120771   3.666   0.812   4.629 -3.1818 -2.3397  0.6092
   86MOL   H20220772   3.621   0.689   4.850  0.2142  0.1644 -0.4101
   86MOL   H20320773   3.421   0.874   5.196  0.1332 -0.1200 -0.6957
   86MOL   H20420774   3.280   0.779   5.131 -2.2481  1.5492  0.6244
   86MOL   H20520775   3.330   0.939   5.059 -2.1380 -2.5173 -2.8426
   86MOL   C20620776   3.455   0.642   4.715 -0.2243 -0.1908  0.2461
   86MOL   C20720777   3.528   0.516   4.656  0.2603  0.2109 -0.3815
   86MOL   O20820778   3.638   0.557   4.580  0.0940 -0.4221 -0.1880
   86MOL   C20920779   3.623   0.606   4.451 -0.1578  0.0278  0.3059
   86MOL   C21020780   3.753   0.647   4.387  0.5755  0.4504  0.5241
   86MOL   O21120781   3.517   0.621   4.393 -0.1782 -0.2182 -0.1383
   86MOL   H21220782   3.385   0.600   4.787  2.6815 -1.1808  2.6059
   86MOL   H21320783   3.395   0.700   4.645  0.7339  1.2130  0.5636
   86MOL   H21420784   3.467   0.460   4.585 -0.7806  0.2370  0.4982
   86MOL   H21520785   3.826   0.568   4.404  2.8494  2.1098 -1.1061
   86MOL   H21620786   3.774   0.743   4.435  0.5809  0.2402  0.9425
   86MOL   H21720787   3.736   0.664   4.281  2.0744 -0.5359  0.0993
   86MOL   C21820788   3.587   0.428   4.778  0.3041 -0.5467 -0.4154
   86MOL   C21920789   3.505   0.310   4.849 -0.2332 -0.5904  0.3944
   86MOL   O22020790   3.412   0.372   4.940 -0.2011  0.3449 -0.1319
   86MOL   C22120791   3.413   0.341   5.070 -0.1842  0.2219  0.4374
   86MOL   C22220792   3.301   0.398   5.151  0.3860  0.4388  0.6201
   86MOL   O22320793   3.499   0.277   5.129  0.1787  0.2249 -0.5555
   86MOL   H22420794   3.664   0.361   4.741  0.7355 -0.8791  1.0549
   86MOL   H22520795   3.632   0.492   4.853 -2.0613  2.0987 -1.1624
   86MOL   H22620796   3.573   0.246   4.905  0.6966  2.2009  2.6193
   86MOL   H22720797   3.302   0.506   5.139  4.5993  0.2533 -1.6342
   86MOL   H22820798   3.309   0.373   5.257  0.1484  2.8940  1.2389
   86MOL   H22920799   3.212   0.343   5.117  0.7399  0.5377 -0.4901
   86MOL   C23020800   3.433   0.215   4.754 -0.0741 -0.0297 -1.6338
   86MOL   C23120801   3.365   0.100   4.834 -0.0947  0.6903  0.5018
   86MOL   O23220802   3.445   0.028   4.922  0.6845 -0.2093  0.7118
   86MOL   C23320803   3.484   7.927   4.892 -0.2239  0.2225  0.1620
   86MOL   C23420804   3.553   7.862   5.006 -0.0619  0.8082 -0.1689
   86MOL   O23520805   3.466   7.863   4.793  0.5690  0.1214 -0.8272
   86MOL   H23620806   3.365   0.271   4.689 -3.5490 -1.9696  0.2118
   86MOL   H23720807   3.502   0.167   4.684 -0.2882 -0.9557 -1.2126
   86MOL   H23820808   3.328   0.034   4.757  1.0466 -0.7309  1.1385
   86MOL   H23920809   3.498   7.808   5.083 -0.5420  2.4617  0.6856
   86MOL   H24020810   3.602   7.944   5.060  1.0152  0.5335 -0.7142
   86MOL   H24120811   3.639   7.801   4.980 -0.7183 -0.2185  0.0527
   86MOL   H24220812   3.285   0.134   4.899  0.5904  0.0676  1.6978
   87MOL     C120813   1.260   5.468   7.073 -0.5780 -0.7031 -0.2652
   87MOL     C220814   1.352   5.378   7.166  0.1547  0.0811 -0.3654
   87MOL     O320815   1.462   5.333   7.087  0.7609  0.0550  0.5775
   87MOL     C420816   1.494   5.202   7.086 -0.2382 -0.4972  0.4548
   87MOL     C520817   1.615   5.172   7.006 -0.3066  0.2116  0.7770
   87MOL     O620818   1.437   5.112   7.142 -0.1093  0.6179  0.5620
   87MOL     H720819   1.177   5.515   7.125  0.2141  0.7716 -0.3101
   87MOL     H820820   1.222   5.396   7.001  1.2194 -1.8767 -0.0832
   87MOL     H920821   1.286   5.298   7.201 -0.8158  0.4107 -1.3829
   87MOL    H1020822   1.615   5.222   6.909 -0.2662 -1.1135  0.0804
   87MOL    H1120823   1.633   5.065   6.994  3.0008  0.8464 -0.5724
   87MOL    H1220824   1.702   5.199   7.067  0.9882  1.6516 -1.6248
   87MOL    H1320825   1.313   5.539   7.009 -0.7773  0.3090  0.6640
   87MOL    C1420826   1.397   5.462   7.290  1.1792  0.1718  0.3975
   87MOL    C1520827   1.498   5.401   7.383 -0.3636 -0.1118  0.0116
   87MOL    O1620828   1.563   5.500   7.465 -0.2326 -0.6649 -0.3217
   87MOL    C1720829   1.670   5.562   7.422  0.3278  0.0047 -0.5962
   87MOL    C1820830   1.713   5.668   7.521 -0.5645  0.2674 -0.3048
   87MOL    O1920831   1.737   5.546   7.321 -0.1528  0.2058  0.0284
   87MOL    H2020832   1.429   5.554   7.240  0.0393  1.2980  1.6722
   87MOL    H2120833   1.314   5.483   7.358  0.4494 -0.7101 -0.2084
   87MOL    H2220834   1.579   5.364   7.320 -0.4152 -0.6135  0.2441
   87MOL    H2320835   1.705   5.637   7.625  0.4605 -1.3787 -0.6948
   87MOL    H2420836   1.649   5.755   7.514 -2.1110 -0.8149  0.1406
   87MOL    H2520837   1.815   5.699   7.496 -0.7325  0.7464 -0.3956
   87MOL    C2620838   1.437   5.292   7.477  0.1468 -0.2781  0.4009
   87MOL    C2720839   1.548   5.203   7.544 -0.0985 -0.0426 -0.4207
   87MOL    O2820840   1.475   5.124   7.643 -0.1039 -0.4933  0.2524
   87MOL    C2920841   1.444   5.166   7.759 -1.0494  0.9840 -0.4629
   87MOL    C3020842   1.367   5.057   7.831  0.2864 -0.7151 -0.8311
   87MOL    O3120843   1.456   5.278   7.811 -0.4038 -1.4792 -0.8941
   87MOL    H3220844   1.379   5.343   7.554  1.2753 -0.7608  1.5918
   87MOL    H3320845   1.363   5.238   7.418  1.2887  0.4684 -1.7693
   87MOL    H3420846   1.618   5.267   7.598  0.3297 -0.1305 -0.8688
   87MOL    H3520847   1.270   5.093   7.864  1.0690  1.5723 -0.9187
   87MOL    H3620848   1.411   5.027   7.926 -1.0244  0.3362  0.1396
   87MOL    H3720849   1.366   4.965   7.772 -1.3925 -0.7824 -0.7240
   87MOL    C3820850   1.625   5.102   7.460 -0.1578  0.3805 -0.9576
   87MOL    C3920851   1.753   5.031   7.523 -0.3768 -0.2270  0.0755
   87MOL    O4020852   1.697   4.942   7.616 -0.2709  0.7673 -0.2889
   87MOL    C4120853   1.753   4.941   7.736 -0.5780  0.2501 -0.4252
   87MOL    C4220854   1.672   4.870   7.848 -0.4116 -0.2456 -0.0215
   87MOL    O4320855   1.863   4.984   7.764 -0.4882 -0.0864  0.3874
   87MOL    H4420856   1.558   5.021   7.430  1.2922 -0.3108 -2.3960
   87MOL    H4520857   1.646   5.154   7.366  1.2947  0.7724 -0.4334
   87MOL    H4620858   1.808   5.116   7.562 -1.5901  2.1644 -3.1933
   87MOL    H4720859   1.652   4.765   7.824 -0.7542 -0.1232 -0.2741
   87MOL    H4820860   1.584   4.926   7.880  1.9732  1.9278  3.1348
   87MOL    H4920861   1.736   4.876   7.937  0.8276 -1.7808 -0.7785
   87MOL    C5020862   1.845   4.957   7.421  0.0630  0.0303 -0.0437
   87MOL    C5120863   1.917   5.046   7.314 -0.4408 -0.0036 -0.0101
   87MOL    O5220864   2.003   5.136   7.381  0.1206 -0.0579 -0.1545
   87MOL    C5320865   1.997   5.273   7.370 -0.0978  0.2166  0.9094
   87MOL    C5420866   2.064   5.348   7.482 -0.1733  0.4022  0.5117
   87MOL    O5520867   1.942   5.333   7.276  0.0812  0.6456  0.1455
   87MOL    H5620868   1.919   4.895   7.471  2.1596  1.1499 -1.6677
   87MOL    H5720869   1.784   4.882   7.371  0.0834  0.2710 -0.4319
   87MOL    H5820870   1.849   5.102   7.249  1.1132 -0.6676 -2.2552
   87MOL    H5920871   2.008   5.340   7.576 -0.6584  0.3682  0.2221
   87MOL    H6020872   2.089   5.453   7.466  0.7135  0.1808  0.4214
   87MOL    H6120873   2.157   5.292   7.480 -0.3196  0.2064 -1.6349
   87MOL    C6220874   2.005   4.961   7.219 -0.0165  0.8388 -0.6771
   87MOL    C6320875   2.081   5.040   7.105  0.1822 -0.2839 -0.5363
   87MOL    O6420876   2.195   4.958   7.061 -0.0007 -0.0449  0.1626
   87MOL    C6520877   2.319   5.005   7.040  0.1879 -0.2247 -1.1342
   87MOL    C6620878   2.409   4.895   6.994  0.0784 -0.5413  0.4304
   87MOL    O6720879   2.356   5.122   7.063  0.5842 -0.0836 -0.5241
   87MOL    H6820880   2.085   4.918   7.280  0.8286  0.9287 -1.6942
   87MOL    H6920881   1.956   4.874   7.175  0.0346  0.5433 -0.1611
   87MOL    H7020882   2.122   5.130   7.150  0.9105 -0.2756 -1.2101
   87MOL    H7120883   2.499   4.887   7.055  0.8508 -0.0977 -0.6426
   87MOL    H7220884   2.444   4.900   6.891  1.2816 -0.1067  0.8481
   87MOL    H7320885   2.352   4.805   7.015 -0.7994 -0.0270  0.2908
   87MOL    C7420886   1.995   5.069   6.984 -0.0118 -0.3061 -0.5730
   87MOL    C7520887   2.062   5.104   6.855 -0.8921  0.1846 -0.6188
   87MOL    O7620888   1.962   5.113   6.758 -0.3809 -0.0093 -0.1865
   87MOL    C7720889   1.935   5.014   6.671  0.9154 -0.5848 -0.2384
   87MOL    C7820890   1.822   5.049   6.586 -0.5542  0.2073  0.2506
   87MOL    O7920891   1.995   4.903   6.659 -0.2096 -0.4785  1.2100
   87MOL    H8020892   1.930   4.983   6.968 -0.8208  0.3048 -0.6287
   87MOL    H8120893   1.920   5.143   7.014 -0.1777 -1.0781  0.9905
   87MOL    H8220894   2.142   5.037   6.826 -0.9418 -0.8907  1.6090
   87MOL    H8320895   1.843   5.108   6.497 -2.0522  1.4632  0.7216
   87MOL    H8420896   1.740   5.103   6.633 -1.8484 -0.3072 -1.3787
   87MOL    H8520897   1.762   4.967   6.546  2.6402 -3.2426  2.1628
   87MOL    C8620898   2.122   5.242   6.852  0.2161  0.0365  0.3728
   87MOL    C8720899   2.204   5.285   6.729 -0.3538  0.2437 -0.4084
   87MOL    O8820900   2.117   5.315   6.622  0.2849  0.2102 -0.4277
   87MOL    C8920901   2.144   5.270   6.497  0.2103 -0.8217  0.3560
   87MOL    C9020902   2.039   5.307   6.381  0.4695 -0.3849 -0.1235
   87MOL    O9120903   2.252   5.218   6.463 -0.0256 -0.8474 -0.0913
   87MOL    H9220904   2.041   5.314   6.869  0.9597  0.9890 -0.1052
   87MOL    H9320905   2.178   5.265   6.942 -0.4882  1.4243  0.4855
   87MOL    H9420906   2.262   5.196   6.704  1.5417  0.6514  2.3238
   87MOL    H9520907   1.936   5.320   6.415  0.0737 -0.8577 -1.1380
   87MOL    H9620908   2.042   5.226   6.309  2.2329  0.2252 -0.7611
   87MOL    H9720909   2.074   5.398   6.332  2.8647 -0.6772  0.9787
   87MOL    C9820910   2.284   5.417   6.746  0.0956 -0.0536  1.0478
   87MOL    C9920911   2.420   5.407   6.827  0.1192  0.7181  0.7347
   87MOL   O10020912   2.528   5.350   6.748 -0.2925 -0.2324  0.0952
   87MOL   C10120913   2.542   5.215   6.738  0.6707  0.0426  1.1071
   87MOL   C10220914   2.666   5.180   6.657  0.6495  0.2350  0.5723
   87MOL   O10320915   2.468   5.133   6.792 -0.4134  0.2566  0.2669
   87MOL   H10420916   2.308   5.448   6.644 -0.7476  0.5768  1.0281
   87MOL   H10520917   2.213   5.487   6.791  2.9912  2.1594  2.3003
   87MOL   H10620918   2.414   5.333   6.907  1.1006 -1.7128 -1.3428
   87MOL   H10720919   2.666   5.076   6.622 -0.4879 -0.9006  3.7319
   87MOL   H10820920   2.747   5.190   6.729 -0.2689  1.6243  1.4341
   87MOL   H10920921   2.681   5.249   6.575 -0.6055  1.0666  1.0361
   87MOL   C11020922   2.475   5.546   6.862  0.3579  0.4846  0.2120
   87MOL   C11120923   2.397   5.615   6.980  0.5686 -0.2301  0.2867
   87MOL   O11220924   2.409   5.526   7.090 -0.0568 -0.5215  0.0096
   87MOL   C11320925   2.301   5.470   7.149  0.1760  0.2701 -0.1957
   87MOL   C11420926   2.334   5.388   7.267  0.3529  0.4227 -0.3135
   87MOL   O11520927   2.186   5.477   7.106  0.1838  0.1301  0.0297
   87MOL   H11620928   2.579   5.528   6.887 -0.2934 -3.1104  0.5821
   87MOL   H11720929   2.470   5.616   6.779 -1.3007  0.7689  0.5308
   87MOL   H11820930   2.294   5.631   6.950  0.7112  0.8016  0.3408
   87MOL   H11920931   2.436   5.349   7.269 -0.1153 -0.9066 -1.6477
   87MOL   H12020932   2.273   5.299   7.274 -0.1410  0.6477 -1.6611
   87MOL   H12120933   2.311   5.437   7.362  2.4124 -1.2301  1.1021
   87MOL   C12220934   2.460   5.743   7.027 -0.0946 -0.7978  0.9923
   87MOL   C12320935   2.364   5.847   7.085  0.4520  0.2380  0.3060
   87MOL   O12420936   2.320   5.797   7.215 -0.4190  0.3373 -0.1982
   87MOL   C12520937   2.195   5.782   7.248  0.6165  0.1375 -0.0274
   87MOL   C12620938   2.183   5.717   7.389  0.1076  0.1573  1.1657
   87MOL   O12720939   2.096   5.820   7.182  0.4450 -0.7167 -0.0342
   87MOL   H12820940   2.554   5.739   7.083 -0.7401 -0.9667  2.0785
   87MOL   H12920941   2.487   5.788   6.931  0.8790  0.2019  1.7230
   87MOL   H13020942   2.288   5.868   7.010 -0.7880 -1.0384  1.1882
   87MOL   H13120943   2.138   5.786   7.461 -0.1010 -1.0239  2.1791
   87MOL   H13220944   2.280   5.684   7.425  1.8654  1.9836 -1.7153
   87MOL   H13320945   2.102   5.644   7.382 -0.8231  1.1597  1.2022
   87MOL   C13420946   2.440   5.977   7.102 -0.3078  0.3640 -0.1563
   87MOL   C13520947   2.355   6.092   7.157 -0.5217  0.7156 -0.3128
   87MOL   O13620948   2.439   6.197   7.193  0.0462  0.1365 -0.2329
   87MOL   C13720949   2.414   6.268   7.299 -0.1764 -0.0318 -0.7589
   87MOL   C13820950   2.515   6.378   7.323 -0.0376 -0.2985  0.3704
   87MOL   O13920951   2.313   6.258   7.373  0.8487  0.0099  0.4479
   87MOL   H14020952   2.524   5.968   7.171 -1.1866 -3.1304  0.5440
   87MOL   H14120953   2.479   6.018   7.008 -0.1460  0.7701  0.0858
   87MOL   H14220954   2.309   6.055   7.249 -0.1754 -0.9412 -0.7807
   87MOL   H14320955   2.491   6.413   7.423  1.1908  2.4438 -0.2270
   87MOL   H14420956   2.506   6.470   7.264  4.0336  0.3609  0.6375
   87MOL   H14520957   2.615   6.335   7.312  0.9567  2.3435 -1.6966
   87MOL   C14620958   2.244   6.134   7.064  0.2384 -0.5172  0.0661
   87MOL   C14720959   2.289   6.174   6.920 -0.3609 -0.4076 -0.4831
   87MOL   O14820960   2.170   6.179   6.835  0.1979 -0.2658 -0.0396
   87MOL   C14920961   2.138   6.075   6.754  0.2651  0.3403 -0.0394
   87MOL   C15020962   2.008   6.082   6.687  0.2462 -0.4310  0.2006
   87MOL   O15120963   2.203   5.974   6.749 -0.1325  0.3026 -0.7779
   87MOL   H15220964   2.180   6.045   7.055  0.5471 -0.7299 -0.0382
   87MOL   H15320965   2.176   6.212   7.096  0.6381 -0.7026  1.3990
   87MOL   H15420966   2.364   6.105   6.882  2.4503  1.4112  1.5531
   87MOL   H15520967   2.001   6.179   6.637  0.6427  0.5922  2.0491
   87MOL   H15620968   1.929   6.059   6.758  0.5499 -0.9886  0.3646
   87MOL   H15720969   2.014   6.009   6.607 -0.1806  1.0308 -1.1949
   87MOL   C15820970   2.370   6.305   6.912 -0.3588 -0.1859 -0.3141
   87MOL   C15920971   2.415   6.372   6.778  0.5179 -0.4218  0.1178
   87MOL   O16020972   2.447   6.508   6.803  0.2919 -0.3236 -0.1743
   87MOL   C16120973   2.352   6.606   6.784 -0.1770  1.5662  0.4384
   87MOL   C16220974   2.407   6.727   6.842  0.1146 -0.2288  0.0000
   87MOL   O16320975   2.236   6.594   6.733  0.8343 -0.6266  0.2985
   87MOL   H16420976   2.311   6.385   6.956  0.3133  0.8044 -1.1798
   87MOL   H16520977   2.456   6.302   6.979 -2.3314 -1.5275  2.1739
   87MOL   H16620978   2.328   6.375   6.712  1.6791  1.2272 -1.3777
   87MOL   H16720979   2.408   6.714   6.950 -4.3293 -0.4940  0.0753
   87MOL   H16820980   2.355   6.819   6.818 -0.6119 -0.8241 -0.7006
   87MOL   H16920981   2.512   6.736   6.811 -0.7077  1.2390 -2.4517
   87MOL   C17020982   2.536   6.313   6.712  0.3940  0.6651 -0.3963
   87MOL   C17120983   2.566   6.380   6.576  0.3054 -0.8706  0.0589
   87MOL   O17220984   2.682   6.468   6.598  0.4855  0.3137 -0.2544
   87MOL   C17320985   2.676   6.608   6.574 -0.2622  0.9493 -0.1767
   87MOL   C17420986   2.812   6.672   6.581 -0.3440  0.5534  0.8144
   87MOL   O17520987   2.569   6.668   6.556 -0.5799  0.1876  0.2117
   87MOL   H17620988   2.630   6.312   6.767  0.1624  1.7745  0.0289
   87MOL   H17720989   2.518   6.208   6.692 -0.4272  0.8302 -0.5533
   87MOL   H17820990   2.481   6.440   6.545 -0.4161 -2.7223 -1.6876
   87MOL   H17920991   2.827   6.688   6.688  1.0511 -2.1646  1.0570
   87MOL   H18020992   2.804   6.765   6.524 -2.0438  0.4646  0.8648
   87MOL   H18120993   2.897   6.613   6.548  0.6322  2.3658  0.0013
   87MOL   C18220994   2.588   6.272   6.461  0.0381 -0.5664  0.1877
   87MOL   C18320995   2.458   6.216   6.412 -0.3423 -0.1352 -0.0298
   87MOL   O18420996   2.381   6.319   6.363  0.5952  0.1235 -0.3728
   87MOL   C18520997   2.244   6.327   6.378  0.5580  0.4187  0.1199
   87MOL   C18620998   2.179   6.447   6.301 -0.3641  0.2992 -0.2624
   87MOL   O18720999   2.173   6.245   6.442 -0.4558  0.2675  0.5868
   87MOL   H18821000   2.629   6.316   6.370 -2.3172  2.3194  0.4277
   87MOL   H18921001   2.656   6.202   6.511  1.3747  1.9386  2.0431
   87MOL   H19021002   2.408   6.159   6.491  1.7180  0.6621  1.9010
   87MOL   H19121003   2.151   6.531   6.365 -0.6456 -0.8692  1.1855
   87MOL   H19221004   2.100   6.403   6.239 -0.4696 -0.3398  0.3215
   87MOL   H19321005   2.257   6.479   6.232  0.7334 -0.6004  0.5357
   87MOL   C19421006   2.490   6.115   6.298 -0.2747  0.1971 -0.2962
   87MOL   C19521007   2.369   6.034   6.258  0.0965  0.0914  0.1280
   87MOL   O19621008   2.394   5.986   6.124 -0.1099 -0.2229  0.2240
   87MOL   C19721009   2.354   6.063   6.013 -0.6372 -0.3026  0.1231
   87MOL   C19821010   2.402   5.992   5.886 -0.3380 -0.5978  0.4438
   87MOL   O19921011   2.308   6.176   6.015 -0.1293 -0.1669 -0.5241
   87MOL   H20021012   2.528   6.165   6.209  0.6538  0.3374  0.1714
   87MOL   H20121013   2.570   6.049   6.335  0.9348  1.5006 -0.5442
   87MOL   H20221014   2.286   6.104   6.255  0.7446  0.8127 -1.5566
   87MOL   H20321015   2.309   5.957   5.841 -0.5262  1.3734 -0.7479
   87MOL   H20421016   2.465   5.911   5.921 -1.1908 -2.2931 -1.8140
   87MOL   H20521017   2.460   6.053   5.817 -0.1497  0.5982  1.6442
   87MOL   C20621018   2.343   5.916   6.355  0.7902  0.1725 -0.8757
   87MOL   C20721019   2.190   5.868   6.373  0.2307 -0.1290 -0.4290
   87MOL   O20821020   2.116   5.848   6.249  0.1094  0.2745 -0.5457
   87MOL   C20921021   2.126   5.745   6.164  0.7757  0.3361  0.3416
   87MOL   C21021022   2.022   5.743   6.054  0.6781  0.8590  0.1224
   87MOL   O21121023   2.223   5.673   6.173 -0.7726  0.1594  0.0674
   87MOL   H21221024   2.415   5.836   6.335  1.4360  0.6940 -0.6328
   87MOL   H21321025   2.374   5.957   6.451 -2.9039  1.0721  0.0015
   87MOL   H21421026   2.131   5.952   6.410 -1.0090 -2.5787  3.4880
   87MOL   H21521027   2.016   5.643   6.010  1.6030  0.7811  0.1536
   87MOL   H21621028   2.049   5.816   5.978  2.5880 -1.2516 -1.3213
   87MOL   H21721029   1.929   5.757   6.107  1.9267 -0.9063  2.8885
   87MOL   C21821030   2.170   5.748   6.476  0.0092 -0.4516  0.0711
   87MOL   C21921031   2.023   5.725   6.515  0.2103 -0.2459  0.0773
   87MOL   O22021032   1.962   5.639   6.418  0.2035  0.0591 -0.1213
   87MOL   C22121033   1.835   5.663   6.374  0.3396 -1.2554 -0.1136
   87MOL   C22221034   1.760   5.547   6.307  0.6887  0.0086  0.1627
   87MOL   O22321035   1.770   5.760   6.402  0.4408  0.0873 -0.2338
   87MOL   H22421036   2.225   5.661   6.439 -0.2066  0.3106 -2.1176
   87MOL   H22521037   2.217   5.783   6.569 -0.6897  0.9439 -0.0844
   87MOL   H22621038   1.989   5.828   6.526  0.1632 -0.2509 -0.0168
   87MOL   H22721039   1.731   5.480   6.387  0.2910  2.0717  1.7814
   87MOL   H22821040   1.819   5.496   6.231 -0.0890 -0.0706 -0.3982
   87MOL   H22921041   1.666   5.582   6.265  0.2084 -1.5149 -0.0474
   87MOL   C23021042   2.012   5.668   6.659 -0.2341 -0.3664  0.7056
   87MOL   C23121043   1.868   5.677   6.707 -0.0224 -0.6750 -0.4125
   87MOL   O23221044   1.864   5.600   6.829  0.1653 -0.4198  0.0896
   87MOL   C23321045   1.750   5.571   6.889  0.1076  0.2543  0.9175
   87MOL   C23421046   1.781   5.508   7.023  0.1271  0.1711  0.2516
   87MOL   O23521047   1.633   5.586   6.845  0.8238  0.0721 -1.1784
   87MOL   H23621048   2.046   5.564   6.658 -0.6660 -0.5466  2.7340
   87MOL   H23721049   2.078   5.721   6.727 -0.9804 -0.5192  1.5550
   87MOL   H23821050   1.798   5.626   6.640 -0.4134 -0.2355 -0.3441
   87MOL   H23921051   1.838   5.415   7.023  0.0694  0.1055 -2.4257
   87MOL   H24021052   1.694   5.494   7.088 -1.8883 -2.2690 -2.7880
   87MOL   H24121053   1.855   5.573   7.069  0.0724 -0.0660  0.6764
   87MOL   H24221054   1.830   5.778   6.720  0.6757 -0.5357  0.5461
   88MOL     C121055   0.745   7.672   6.363 -0.5911  0.2700 -0.0373
   88MOL     C221056   0.778   7.624   6.504  0.3503  0.2021 -0.1807
   88MOL     O321057   0.673   7.674   6.593  0.1096 -0.3272 -0.0974
   88MOL     C421058   0.703   7.789   6.669  0.1192 -0.4593 -0.0202
   88MOL     C521059   0.600   7.822   6.773  0.0209  0.0902  0.0952
   88MOL     O621060   0.806   7.858   6.668  0.4559 -0.7697  0.2442
   88MOL     H721061   0.648   7.630   6.336 -0.4376 -0.4206  0.4682
   88MOL     H821062   0.817   7.643   6.286  0.0410  1.3828  0.1331
   88MOL     H921063   0.867   7.680   6.532  0.3010  0.8298 -1.2490
   88MOL    H1021064   0.559   7.733   6.821  1.3605 -0.4790  0.2266
   88MOL    H1121065   0.516   7.873   6.728 -0.8206 -1.1137  0.2830
   88MOL    H1221066   0.633   7.896   6.846 -1.7167  0.7181  0.2665
   88MOL    H1321067   0.751   7.780   6.368  0.1935  0.1493  2.0739
   88MOL    C1421068   0.792   7.475   6.528  0.2462 -0.6512 -0.6062
   88MOL    C1521069   0.920   7.424   6.455  0.3703 -0.2572  0.3441
   88MOL    O1621070   1.029   7.482   6.518 -0.1481 -0.2143  0.1521
   88MOL    C1721071   1.140   7.522   6.448 -0.0448  0.2927 -0.2734
   88MOL    C1821072   1.239   7.609   6.529 -0.0822 -1.0190 -0.3762
   88MOL    O1921073   1.165   7.492   6.331 -0.2783 -0.2658  0.1014
   88MOL    H2021074   0.800   7.458   6.636 -0.0557  1.5343 -0.2137
   88MOL    H2121075   0.703   7.424   6.490  1.0296 -3.1394  0.7995
   88MOL    H2221076   0.922   7.455   6.351  1.4137  2.2337  1.0650
   88MOL    H2321077   1.313   7.545   6.576  1.5770 -0.1871 -1.7655
   88MOL    H2421078   1.161   7.654   6.590  0.4093 -2.7147  1.5493
   88MOL    H2521079   1.291   7.680   6.463  2.6257 -1.4872  1.1637
   88MOL    C2621080   0.931   7.266   6.466 -0.1996 -0.0251  0.3941
   88MOL    C2721081   0.832   7.194   6.366 -0.9356  0.0689  1.2185
   88MOL    O2821082   0.837   7.245   6.232 -0.0527 -0.2332 -0.1989
   88MOL    C2921083   0.755   7.329   6.170 -0.2318  1.0613  0.2358
   88MOL    C3021084   0.774   7.315   6.022  0.7643  0.1449  0.8389
   88MOL    O3121085   0.675   7.408   6.216  0.3983  0.1575 -0.0132
   88MOL    H3221086   1.034   7.238   6.442 -0.5635 -1.4433  0.4525
   88MOL    H3321087   0.914   7.236   6.569 -0.8211 -1.4243 -0.1097
   88MOL    H3421088   0.728   7.214   6.393 -0.5052  1.2839  2.0175
   88MOL    H3521089   0.850   7.383   5.984  0.6766  0.3926  1.1079
   88MOL    H3621090   0.683   7.343   5.970  0.6132 -0.7906  0.5914
   88MOL    H3721091   0.811   7.214   6.005  0.1705  0.1471 -0.4958
   88MOL    C3821092   0.860   7.043   6.369  0.1426  0.1930  1.0956
   88MOL    C3921093   0.747   6.960   6.420 -0.1996 -0.1416 -0.6654
   88MOL    O4021094   0.642   6.991   6.327 -0.4058 -0.4571  0.6778
   88MOL    C4121095   0.515   6.978   6.355  0.2068 -0.2325  0.4875
   88MOL    C4221096   0.420   7.017   6.240 -0.1784 -0.2746  0.0832
   88MOL    O4321097   0.473   6.937   6.459 -0.5056 -0.0991 -0.1839
   88MOL    H4421098   0.901   7.007   6.275 -2.2581 -0.0756  0.1431
   88MOL    H4521099   0.943   7.029   6.439  1.9166 -0.3381 -1.0439
   88MOL    H4621100   0.709   6.990   6.518 -0.7223  2.3188 -1.5666
   88MOL    H4721101   0.408   7.125   6.243 -0.8373 -0.3574  0.4640
   88MOL    H4821102   0.327   6.969   6.271  0.0432 -1.5530 -1.1705
   88MOL    H4921103   0.439   6.980   6.139 -1.1154 -1.2956  0.2749
   88MOL    C5021104   0.776   6.812   6.416 -0.4251  0.7151  0.3076
   88MOL    C5121105   0.877   6.767   6.523 -0.2164 -0.5053  0.5406
   88MOL    O5221106   0.817   6.745   6.652 -0.0037 -0.3199 -0.2188
   88MOL    C5321107   0.830   6.841   6.746  0.8940 -0.1408 -0.3339
   88MOL    C5421108   0.758   6.813   6.880  0.2067  0.2228  0.0716
   88MOL    O5521109   0.896   6.943   6.727  0.1672 -0.3986 -0.4956
   88MOL    H5621110   0.679   6.766   6.432 -0.8944  1.3324 -0.7626
   88MOL    H5721111   0.814   6.780   6.319  1.4217 -0.2747  1.3266
   88MOL    H5821112   0.947   6.851   6.531 -0.9914 -0.0276  2.7098
   88MOL    H5921113   0.757   6.704   6.880  1.6894  0.1803 -1.3120
   88MOL    H6021114   0.658   6.855   6.882  0.6139  1.2168 -0.0578
   88MOL    H6121115   0.813   6.845   6.969  0.6186 -3.3088  1.1708
   88MOL    C6221116   0.946   6.636   6.467  0.0132 -0.2788 -0.5312
   88MOL    C6321117   1.063   6.659   6.377 -0.5850  0.9210  0.5605
   88MOL    O6421118   1.171   6.722   6.445 -0.5522  0.0848 -0.5226
   88MOL    C6521119   1.206   6.849   6.428 -0.7349  0.3773 -0.2396
   88MOL    C6621120   1.333   6.878   6.515 -0.1473 -0.8463  0.1931
   88MOL    O6721121   1.146   6.930   6.361 -0.3530 -0.4903  0.3393
   88MOL    H6821122   0.983   6.584   6.555  1.7877 -0.5171 -1.4078
   88MOL    H6921123   0.869   6.565   6.438 -0.1514  0.1354 -1.1132
   88MOL    H7021124   1.035   6.713   6.287  1.2054 -1.9235 -1.7886
   88MOL    H7121125   1.390   6.949   6.455 -2.7263  0.2509 -1.0256
   88MOL    H7221126   1.387   6.783   6.512  0.7019 -0.3572 -0.3663
   88MOL    H7321127   1.308   6.912   6.615 -3.2890  1.4226 -1.2909
   88MOL    C7421128   1.116   6.523   6.324  0.1781  0.1381 -0.0229
   88MOL    C7521129   1.235   6.525   6.225 -0.4734 -0.0484  0.2916
   88MOL    O7621130   1.362   6.544   6.291  0.5816 -0.7471 -0.3204
   88MOL    C7721131   1.444   6.637   6.240 -0.2008 -0.3371 -0.1283
   88MOL    C7821132   1.575   6.649   6.316 -0.1889 -0.5593  0.0741
   88MOL    O7921133   1.429   6.698   6.132 -0.3270 -0.3627  0.3740
   88MOL    H8021134   1.140   6.459   6.409  0.8550 -0.2148 -0.4829
   88MOL    H8121135   1.030   6.470   6.282  0.3606 -0.5234  0.4379
   88MOL    H8221136   1.220   6.610   6.159 -0.2098  0.3201  0.7014
   88MOL    H8321137   1.560   6.627   6.422  1.1344 -0.0410  0.3785
   88MOL    H8421138   1.620   6.748   6.309 -0.0721 -0.4919  1.6099
   88MOL    H8521139   1.642   6.575   6.273  1.2252  0.5698  0.3166
   88MOL    C8621140   1.233   6.403   6.134  0.5970 -0.1143 -0.2087
   88MOL    C8721141   1.111   6.403   6.030 -0.1029  0.4445 -0.4027
   88MOL    O8821142   1.132   6.513   5.941  0.2927  0.0305 -0.2415
   88MOL    C8921143   1.046   6.615   5.951 -0.1862 -0.1224  0.1405
   88MOL    C9021144   1.072   6.719   5.846  0.4267  0.7288  0.5356
   88MOL    O9121145   0.963   6.635   6.040 -0.2287  0.2372  0.5777
   88MOL    H9221146   1.325   6.400   6.075  0.6906  0.0497 -0.0701
   88MOL    H9321147   1.251   6.311   6.190 -1.5849 -1.2200 -1.2688
   88MOL    H9421148   1.013   6.396   6.078 -0.9048 -0.6872 -2.1275
   88MOL    H9521149   1.163   6.776   5.866  0.8199  0.5244 -0.6749
   88MOL    H9621150   0.990   6.790   5.835  0.4808  0.2276 -3.5661
   88MOL    H9721151   1.092   6.664   5.755  0.7479  0.0699  1.0036
   88MOL    C9821152   1.137   6.276   5.945 -0.1242 -0.1112 -0.4185
   88MOL    C9921153   1.029   6.250   5.835 -0.2937 -0.0281 -0.3372
   88MOL   O10021154   1.067   6.129   5.776 -0.5887  0.1915 -0.1000
   88MOL   C10121155   1.097   6.127   5.640 -0.3703 -0.5845 -0.5490
   88MOL   C10221156   1.103   5.982   5.594 -0.1508 -0.2289 -0.3455
   88MOL   O10321157   1.101   6.222   5.561  0.0764  0.4014  0.3559
   88MOL   H10421158   1.232   6.283   5.892 -0.4083  1.2112 -0.7773
   88MOL   H10521159   1.143   6.184   6.003  0.0001 -0.1424 -0.4804
   88MOL   H10621160   1.034   6.335   5.766 -0.4410  1.0789  0.9936
   88MOL   H10721161   1.184   5.927   5.641  1.0640  1.6910 -0.1682
   88MOL   H10821162   1.123   5.974   5.487 -0.1175 -0.2724 -0.3361
   88MOL   H10921163   1.009   5.933   5.618 -0.0576 -0.0786  0.3241
   88MOL   C11021164   0.882   6.232   5.886 -0.0904 -0.3679 -0.1871
   88MOL   C11121165   0.769   6.303   5.806  0.7358  0.2107  0.5383
   88MOL   O11221166   0.773   6.277   5.667 -0.3458  0.1356 -0.1783
   88MOL   C11321167   0.770   6.371   5.567 -0.5949 -1.0463  0.0381
   88MOL   C11421168   0.793   6.312   5.433 -0.5477  0.2283  0.1704
   88MOL   O11521169   0.766   6.496   5.584  0.1229  0.0021 -0.1890
   88MOL   H11621170   0.859   6.126   5.896  2.0566 -0.8656 -0.3940
   88MOL   H11721171   0.872   6.257   5.992  2.5037  0.0960 -0.0207
   88MOL   H11821172   0.757   6.409   5.831 -3.4381  0.0620 -0.5121
   88MOL   H11921173   0.744   6.216   5.419 -0.1556 -0.0501  0.7099
   88MOL   H12021174   0.899   6.289   5.422 -0.5001  0.1444  0.8205
   88MOL   H12121175   0.757   6.382   5.356 -0.4545  2.4137  2.0643
   88MOL   C12221176   0.631   6.237   5.842 -0.0380  0.2265  0.3263
   88MOL   C12321177   0.584   6.265   5.987  0.3538  0.7023  0.3686
   88MOL   O12421178   0.558   6.404   6.005 -0.1430  0.3479 -0.0034
   88MOL   C12521179   0.631   6.466   6.095  0.4725  0.8883  0.4338
   88MOL   C12621180   0.602   6.619   6.093  0.9545 -0.1071 -0.3723
   88MOL   O12721181   0.714   6.414   6.170  0.4875  0.3428 -0.1525
   88MOL   H12821182   0.556   6.276   5.774 -0.1520 -0.5075  0.0227
   88MOL   H12921183   0.640   6.131   5.819 -1.6555  0.5310 -1.8310
   88MOL   H13021184   0.661   6.228   6.055 -0.1669  1.6142  1.4733
   88MOL   H13121185   0.558   6.655   6.185 -1.7314 -1.2147 -1.1830
   88MOL   H13221186   0.533   6.657   6.018 -0.0543 -0.1349  0.5267
   88MOL   H13321187   0.700   6.659   6.067  1.6979 -2.6884 -1.7685
   88MOL   C13421188   0.451   6.183   6.025  0.1096  0.0907 -0.1495
   88MOL   C13521189   0.472   6.033   6.074  0.0373 -0.5491  1.0714
   88MOL   O13621190   0.480   6.027   6.221 -0.3858  0.4120  0.5558
   88MOL   C13721191   0.559   5.935   6.285 -0.4777 -0.4588 -0.5063
   88MOL   C13821192   0.545   5.943   6.434 -0.1875  0.8550 -0.7483
   88MOL   O13921193   0.630   5.849   6.236 -0.2470  0.2155  0.1273
   88MOL   H14021194   0.395   6.230   6.105 -4.2475  1.1061 -3.5866
   88MOL   H14121195   0.382   6.192   5.941 -1.0086  1.1608  0.8856
   88MOL   H14221196   0.574   6.006   6.046  0.6841  2.6207  0.2214
   88MOL   H14321197   0.610   5.869   6.482 -1.0105  2.0322  2.2734
   88MOL   H14421198   0.443   5.923   6.465  0.4023 -0.0382  0.6930
   88MOL   H14521199   0.576   6.040   6.474  0.5774  0.3598 -0.1088
   88MOL   C14621200   0.360   5.947   6.026  0.1488 -0.3617 -0.2433
   88MOL   C14721201   0.387   5.899   5.885  0.1529 -0.2994 -0.1914
   88MOL   O14821202   0.472   5.781   5.891  0.2553 -0.2601  1.1270
   88MOL   C14921203   0.585   5.771   5.819 -0.0584 -0.8587 -0.1570
   88MOL   C15021204   0.648   5.636   5.799  0.4520  0.1615 -0.1919
   88MOL   O15121205   0.628   5.861   5.748  0.0974  0.1907  0.3982
   88MOL   H15221206   0.371   5.854   6.081 -0.6672 -0.7771 -0.7737
   88MOL   H15321207   0.261   5.986   6.050 -0.1006 -0.3302 -1.3126
   88MOL   H15421208   0.439   5.982   5.836 -0.0257 -0.0607  0.0186
   88MOL   H15521209   0.582   5.580   5.733 -0.0553  1.3046 -0.6752
   88MOL   H15621210   0.657   5.591   5.898  0.0611  1.9853  0.6861
   88MOL   H15721211   0.744   5.649   5.749  1.3210  0.3222  1.4923
   88MOL   C15821212   0.255   5.860   5.811 -0.0169  0.3038 -0.1258
   88MOL   C15921213   0.179   5.971   5.746  0.1500  0.2744  0.3078
   88MOL   O16021214   0.137   6.060   5.851  0.2620  0.0672 -0.2014
   88MOL   C16121215   0.004   6.064   5.880  0.6193 -0.4623 -0.7423
   88MOL   C16221216   7.991   6.176   5.980 -0.9322 -0.6194  0.3338
   88MOL   O16321217   7.942   5.993   5.831 -0.0105  0.1110  0.5069
   88MOL   H16421218   0.270   5.776   5.742 -2.5052 -0.2354 -0.0663
   88MOL   H16521219   0.195   5.806   5.884  0.2346 -1.9210 -1.5296
   88MOL   H16621220   0.092   5.928   5.696  0.1452  1.4513 -0.7174
   88MOL   H16721221   7.893   6.218   5.961 -1.2162 -1.4417 -0.0502
   88MOL   H16821222   0.049   6.251   5.988 -1.8070  0.6364 -2.3179
   88MOL   H16921223   7.983   6.129   6.078 -0.2480  1.6613  1.4956
   88MOL   C17021224   0.257   6.055   5.647 -0.0062 -0.2042 -0.8661
   88MOL   C17121225   0.333   5.984   5.530 -0.0864 -0.3675 -0.0892
   88MOL   O17221226   0.234   5.925   5.451  0.5582 -0.0750 -0.1563
   88MOL   C17321227   0.244   5.799   5.398  0.4775  0.0038  0.6896
   88MOL   C17421228   0.126   5.760   5.319 -0.3969  0.4671  0.4262
   88MOL   O17521229   0.343   5.728   5.411 -0.4047  0.0020 -0.3320
   88MOL   H17621230   0.193   6.128   5.597 -0.8412  0.7916  1.5679
   88MOL   H17721231   0.328   6.115   5.703 -1.7657  1.2025 -0.0690
   88MOL   H17821232   0.400   5.907   5.567 -1.0054 -1.5167 -0.7773
   88MOL   H17921233   0.167   5.691   5.245 -0.7494  0.7798 -0.0619
   88MOL   H18021234   0.087   5.853   5.277 -1.0103  0.1845  0.3529
   88MOL   H18121235   0.046   5.701   5.366  1.1737 -1.3963  0.8318
   88MOL   C18221236   0.429   6.073   5.448 -0.0595  0.7568  0.3188
   88MOL   C18321237   0.375   6.202   5.397 -0.0853  0.1224 -0.3834
   88MOL   O18421238   0.396   6.293   5.498  0.2742 -0.0065  0.2104
   88MOL   C18521239   0.342   6.413   5.504  0.1573 -0.2469  0.0329
   88MOL   C18621240   0.391   6.496   5.613  0.6576 -0.4620  0.3703
   88MOL   O18721241   0.255   6.450   5.426  0.6034  0.2634  0.1512
   88MOL   H18821242   0.520   6.090   5.505 -0.0208 -0.0514  0.5040
   88MOL   H18921243   0.453   6.009   5.363 -0.7810  0.1623  0.5535
   88MOL   H19021244   0.269   6.193   5.372 -1.0282  0.4094  3.2393
   88MOL   H19121245   0.495   6.487   5.646 -0.0865 -0.5888  2.7754
   88MOL   H19221246   0.334   6.465   5.700 -0.4024  1.6340  0.4390
   88MOL   H19321247   0.379   6.602   5.594  1.3390 -0.4153  0.1865
   88MOL   C19421248   0.430   6.241   5.255  0.1029 -0.6633 -0.0426
   88MOL   C19521249   0.401   6.143   5.133  0.0336 -0.3487 -0.8337
   88MOL   O19621250   0.262   6.129   5.114  0.9949 -0.0726 -0.8397
   88MOL   C19721251   0.209   6.007   5.076 -0.1225 -0.5887  0.0791
   88MOL   C19821252   0.064   6.020   5.059  0.2356  0.1938  0.3709
   88MOL   O19921253   0.271   5.902   5.052  0.3112 -0.4752 -0.3590
   88MOL   H20021254   0.379   6.332   5.225 -0.8887 -1.2864 -0.2438
   88MOL   H20121255   0.535   6.271   5.264  0.0827 -0.4801 -0.3942
   88MOL   H20221256   0.441   6.047   5.165 -1.6463 -1.4497 -1.9018
   88MOL   H20321257   0.039   6.082   4.973  1.5398 -1.4517 -1.2287
   88MOL   H20421258   0.023   6.054   5.154 -2.0263  0.6877 -0.7406
   88MOL   H20521259   0.027   5.920   5.037  0.4040  0.0464  0.7575
   88MOL   C20621260   0.488   6.183   5.005  0.1633 -1.2594  0.5274
   88MOL   C20721261   0.448   6.318   4.940  0.4344  0.3615  0.6011
   88MOL   O20821262   0.482   6.435   5.012  0.1852 -0.1256 -0.1329
   88MOL   C20921263   0.391   6.526   5.029 -0.5458  0.1784 -0.3804
   88MOL   C21021264   0.446   6.647   5.107 -0.1381  0.6579  0.2067
   88MOL   O21121265   0.274   6.518   4.985 -0.0296 -0.3247  0.1295
   88MOL   H21221266   0.590   6.185   5.043  1.0624 -0.5167 -1.9058
   88MOL   H21321267   0.476   6.104   4.931  0.7247 -2.8884  2.1392
   88MOL   H21421268   0.341   6.307   4.922  0.9510 -2.9210 -0.8694
   88MOL   H21521269   0.416   6.644   5.212  1.9012 -0.3370  0.7821
   88MOL   H21621270   0.413   6.742   5.063  0.0481  1.1554  1.1377
   88MOL   H21721271   0.554   6.643   5.099 -0.1628 -1.0936  0.7454
   88MOL   C21821272   0.501   6.341   4.793  0.3338  0.0221 -0.8010
   88MOL   C21921273   0.455   6.235   4.694 -0.0529  0.1459  0.3426
   88MOL   O22021274   0.318   6.244   4.661 -0.1309 -0.1354  0.7281
   88MOL   C22121275   0.244   6.138   4.685 -0.3861  0.1937  0.6585
   88MOL   C22221276   0.091   6.166   4.674 -0.3545  0.2102  0.0442
   88MOL   O22321277   0.285   6.025   4.717 -0.0825 -0.4391 -0.0393
   88MOL   H22421278   0.458   6.433   4.753  0.8195  1.0896  1.0733
   88MOL   H22521279   0.609   6.339   4.779  0.2355 -2.8023 -1.6368
   88MOL   H22621280   0.483   6.138   4.736  0.8902  0.9324  1.5631
   88MOL   H22721281   0.039   6.076   4.707  0.7018  0.1545  1.6320
   88MOL   H22821282   0.074   6.197   4.571 -1.3904 -0.6104 -0.0391
   88MOL   H22921283   0.068   6.247   4.744  1.0201  0.0662  0.6734
   88MOL   C23021284   0.532   6.243   4.555 -0.6118 -0.4343 -0.1336
   88MOL   C23121285   0.517   6.105   4.480 -0.2178  0.4003 -0.0915
   88MOL   O23221286   0.574   6.130   4.348 -0.9745  0.2922  0.1123
   88MOL   C23321287   0.500   6.140   4.240  0.5877 -0.1264 -0.5487
   88MOL   C23421288   0.583   6.163   4.122  0.4020  0.1272 -0.0636
   88MOL   O23521289   0.380   6.135   4.238 -0.5407  0.3229  0.1262
   88MOL   H23621290   0.499   6.320   4.485 -0.4243  1.3233  1.6781
   88MOL   H23721291   0.638   6.264   4.570 -1.1178  0.3808  2.6486
   88MOL   H23821292   0.413   6.073   4.477  0.1541 -0.7415 -0.9807
   88MOL   H23921293   0.593   6.270   4.101  1.0657  0.5483  2.2577
   88MOL   H24021294   0.544   6.105   4.039  0.2541 -0.9676  0.7679
   88MOL   H24121295   0.684   6.131   4.147 -0.2159 -3.1283 -1.5771
   88MOL   H24221296   0.580   6.025   4.519  1.0484  0.5621 -1.7516
   89MOL     C121297   1.770   4.176   5.709  0.8187  0.2565 -0.2785
   89MOL     C221298   1.634   4.113   5.747 -0.0574  0.0886  0.3085
   89MOL     O321299   1.599   4.177   5.866 -0.2626 -0.2876  0.0342
   89MOL     C421300   1.545   4.112   5.962  0.5748 -0.5639 -0.7645
   89MOL     C521301   1.507   4.203   6.074 -0.3675  0.4461 -0.0759
   89MOL     O621302   1.530   3.990   5.968 -0.1256  0.0528  0.2872
   89MOL     H721303   1.803   4.148   5.609 -1.1613  0.3861 -0.9941
   89MOL     H821304   1.850   4.148   5.778 -0.3958 -5.0196 -0.8226
   89MOL     H921305   1.646   4.005   5.758  1.6213  0.0800 -1.2714
   89MOL    H1021306   1.595   4.257   6.109  0.4601 -1.0539  0.2004
   89MOL    H1121307   1.457   4.141   6.149 -0.7298 -0.9658 -1.4330
   89MOL    H1221308   1.434   4.282   6.057  0.1941  1.1464  0.7799
   89MOL    H1321309   1.769   4.285   5.719  0.0363  0.2081  0.2124
   89MOL    C1421310   1.519   4.139   5.643 -0.1674  0.0083 -0.4059
   89MOL    C1521311   1.517   4.019   5.551 -0.2840 -1.0216  0.2616
   89MOL    O1621312   1.464   3.916   5.625  0.0347 -0.4054 -0.6567
   89MOL    C1721313   1.528   3.795   5.623  0.3267 -0.2134  0.4590
   89MOL    C1821314   1.470   3.698   5.723  0.0918 -0.1720 -0.3124
   89MOL    O1921315   1.616   3.767   5.550  0.0626 -0.1769  0.8543
   89MOL    H2021316   1.422   4.173   5.679 -0.5394 -1.1178 -0.3067
   89MOL    H2121317   1.562   4.220   5.584 -0.3031  0.1165 -0.3565
   89MOL    H2221318   1.618   3.998   5.515  0.0207  0.5732  0.1177
   89MOL    H2321319   1.406   3.754   5.791  1.6563  2.6868 -1.1187
   89MOL    H2421320   1.547   3.651   5.783 -0.2702 -1.8730 -1.1305
   89MOL    H2521321   1.436   3.610   5.669  2.9129 -1.8872  0.6364
   89MOL    C2621322   1.425   4.060   5.435  0.3950 -0.4484 -1.0406
   89MOL    C2721323   1.493   4.083   5.293  0.1494  0.1043  0.4200
   89MOL    O2821324   1.572   3.967   5.261  0.0382  0.2753  0.7451
   89MOL    C2921325   1.708   3.993   5.231 -0.0448  0.5897 -0.1979
   89MOL    C3021326   1.781   3.857   5.217  0.3554  0.0827 -0.0131
   89MOL    O3121327   1.760   4.105   5.208 -0.4243 -0.1641 -0.1657
   89MOL    H3221328   1.349   3.984   5.419 -1.2169  1.2788 -1.8494
   89MOL    H3321329   1.358   4.142   5.463  2.6812  0.5128  1.7701
   89MOL    H3421330   1.552   4.173   5.312  1.4484 -0.6955  0.2121
   89MOL    H3521331   1.773   3.792   5.304 -4.8396 -0.0833 -0.4660
   89MOL    H3621332   1.885   3.879   5.196  0.6977 -0.0568  1.5229
   89MOL    H3721333   1.736   3.810   5.129 -1.6515 -0.9997  1.5411
   89MOL    C3821334   1.398   4.122   5.181  0.3115  0.2724 -0.3726
   89MOL    C3921335   1.273   4.032   5.157 -0.7802 -0.4893 -0.8638
   89MOL    O4021336   1.190   4.109   5.070 -0.4131  0.2921 -0.0407
   89MOL    C4121337   1.094   4.171   5.115  1.3114 -0.2163  0.1560
   89MOL    C4221338   1.011   4.241   5.011  0.2147  0.3303 -1.0004
   89MOL    O4321339   1.054   4.178   5.231 -0.1108  0.3304 -0.3774
   89MOL    H4421340   1.357   4.216   5.219 -0.7780 -0.2514 -0.2283
   89MOL    H4521341   1.454   4.136   5.089  1.2695 -2.2168 -0.2150
   89MOL    H4621342   1.229   4.021   5.256  1.7331 -0.4943  0.3080
   89MOL    H4721343   1.023   4.347   5.030 -1.1500 -0.0146  2.2058
   89MOL    H4821344   0.904   4.228   5.026  0.1478 -0.9920 -2.4648
   89MOL    H4921345   1.041   4.229   4.907  1.7457  3.6405 -1.0168
   89MOL    C5021346   1.305   3.896   5.087 -0.4221 -0.4093 -0.5495
   89MOL    C5121347   1.298   3.772   5.179 -0.4104 -0.8190  0.1948
   89MOL    O5221348   1.161   3.753   5.230  0.1121  0.1888 -0.0828
   89MOL    C5321349   1.137   3.742   5.362  0.1578 -0.0126  0.1664
   89MOL    C5421350   1.014   3.649   5.388 -0.2896 -0.5741  0.2706
   89MOL    O5521351   1.215   3.774   5.452 -0.2396 -0.2975 -0.5497
   89MOL    H5621352   1.226   3.885   5.012 -1.5302  0.5044  0.4504
   89MOL    H5721353   1.403   3.907   5.041 -0.6639  1.4329 -0.6795
   89MOL    H5821354   1.363   3.795   5.264  1.1821  3.2475 -1.9606
   89MOL    H5921355   0.921   3.701   5.366  1.8861  3.0615 -0.7417
   89MOL    H6021356   1.023   3.622   5.493  1.2566  3.1941  1.1688
   89MOL    H6121357   1.027   3.553   5.337  1.2542 -0.5619  0.6365
   89MOL    C6221358   1.338   3.638   5.113 -0.1452 -0.7103  0.2041
   89MOL    C6321359   1.342   3.524   5.209  0.3165 -0.2093  0.1054
   89MOL    O6421360   1.360   3.411   5.129  0.0340 -0.0754  0.3733
   89MOL    C6521361   1.254   3.341   5.083  0.3593  0.2673  0.7298
   89MOL    C6621362   1.290   3.215   5.007  0.1520  0.1159  0.5785
   89MOL    O6721363   1.141   3.384   5.078 -0.1372 -0.0814 -0.4291
   89MOL    H6821364   1.263   3.620   5.036  0.0479 -0.0025 -0.1479
   89MOL    H6921365   1.429   3.644   5.052 -1.1738  1.9640 -1.1220
   89MOL    H7021366   1.256   3.510   5.275 -0.0219 -0.7286 -0.4430
   89MOL    H7121367   1.229   3.218   4.916 -1.4150  2.8112  1.6436
   89MOL    H7221368   1.265   3.130   5.070 -1.6822 -0.0744 -0.3414
   89MOL    H7321369   1.393   3.206   4.975 -0.2926  1.1933 -1.2603
   89MOL    C7421370   1.460   3.535   5.306  0.0468 -0.4101  0.1101
   89MOL    C7521371   1.471   3.424   5.411 -0.4151 -0.3849 -0.0975
   89MOL    O7621372   1.594   3.474   5.477 -0.3594  0.2869 -0.7793
   89MOL    C7721373   1.688   3.384   5.519 -0.6873 -0.2863  0.0105
   89MOL    C7821374   1.812   3.449   5.581 -0.3408  0.2426  0.7257
   89MOL    O7921375   1.684   3.262   5.515 -1.5519  1.2142  0.3075
   89MOL    H8021376   1.557   3.550   5.259  0.8481  0.0728  1.8722
   89MOL    H8121377   1.457   3.627   5.364 -0.7762  0.7681 -1.7499
   89MOL    H8221378   1.500   3.326   5.374  1.7345  0.6733 -1.3375
   89MOL    H8321379   1.842   3.545   5.540 -3.1939  0.6837 -0.4830
   89MOL    H8421380   1.898   3.383   5.577 -0.6655 -0.1701  0.4381
   89MOL    H8521381   1.781   3.475   5.682  2.0208  0.8889  1.2997
   89MOL    C8621382   1.356   3.404   5.512 -0.1159 -0.4562 -1.1967
   89MOL    C8721383   1.255   3.285   5.485 -0.4178 -0.0672 -0.6761
   89MOL    O8821384   1.317   3.158   5.512 -0.2648 -0.7984 -0.0585
   89MOL    C8921385   1.360   3.079   5.417 -0.6585  0.3382 -1.3074
   89MOL    C9021386   1.415   2.951   5.474  0.9193 -0.4288 -1.0866
   89MOL    O9121387   1.366   3.104   5.300 -0.1509 -0.6171  0.0845
   89MOL    H9221388   1.390   3.403   5.615  0.4228  2.8843 -1.2765
   89MOL    H9321389   1.302   3.498   5.524  0.5425 -0.2050 -0.2168
   89MOL    H9421390   1.224   3.290   5.381 -0.9041  2.1344 -0.4544
   89MOL    H9521391   1.524   2.948   5.485  0.8838  2.2181  0.4423
   89MOL    H9621392   1.373   2.864   5.424  0.0706  0.6847 -2.3290
   89MOL    H9721393   1.383   2.931   5.577  1.2486  0.7028 -0.7636
   89MOL    C9821394   1.130   3.298   5.579 -0.3064 -1.0919 -0.0886
   89MOL    C9921395   1.008   3.206   5.559 -0.3777 -0.2832  0.3831
   89MOL   O10021396   1.044   3.067   5.568 -0.0738  0.0761  0.6498
   89MOL   C10121397   1.002   2.980   5.473  0.0445 -0.8222  0.0311
   89MOL   C10221398   1.071   2.840   5.485  0.2191 -0.7269  0.3977
   89MOL   O10321399   0.918   2.998   5.385 -0.4521 -0.1016 -0.0009
   89MOL   H10421400   1.167   3.286   5.680 -0.6261  0.8980  0.2780
   89MOL   H10521401   1.089   3.398   5.567  2.5340  0.1738  0.4012
   89MOL   H10621402   0.976   3.228   5.458  1.8542 -0.7226 -0.4507
   89MOL   H10721403   1.143   2.844   5.403 -0.6648 -1.4183 -0.4186
   89MOL   H10821404   0.991   2.767   5.470 -0.7761  0.1744  1.2522
   89MOL   H10921405   1.133   2.830   5.574  2.0591 -2.1467 -0.9978
   89MOL   C11021406   0.903   3.239   5.669 -0.4238  0.7021 -0.4133
   89MOL   C11121407   0.760   3.288   5.627  0.6039 -0.4309 -0.3551
   89MOL   O11221408   0.769   3.425   5.593  0.0666 -0.0981 -0.5521
   89MOL   C11321409   0.665   3.503   5.619 -0.2876  0.6899  0.3327
   89MOL   C11421410   0.685   3.637   5.555  0.5819  0.3981 -0.6294
   89MOL   O11521411   0.561   3.485   5.677 -0.3876  0.4696  0.3540
   89MOL   H11621412   0.900   3.166   5.750  0.9377  2.0112  0.8822
   89MOL   H11721413   0.941   3.312   5.741 -0.1572 -1.4279  1.6916
   89MOL   H11821414   0.702   3.290   5.719  0.4590  2.1385 -0.4852
   89MOL   H11921415   0.667   3.632   5.448 -0.9729  0.7114 -0.3812
   89MOL   H12021416   0.786   3.673   5.576 -0.5735  3.1475  0.3152
   89MOL   H12121417   0.615   3.709   5.596 -0.9180 -0.9817 -0.6839
   89MOL   C12221418   0.661   3.209   5.540 -0.1756  0.0802 -0.2846
   89MOL   C12321419   0.648   3.053   5.579  0.4438 -0.2846 -0.0066
   89MOL   O12421420   0.594   3.057   5.714  0.1997  0.0100  0.3176
   89MOL   C12521421   0.644   2.972   5.803  0.1895  0.7978 -0.6295
   89MOL   C12621422   0.553   2.968   5.925  0.0837  0.1618 -0.1396
   89MOL   O12721423   0.739   2.893   5.790  0.2465 -0.5630 -0.2825
   89MOL   H12821424   0.558   3.241   5.552 -0.1325  0.3832 -0.7257
   89MOL   H12921425   0.692   3.214   5.436  1.7489 -2.0300  0.1295
   89MOL   H13021426   0.750   3.014   5.577  1.0120  1.1768  0.0844
   89MOL   H13121427   0.451   2.977   5.890  0.7724  1.3212 -1.8803
   89MOL   H13221428   0.585   3.062   5.971 -1.2641  0.9793 -0.8405
   89MOL   H13321429   0.558   2.880   5.990  0.1207  2.3676  2.9843
   89MOL   C13421430   0.569   2.982   5.471  0.1660  0.6952  0.2460
   89MOL   C13521431   0.558   2.833   5.480  0.0819 -0.1127 -0.1340
   89MOL   O13621432   0.464   2.784   5.380  0.0714  0.1983 -0.3297
   89MOL   C13721433   0.330   2.790   5.407 -0.5757  0.0086 -0.1407
   89MOL   C13821434   0.249   2.727   5.301 -0.0939  0.2972  0.0751
   89MOL   O13921435   0.285   2.839   5.509  0.2124 -0.0934  0.0782
   89MOL   H14021436   0.470   3.026   5.479 -0.8268 -1.0908 -1.6008
   89MOL   H14121437   0.589   3.013   5.368 -0.3611 -1.5595 -0.5626
   89MOL   H14221438   0.531   2.823   5.585 -0.3535 -1.5078 -0.3702
   89MOL   H14321439   0.315   2.669   5.236 -0.7525  1.1690 -1.3946
   89MOL   H14421440   0.209   2.806   5.237 -0.7400  1.0411  1.3814
   89MOL   H14521441   0.167   2.666   5.339  0.4578 -0.1922  0.4819
   89MOL   C14621442   0.693   2.752   5.474  0.1286  0.2190  0.2862
   89MOL   C14721443   0.682   2.611   5.534 -0.0756  0.3454  0.2837
   89MOL   O14821444   0.801   2.540   5.494 -0.1061  0.1874  0.3338
   89MOL   C14921445   0.797   2.441   5.400  0.3517  0.3451 -0.1036
   89MOL   C15021446   0.921   2.353   5.401  0.4792  0.3005 -0.1225
   89MOL   O15121447   0.707   2.420   5.320  0.2835 -0.2423 -0.1068
   89MOL   H15221448   0.728   2.748   5.371 -2.3695  1.5615 -0.6725
   89MOL   H15321449   0.767   2.802   5.537  1.8621 -0.2890 -1.3002
   89MOL   H15421450   0.592   2.563   5.496 -0.3295 -0.0769  1.4259
   89MOL   H15521451   1.005   2.417   5.374 -0.0056  0.4259 -1.3746
   89MOL   H15621452   0.907   2.267   5.336  2.8149  0.8729 -1.4808
   89MOL   H15721453   0.931   2.318   5.503 -0.5349 -0.9071 -0.4266
   89MOL   C15821454   0.676   2.618   5.684 -0.2329 -0.0549 -0.2345
   89MOL   C15921455   0.669   2.483   5.747  0.8270  0.7032  0.0353
   89MOL   O16021456   0.659   2.515   5.885 -0.2574  0.0740  0.3606
   89MOL   C16121457   0.771   2.508   5.963  0.3109 -0.1135 -0.4179
   89MOL   C16221458   0.746   2.527   6.111  0.7133 -0.4573  0.2815
   89MOL   O16321459   0.886   2.476   5.924 -0.2135 -0.1502 -0.7930
   89MOL   H16421460   0.762   2.671   5.726 -0.6188  0.4115 -0.0192
   89MOL   H16521461   0.592   2.682   5.713 -1.0596 -1.6000  0.8915
   89MOL   H16621462   0.760   2.436   5.711  0.0126  0.5924 -1.9486
   89MOL   H16721463   0.698   2.624   6.128  0.7404 -0.8585  2.8903
   89MOL   H16821464   0.838   2.524   6.168 -0.4279 -1.7651  2.1181
   89MOL   H16921465   0.681   2.446   6.143  1.7270 -0.8622  1.3594
   89MOL   C17021466   0.555   2.383   5.695  0.9081  0.2802 -0.6088
   89MOL   C17121467   0.567   2.241   5.750  0.4622 -0.6118  0.2420
   89MOL   O17221468   0.569   2.255   5.896  0.0899  0.0598  0.0104
   89MOL   C17321469   0.640   2.168   5.969 -0.3790 -0.0642  0.6843
   89MOL   C17421470   0.638   2.191   6.118 -0.0873 -0.2295 -0.0897
   89MOL   O17521471   0.698   2.072   5.923  0.0490 -0.4994  0.6685
   89MOL   H17621472   0.460   2.430   5.718  0.2397 -0.5140 -1.6773
   89MOL   H17721473   0.568   2.375   5.587  1.0383  1.1834 -0.6648
   89MOL   H17821474   0.667   2.214   5.717  0.0339 -0.8035 -0.9289
   89MOL   H17921475   0.659   2.098   6.170 -1.9082 -0.4689  0.2335
   89MOL   H18021476   0.548   2.238   6.157 -1.1595 -1.7162 -0.7391
   89MOL   H18121477   0.726   2.253   6.133 -1.1145  1.2181  0.0244
   89MOL   C18221478   0.456   2.145   5.719  0.4541  0.0367  0.5070
   89MOL   C18321479   0.459   2.094   5.572 -0.5976  0.4935  0.3550
   89MOL   O18421480   0.552   1.984   5.570 -0.1827 -0.7675 -0.7056
   89MOL   C18521481   0.685   1.997   5.535 -0.8310 -0.2918 -0.2165
   89MOL   C18621482   0.774   1.870   5.531  0.1020 -0.1186 -0.0765
   89MOL   O18721483   0.739   2.102   5.505  0.2448  0.4068 -0.0788
   89MOL   H18821484   0.480   2.054   5.774  0.0195 -0.7162 -0.5323
   89MOL   H18921485   0.355   2.173   5.748  0.3583 -1.5537  1.8183
   89MOL   H19021486   0.492   2.177   5.509  0.4424  1.2543  1.8471
   89MOL   H19121487   0.860   1.895   5.594 -0.0241 -0.3548  0.1892
   89MOL   H19221488   0.815   1.849   5.433 -0.4453  0.6431 -0.4751
   89MOL   H19321489   0.719   1.791   5.581 -0.2873 -1.4015 -2.4653
   89MOL   C19421490   0.324   2.047   5.523  0.2849 -0.3854 -0.3087
   89MOL   C19521491   0.236   2.157   5.454  0.2685  0.0792  0.4079
   89MOL   O19621492   0.290   2.196   5.327  0.4140 -0.1757 -0.1466
   89MOL   C19721493   0.355   2.308   5.322  0.7015  0.2146  0.1807
   89MOL   C19821494   0.403   2.321   5.179 -0.3346 -0.7136  0.2380
   89MOL   O19921495   0.368   2.392   5.413  0.3302 -0.0441 -0.5339
   89MOL   H20021496   0.323   1.968   5.447 -3.5417 -1.2656  0.5146
   89MOL   H20121497   0.269   1.999   5.603 -1.1269 -3.6503 -3.0983
   89MOL   H20221498   0.230   2.238   5.527  2.0341 -0.4069  1.1290
   89MOL   H20321499   0.331   2.377   5.119 -0.1444 -1.2077 -0.4561
   89MOL   H20421500   0.439   2.229   5.134  1.6545 -0.9679  2.2692
   89MOL   H20521501   0.486   2.391   5.184  1.8848 -3.3100  0.4787
   89MOL   C20621502   0.090   2.120   5.433 -0.1161  0.6756  0.0689
   89MOL   C20721503   0.056   1.981   5.371  0.2415 -0.4773  0.5178
   89MOL   O20821504   7.968   1.927   5.443  0.1806 -0.3538  0.2505
   89MOL   C20921505   7.998   1.833   5.535 -0.2576  0.3528 -0.0018
   89MOL   C21021506   7.883   1.759   5.590  0.3432  0.9399 -0.5695
   89MOL   O21121507   0.086   1.817   5.587 -0.7370 -0.3805  0.2180
   89MOL   H21221508   0.043   2.116   5.532 -0.8350 -0.3468 -0.3138
   89MOL   H21321509   0.037   2.205   5.390  0.3044  0.9885  0.1720
   89MOL   H21421510   0.143   1.916   5.375  0.8996  0.3379 -0.3025
   89MOL   H21521511   7.807   1.836   5.606  0.3584  1.6399 -3.4897
   89MOL   H21621512   7.900   1.719   5.690 -0.4545 -0.7135 -1.0898
   89MOL   H21721513   7.844   1.677   5.531  0.2196  0.2634  0.4453
   89MOL   C21821514   0.017   1.995   5.227  0.4404 -0.1365  0.2607
   89MOL   C21921515   0.000   1.863   5.154  0.6914  0.3545 -0.3712
   89MOL   O22021516   7.895   1.803   5.198  0.5302  0.8158 -0.5042
   89MOL   C22121517   7.870   1.672   5.231 -0.2454 -0.1738 -0.2704
   89MOL   C22221518   7.730   1.647   5.279 -0.2673 -0.4709 -0.3435
   89MOL   O22321519   7.952   1.584   5.229  0.2502 -0.2158 -0.1523
   89MOL   H22421520   7.952   2.061   5.221  0.5345  0.1529  1.9978
   89MOL   H22521521   0.098   2.043   5.171  0.0678  0.9209  0.6155
   89MOL   H22621522   0.079   1.799   5.192 -0.8654 -0.2033  1.9974
   89MOL   H22721523   7.684   1.716   5.351 -1.4012 -2.2807  0.7181
   89MOL   H22821524   7.730   1.545   5.316  1.1400  0.1177  1.3592
   89MOL   H22921525   7.674   1.637   5.186 -0.6457 -1.8828  0.0265
   89MOL   C23021526   8.002   1.874   5.004 -0.6216 -0.0134  0.2112
   89MOL   C23121527   8.014   1.739   4.931 -0.1367 -0.0288  0.0436
   89MOL   O23221528   8.011   1.755   4.786  0.0266 -0.0962  0.0819
   89MOL   C23321529   0.055   1.664   4.706  0.0613  0.2139  0.7473
   89MOL   C23421530   0.054   1.695   4.558 -0.1429 -0.8110  0.4849
   89MOL   O23521531   0.108   1.566   4.745 -0.5125  0.3525 -0.6050
   89MOL   H23621532   7.904   1.914   4.980 -0.7204 -0.8705 -0.8778
   89MOL   H23721533   0.049   1.945   4.958 -0.1775  0.1624  1.1277
   89MOL   H23821534   7.926   1.680   4.957 -0.1232 -1.2249 -2.4798
   89MOL   H23921535   0.141   1.747   4.519 -1.5860  0.1236 -1.5408
   89MOL   H24021536   7.984   1.746   4.531  0.5514 -0.3671 -1.0564
   89MOL   H24121537   0.046   1.596   4.513  0.4008 -0.2991 -0.7601
   89MOL   H24221538   0.081   1.685   4.964 -1.1046 -0.6872  1.6479
   90MOL     C121539   1.805   5.654   4.345  0.0781 -1.0049 -0.4962
   90MOL     C221540   1.919   5.630   4.244  0.6042  0.1332 -0.4049
   90MOL     O321541   2.006   5.735   4.239 -0.4012 -0.3508 -0.0261
   90MOL     C421542   2.092   5.751   4.122  0.8180  0.7623 -0.1387
   90MOL     C521543   2.173   5.877   4.133  0.0200  0.3479  0.4744
   90MOL     O621544   2.100   5.667   4.026 -0.6198 -0.0433  0.2695
   90MOL     H721545   1.838   5.721   4.425 -0.0754  1.1741 -2.1879
   90MOL     H821546   1.763   5.561   4.382  0.8999 -1.4548 -0.6762
   90MOL     H921547   1.879   5.628   4.143  2.4798  0.9391 -1.1980
   90MOL    H1021548   2.127   5.941   4.208  2.7765 -0.8362  3.2782
   90MOL    H1121549   2.178   5.933   4.040 -0.6345  0.5904  0.5837
   90MOL    H1221550   2.274   5.848   4.162  0.6121 -0.1350 -1.9676
   90MOL    H1321551   1.717   5.705   4.306  0.1200 -0.4123  0.1766
   90MOL    C1421552   1.994   5.498   4.278  0.5876 -0.4535  0.5074
   90MOL    C1521553   1.906   5.377   4.248 -0.2247  0.6616  0.2693
   90MOL    O1621554   1.904   5.343   4.111  0.6748 -0.1687  0.0330
   90MOL    C1721555   1.804   5.375   4.036 -0.0141 -0.4227 -0.3933
   90MOL    C1821556   1.827   5.353   3.889  0.4238 -0.1970  0.1085
   90MOL    O1921557   1.705   5.438   4.075  0.1169  0.1733  0.1717
   90MOL    H2021558   2.076   5.487   4.208 -0.6665 -0.0292 -1.0634
   90MOL    H2121559   2.032   5.508   4.380  2.6491  2.3538 -0.4773
   90MOL    H2221560   1.804   5.388   4.287  0.3378 -0.6468  2.1739
   90MOL    H2321561   1.869   5.252   3.881  0.4335 -0.3249  1.6785
   90MOL    H2421562   1.892   5.425   3.839 -1.2927 -0.5925 -2.8489
   90MOL    H2521563   1.731   5.359   3.839  1.9019  2.5153 -2.5622
   90MOL    C2621564   1.941   5.246   4.317  0.3268 -0.2158 -0.0683
   90MOL    C2721565   1.959   5.260   4.469 -0.0367  0.9651 -0.7666
   90MOL    O2821566   1.856   5.342   4.522  0.1613  0.0628 -0.8154
   90MOL    C2921567   1.728   5.302   4.548  0.1929  0.1133  0.6440
   90MOL    C3021568   1.651   5.384   4.646  0.4051  0.8833  0.3152
   90MOL    O3121569   1.679   5.196   4.498 -0.3048  0.2347 -0.1014
   90MOL    H3221570   1.870   5.171   4.284 -0.5264  0.0515  1.1314
   90MOL    H3321571   2.037   5.213   4.278 -0.2457 -0.6483 -1.1410
   90MOL    H3421572   2.040   5.331   4.482  0.5788 -0.1647  1.8944
   90MOL    H3521573   1.600   5.319   4.717  1.2190 -2.0468 -1.7002
   90MOL    H3621574   1.584   5.454   4.596 -0.6500 -0.4312 -0.1365
   90MOL    H3721575   1.726   5.433   4.709  1.2982 -1.1264  0.8493
   90MOL    C3821576   1.992   5.118   4.527  0.0518  0.2915 -0.1959
   90MOL    C3921577   2.039   5.122   4.680  0.5678  0.4169 -0.0458
   90MOL    O4021578   1.929   5.114   4.770  0.0323 -0.1585 -0.3771
   90MOL    C4121579   1.893   5.219   4.842 -0.3144 -0.2078  0.7149
   90MOL    C4221580   1.770   5.195   4.928 -0.6955  0.3604  0.6016
   90MOL    O4321581   1.957   5.324   4.840 -0.2165 -0.4014  0.3074
   90MOL    H4421582   1.911   5.046   4.515  0.6509 -0.3272 -0.5775
   90MOL    H4521583   2.068   5.075   4.462  0.8017 -0.3244  1.0660
   90MOL    H4621584   2.101   5.212   4.686  1.1381  0.2094 -2.2911
   90MOL    H4721585   1.815   5.148   5.016 -2.2323 -1.0729  0.6241
   90MOL    H4821586   1.698   5.126   4.886 -0.1391  0.6631 -0.9028
   90MOL    H4921587   1.732   5.296   4.947  0.3774  1.5706 -3.2165
   90MOL    C5021588   2.137   5.006   4.721 -0.2950  0.5000 -0.6362
   90MOL    C5121589   2.272   5.006   4.644 -0.5941  0.7440  0.0428
   90MOL    O5221590   2.361   5.106   4.676 -0.1395  0.3901 -0.1422
   90MOL    C5321591   2.384   5.213   4.598 -0.4218  0.6858  0.3445
   90MOL    C5421592   2.475   5.304   4.680  0.1179 -0.0929 -0.3368
   90MOL    O5521593   2.312   5.249   4.502  0.2371 -0.3420  0.3750
   90MOL    H5621594   2.171   5.003   4.825  2.0949 -2.5188 -1.4378
   90MOL    H5721595   2.079   4.915   4.708 -1.4859  1.3014 -0.9675
   90MOL    H5821596   2.256   5.016   4.537 -0.1368  0.8382 -0.0190
   90MOL    H5921597   2.568   5.250   4.697  1.9113  2.7095 -1.0544
   90MOL    H6021598   2.432   5.315   4.780 -1.2249  0.4298 -0.9637
   90MOL    H6121599   2.485   5.405   4.641 -0.4158 -0.5954 -1.7835
   90MOL    C6221600   2.330   4.866   4.658  0.6566  0.3897 -0.0544
   90MOL    C6321601   2.455   4.829   4.568  0.8352  0.5298  0.1829
   90MOL    O6421602   2.505   4.702   4.595 -0.8724 -0.8213  0.2999
   90MOL    C6521603   2.592   4.683   4.688  0.4871  0.3898  0.5716
   90MOL    C6621604   2.612   4.538   4.717  0.1754  0.3539 -0.6050
   90MOL    O6721605   2.646   4.757   4.764  0.4056 -0.4689 -0.2833
   90MOL    H6821606   2.362   4.837   4.758  1.0091 -1.4050 -0.6864
   90MOL    H6921607   2.251   4.794   4.637 -1.0619  1.7947  1.3179
   90MOL    H7021608   2.534   4.901   4.588  1.2549 -0.3311  1.7348
   90MOL    H7121609   2.715   4.526   4.683  0.4453  1.7981 -0.3276
   90MOL    H7221610   2.546   4.482   4.651 -0.9672  0.9934 -0.0273
   90MOL    H7321611   2.610   4.503   4.820  1.2633  1.4105 -0.1999
   90MOL    C7421612   2.423   4.844   4.418  0.4933 -0.6022 -0.3692
   90MOL    C7521613   2.538   4.820   4.324 -0.0709  0.3642 -0.3025
   90MOL    O7621614   2.533   4.689   4.276 -0.0878 -0.1122  0.3678
   90MOL    C7721615   2.634   4.602   4.260 -0.4603 -0.7785 -0.0274
   90MOL    C7821616   2.599   4.475   4.201  0.2251 -0.1769 -0.2035
   90MOL    O7921617   2.748   4.621   4.297 -0.2063  0.0448 -0.1300
   90MOL    H8021618   2.336   4.785   4.390  0.1106 -0.8872  1.3971
   90MOL    H8121619   2.384   4.944   4.398  1.1136  0.0518  1.6016
   90MOL    H8221620   2.632   4.830   4.378 -0.5509  0.9292  0.4276
   90MOL    H8321621   2.656   4.469   4.109  0.2201  0.9832 -0.2935
   90MOL    H8421622   2.490   4.467   4.197  0.1681  1.0560 -1.2925
   90MOL    H8521623   2.634   4.397   4.269  0.6273 -1.4639 -1.8575
   90MOL    C8621624   2.547   4.917   4.202  0.1868 -0.5407 -0.0633
   90MOL    C8721625   2.417   4.924   4.116 -0.3330 -0.6443  0.4393
   90MOL    O8821626   2.394   5.063   4.112  0.2645 -0.0331  0.3603
   90MOL    C8921627   2.284   5.124   4.135  0.3816  0.8628  0.6761
   90MOL    C9021628   2.300   5.281   4.163  0.2705 -0.3819 -0.1637
   90MOL    O9121629   2.183   5.064   4.173 -0.4910  0.2889 -0.2051
   90MOL    H9221630   2.579   5.013   4.244 -1.9269 -0.7586  2.2011
   90MOL    H9321631   2.632   4.884   4.143  0.5945 -1.5225  1.0563
   90MOL    H9421632   2.341   4.861   4.161 -2.0184  0.3641 -0.9039
   90MOL    H9521633   2.404   5.313   4.170 -0.1000  0.9306 -0.6808
   90MOL    H9621634   2.248   5.298   4.257 -1.6505  0.4394 -1.3520
   90MOL    H9721635   2.253   5.341   4.085  1.7631  1.7321  0.5246
   90MOL    C9821636   2.445   4.889   3.967  0.0088 -0.1427  0.7574
   90MOL    C9921637   2.327   4.838   3.877  0.1169 -0.3936 -0.1461
   90MOL   O10021638   2.213   4.931   3.897  0.1404  0.0828 -0.8653
   90MOL   C10121639   2.087   4.882   3.878 -0.3757 -0.1257 -0.3914
   90MOL   C10221640   1.982   4.986   3.925 -0.0601  0.5656 -0.1361
   90MOL   O10321641   2.056   4.773   3.837 -0.0267 -0.3016 -0.7583
   90MOL   H10421642   2.496   4.968   3.911  1.8285 -1.4534  0.5411
   90MOL   H10521643   2.517   4.808   3.967  0.6333  0.3930  1.7678
   90MOL   H10621644   2.301   4.742   3.922 -1.4599  0.0858 -0.0106
   90MOL   H10721645   1.935   4.955   4.018  3.5415 -0.3266  1.4642
   90MOL   H10821646   1.907   4.982   3.846  1.8970 -1.1176 -1.9773
   90MOL   H10921647   2.034   5.082   3.927  1.9074 -0.4995  1.1899
   90MOL   C11021648   2.366   4.818   3.733  0.6083 -0.5166  0.0981
   90MOL   C11121649   2.454   4.693   3.694 -0.6423  0.1773  0.3462
   90MOL   O11221650   2.394   4.569   3.742  0.3170 -1.0831  0.1647
   90MOL   C11321651   2.453   4.495   3.848 -0.0170 -0.7504  0.6363
   90MOL   C11421652   2.400   4.353   3.856 -0.4280  0.0134 -0.7802
   90MOL   O11521653   2.542   4.533   3.923  0.0719  0.0172 -0.0722
   90MOL   H11621654   2.280   4.782   3.678  0.2396  1.6342 -0.8190
   90MOL   H11721655   2.394   4.909   3.679 -1.2315  0.1590  0.2626
   90MOL   H11821656   2.558   4.704   3.727 -0.2687 -1.5848 -0.1719
   90MOL   H11921657   2.301   4.338   3.899  0.3540  1.0545  1.4324
   90MOL   H12021658   2.462   4.286   3.916 -0.5602  1.4399  0.9668
   90MOL   H12121659   2.394   4.311   3.755  2.0580 -0.3076 -0.8316
   90MOL   C12221660   2.467   4.683   3.538  0.1839 -0.0704 -0.0554
   90MOL   C12321661   2.585   4.590   3.489  0.5312  0.4832 -0.0675
   90MOL   O12421662   2.555   4.505   3.376  0.1745 -0.4697 -0.2753
   90MOL   C12521663   2.551   4.370   3.388 -0.3534 -0.4916 -0.8605
   90MOL   C12621664   2.520   4.296   3.260  0.0874  0.0200 -0.5067
   90MOL   O12721665   2.556   4.307   3.492  0.0050  0.0560 -0.3624
   90MOL   H12821666   2.376   4.643   3.494 -0.2290 -0.6235  1.2519
   90MOL   H12921667   2.475   4.782   3.494 -1.5593 -0.3329 -1.0043
   90MOL   H13021668   2.613   4.521   3.568  0.9490 -1.6129 -1.9804
   90MOL   H13121669   2.418   4.324   3.233  0.7781  1.1890 -1.9647
   90MOL   H13221670   2.514   4.188   3.265 -0.1987 -0.0265 -1.7502
   90MOL   H13321671   2.584   4.324   3.177 -0.1197 -2.3880 -1.5126
   90MOL   C13421672   2.712   4.672   3.450  0.1162  0.3629  0.0072
   90MOL   C13521673   2.775   4.750   3.566  0.9279  0.1479 -0.7150
   90MOL   O13621674   2.818   4.662   3.664 -0.4512 -0.1957 -0.8372
   90MOL   C13721675   2.810   4.701   3.788  0.2493  0.9611  0.5833
   90MOL   C13821676   2.878   4.605   3.890 -0.6664 -0.9111  0.6978
   90MOL   O13921677   2.757   4.803   3.826  0.4558  0.2747 -0.2473
   90MOL   H14021678   2.785   4.600   3.414 -2.1424 -4.2069  4.0480
   90MOL   H14121679   2.675   4.730   3.365  2.4165  0.5466 -0.9071
   90MOL   H14221680   2.694   4.809   3.607  0.5045 -0.4020 -0.7538
   90MOL   H14321681   2.973   4.659   3.891 -1.6150  0.8928 -1.7402
   90MOL   H14421682   2.891   4.501   3.860 -1.6155 -1.1212  1.0040
   90MOL   H14521683   2.831   4.604   3.988 -0.4806  0.1824  0.8020
   90MOL   C14621684   2.897   4.834   3.529  0.0487 -0.6170 -0.1157
   90MOL   C14721685   2.866   4.942   3.422 -0.2663  1.1563 -0.4218
   90MOL   O14821686   2.790   5.048   3.479  0.3656 -0.0367 -0.4052
   90MOL   C14921687   2.662   5.080   3.426 -0.2048 -0.1213 -0.1390
   90MOL   C15021688   2.627   5.219   3.476  0.3542  0.2040  0.2622
   90MOL   O15121689   2.582   5.012   3.364 -0.1080 -0.1114 -0.1047
   90MOL   H15221690   2.936   4.884   3.618  1.8542  0.9022 -1.7142
   90MOL   H15321691   2.969   4.760   3.493 -0.7349 -0.2575 -2.4944
   90MOL   H15421692   2.815   4.901   3.335  0.0324 -0.4997  0.1773
   90MOL   H15521693   2.711   5.258   3.532  1.3200 -1.3039 -0.1087
   90MOL   H15621694   2.545   5.218   3.548  1.1759  1.9243  1.2494
   90MOL   H15721695   2.602   5.286   3.394  0.8886 -0.1326 -0.1815
   90MOL   C15821696   2.994   5.007   3.356  0.7297 -0.2852 -0.8033
   90MOL   C15921697   2.967   5.101   3.234  0.0979  0.8772 -0.3265
   90MOL   O16021698   3.059   5.211   3.226 -0.1395 -0.1084 -0.4623
   90MOL   C16121699   3.041   5.320   3.296  0.0439 -0.1668 -0.0158
   90MOL   C16221700   3.129   5.431   3.235  0.4327  0.6586  0.1535
   90MOL   O16321701   2.958   5.346   3.383  1.1936 -0.1424  0.7839
   90MOL   H16421702   3.048   5.056   3.437 -1.4335 -0.4346  0.7604
   90MOL   H16521703   3.061   4.923   3.340  1.1295 -0.5351  1.9941
   90MOL   H16621704   2.868   5.144   3.250  0.2617  1.3288 -0.4920
   90MOL   H16721705   3.153   5.492   3.321 -0.0422 -0.6562  1.2475
   90MOL   H16821706   3.082   5.503   3.168  2.4080  1.9717  0.1512
   90MOL   H16921707   3.218   5.399   3.181 -1.4935  0.3443 -2.9937
   90MOL   C17021708   2.965   5.033   3.095  0.6164 -0.7105 -0.2022
   90MOL   C17121709   2.886   5.118   2.984 -0.2102  0.3830 -0.6105
   90MOL   O17221710   2.777   5.185   3.046 -1.0582  0.2857  0.2818
   90MOL   C17321711   2.645   5.145   3.030 -0.1263 -0.3209 -1.3572
   90MOL   C17421712   2.558   5.242   3.108  0.2081 -0.0825  0.1811
   90MOL   O17521713   2.598   5.044   2.975 -0.1000  0.2499 -0.0898
   90MOL   H17621714   3.066   5.006   3.061  0.8086  0.5799 -0.6862
   90MOL   H17721715   2.900   4.945   3.099  1.3255 -1.2481 -0.2150
   90MOL   H17821716   2.839   5.060   2.906  0.0506 -2.6559  1.4176
   90MOL   H17921717   2.494   5.310   3.051 -1.0148 -1.4801 -0.1427
   90MOL   H18021718   2.631   5.299   3.166  1.1714 -0.2506 -0.8328
   90MOL   H18121719   2.492   5.195   3.180  1.5786  0.0081  1.5172
   90MOL   C18221720   2.974   5.220   2.907  0.0276 -0.5301  0.8346
   90MOL   C18321721   3.089   5.156   2.816 -0.6079 -0.0764 -0.2749
   90MOL   O18421722   3.028   5.076   2.716 -0.1550  0.5656 -0.0983
   90MOL   C18521723   3.094   4.974   2.658 -0.0521  1.2959 -0.1193
   90MOL   C18621724   2.996   4.905   2.564 -0.4512 -0.1641 -0.0826
   90MOL   O18721725   3.204   4.932   2.678 -0.0778 -0.6930  0.3183
   90MOL   H18821726   2.908   5.275   2.840 -1.4064 -2.0674  0.9327
   90MOL   H18921727   3.017   5.291   2.978  1.1677 -0.9561  0.5803
   90MOL   H19021728   3.157   5.099   2.880 -0.9906 -0.5685 -0.3065
   90MOL   H19121729   2.896   4.942   2.584 -0.5243 -1.7445  2.7937
   90MOL   H19221730   2.993   4.796   2.569 -2.8241 -0.0468  2.4038
   90MOL   H19321731   3.044   4.920   2.467  0.2729  0.7220  0.4104
   90MOL   C19421732   3.180   5.253   2.737 -0.2118  0.7771 -0.4666
   90MOL   C19521733   3.291   5.329   2.827  1.0796  0.1882 -0.2736
   90MOL   O19621734   3.392   5.236   2.854  0.2377 -0.1056  0.0032
   90MOL   C19721735   3.420   5.190   2.971  0.2397  0.5248 -0.0302
   90MOL   C19821736   3.547   5.101   2.969  0.6968 -0.3171  0.5144
   90MOL   O19921737   3.366   5.216   3.075 -0.0719  0.3432 -0.1656
   90MOL   H20021738   3.229   5.197   2.657 -1.0266  1.6005 -1.5525
   90MOL   H20121739   3.119   5.326   2.685  0.7690  1.7670 -0.2399
   90MOL   H20221740   3.244   5.369   2.917  1.8219  0.2043  0.1072
   90MOL   H20321741   3.626   5.163   2.926  0.1051 -2.1743 -3.4938
   90MOL   H20421742   3.539   5.027   2.890  1.2017  0.2693 -0.1017
   90MOL   H20521743   3.575   5.069   3.069 -0.1930  0.5904  1.0637
   90MOL   C20621744   3.363   5.446   2.752 -0.0423  1.5795 -0.5836
   90MOL   C20721745   3.278   5.570   2.731  0.2201  0.2875  0.0108
   90MOL   O20821746   3.251   5.628   2.853  0.3928  0.1442  0.1817
   90MOL   C20921747   3.122   5.617   2.901 -0.1649 -0.2575  0.2427
   90MOL   C21021748   3.104   5.720   3.008  0.0117 -0.2593  1.0749
   90MOL   O21121749   3.042   5.526   2.872  0.2364 -0.0816  0.1977
   90MOL   H21221750   3.454   5.464   2.808  0.3868  0.5076 -0.9328
   90MOL   H21321751   3.392   5.402   2.657 -1.9152 -1.6228  0.2420
   90MOL   H21421752   3.185   5.533   2.687  1.9218 -0.7461 -2.8347
   90MOL   H21521753   3.151   5.680   3.098  0.3644 -0.8975  0.6106
   90MOL   H21621754   2.997   5.740   3.013 -0.0292  0.0499 -0.8459
   90MOL   H21721755   3.165   5.803   2.971  3.0378 -3.4049 -1.2816
   90MOL   C21821756   3.344   5.680   2.647  0.0309 -0.6812 -0.2983
   90MOL   C21921757   3.254   5.806   2.638 -0.7639  0.2858  0.2263
   90MOL   O22021758   3.344   5.913   2.589 -0.0148  0.0787 -0.3338
   90MOL   C22121759   3.381   6.015   2.670 -0.5772 -0.8046  1.0160
   90MOL   C22221760   3.471   6.121   2.614 -0.0867  0.1771 -0.2032
   90MOL   O22321761   3.347   6.020   2.784 -0.2500 -0.1415 -0.0311
   90MOL   H22421762   3.435   5.705   2.702  0.2329  1.1481 -1.4473
   90MOL   H22521763   3.381   5.645   2.551  0.7701 -2.5419  0.6501
   90MOL   H22621764   3.216   5.836   2.736  1.4426  2.7114  0.4011
   90MOL   H22721765   3.413   6.211   2.594  1.0463  0.9126 -0.1990
   90MOL   H22821766   3.528   6.086   2.528 -0.1183 -0.4237  0.0222
   90MOL   H22921767   3.552   6.138   2.686  1.3004 -0.1022 -1.6665
   90MOL   C23021768   3.138   5.793   2.544  0.1658 -0.3533  0.2746
   90MOL   C23121769   3.032   5.896   2.535 -0.4031  0.0786  0.1823
   90MOL   O23221770   2.940   5.876   2.643  0.4816 -0.0592 -0.4008
   90MOL   C23321771   2.813   5.921   2.632 -0.7138  0.0819  0.9449
   90MOL   C23421772   2.733   5.920   2.754 -0.6573 -0.3497  0.2644
   90MOL   O23521773   2.766   5.967   2.523  0.3463  0.7895 -0.1500
   90MOL   H23621774   3.175   5.786   2.442 -1.8267 -2.4849 -0.3722
   90MOL   H23721775   3.098   5.692   2.558 -4.1081  0.7965 -2.6547
   90MOL   H23821776   2.987   5.871   2.439 -0.5797 -0.3512  0.3752
   90MOL   H23921777   2.752   6.009   2.814  1.9978  0.6352 -1.9414
   90MOL   H24021778   2.756   5.831   2.812  0.3288  1.7232  3.1762
   90MOL   H24121779   2.627   5.917   2.728 -0.9602 -2.1039  1.6116
   90MOL   H24221780   3.075   5.996   2.532 -2.5491  0.9931 -1.4899
   91MOL     C121781   3.422   4.189   4.765 -0.1608 -0.6365 -0.4812
   91MOL     C221782   3.569   4.221   4.739  0.4042 -0.3283  0.1663
   91MOL     O321783   3.600   4.352   4.783 -0.5095  0.3008  0.1958
   91MOL     C421784   3.687   4.434   4.713  0.1452  0.0252 -0.2383
   91MOL     C521785   3.699   4.570   4.774  0.2929 -0.1417  0.3512
   91MOL     O621786   3.753   4.402   4.616  0.2308 -0.5094 -0.0291
   91MOL     H721787   3.358   4.259   4.711 -0.7753 -2.4549 -2.1596
   91MOL     H821788   3.400   4.199   4.871 -1.6767 -1.5906 -0.6975
   91MOL     H921789   3.586   4.215   4.632 -1.7767  2.3458 -0.3839
   91MOL    H1021790   3.604   4.585   4.827 -0.7327  0.8069 -1.6779
   91MOL    H1121791   3.698   4.646   4.697 -0.1255  0.1821  0.6713
   91MOL    H1221792   3.792   4.589   4.827 -0.8652  3.2596  1.2725
   91MOL    H1321793   3.387   4.091   4.733 -3.8962  0.5527 -0.2625
   91MOL    C1421794   3.656   4.125   4.823 -0.9997  0.4176  0.1538
   91MOL    C1521795   3.799   4.104   4.768  0.2812 -0.2874 -0.2181
   91MOL    O1621796   3.879   4.060   4.875  0.3328 -0.0816 -0.1597
   91MOL    C1721797   3.975   4.130   4.929 -0.1054  0.8190 -0.4715
   91MOL    C1821798   4.032   4.081   5.068 -0.1361 -1.0220  0.7488
   91MOL    O1921799   4.030   4.227   4.868 -0.1569  0.3279  0.0550
   91MOL    H2021800   3.656   4.170   4.922 -0.5241  1.6814 -0.3993
   91MOL    H2121801   3.595   4.035   4.822 -1.1229  0.5044 -1.1159
   91MOL    H2221802   3.828   4.203   4.730 -1.3932  1.3294  2.5224
   91MOL    H2321803   4.029   4.164   5.139  0.1501  1.2765 -1.8375
   91MOL    H2421804   4.134   4.048   5.054 -0.4378 -1.2879 -0.9378
   91MOL    H2521805   3.968   3.998   5.099  3.0786 -3.5153  0.9683
   91MOL    C2621806   3.809   4.010   4.649  0.2056 -0.7648  0.5263
   91MOL    C2721807   3.939   4.007   4.571  0.3579 -0.5415  0.7253
   91MOL    O2821808   3.960   3.875   4.528  0.0504 -0.4110 -0.4882
   91MOL    C2921809   4.035   3.782   4.596 -0.1528 -0.6084 -0.9175
   91MOL    C3021810   4.046   3.649   4.524 -0.4044  0.0548  0.4059
   91MOL    O3121811   4.088   3.791   4.711 -0.3211 -0.2271 -0.8947
   91MOL    H3221812   3.796   3.910   4.690 -0.9261 -1.1286 -0.6728
   91MOL    H3321813   3.726   4.029   4.581  1.5756  2.3460 -0.3535
   91MOL    H3421814   4.021   4.019   4.643  0.9082  0.9244 -0.1241
   91MOL    H3521815   4.125   3.656   4.449  0.2739 -2.2360  0.8819
   91MOL    H3621816   3.951   3.638   4.472 -0.0589 -1.8553  0.1404
   91MOL    H3721817   4.072   3.564   4.586 -1.0005 -1.7190 -1.6978
   91MOL    C3821818   3.945   4.107   4.457 -0.1626  0.3006 -0.3645
   91MOL    C3921819   4.089   4.116   4.402 -0.1288  0.3777  0.4265
   91MOL    O4021820   4.088   4.183   4.273 -0.4749  0.0886 -0.0679
   91MOL    C4121821   4.106   4.113   4.161 -0.1546 -0.3335 -0.9080
   91MOL    C4221822   4.107   4.205   4.039 -0.2619 -0.8739  0.7403
   91MOL    O4321823   4.125   3.993   4.158 -0.3280  0.2152  0.4691
   91MOL    H4421824   3.872   4.089   4.378 -0.4373  0.7804 -0.2242
   91MOL    H4521825   3.935   4.207   4.500 -2.0936 -1.2251  2.9099
   91MOL    H4621826   4.131   4.016   4.387 -0.1542  0.7929 -2.9963
   91MOL    H4721827   4.180   4.282   4.062 -0.1221 -0.4738 -0.9650
   91MOL    H4821828   4.014   4.260   4.024  0.6278  0.5656  0.4674
   91MOL    H4921829   4.133   4.157   3.944 -1.2148 -0.8414  0.4591
   91MOL    C5021830   4.179   4.186   4.499 -0.8225 -0.4193 -0.2209
   91MOL    C5121831   4.280   4.082   4.566 -0.3199 -0.2695  0.2531
   91MOL    O5221832   4.366   4.049   4.463 -0.3228 -0.1830 -0.4596
   91MOL    C5321833   4.394   3.925   4.438  0.3988  0.0199 -0.1108
   91MOL    C5421834   4.501   3.898   4.327  0.5072  0.1197  0.0533
   91MOL    O5521835   4.339   3.829   4.507  0.5141 -0.0008  0.3238
   91MOL    H5621836   4.236   4.259   4.441 -2.2622  1.3629  0.5595
   91MOL    H5721837   4.136   4.248   4.578  1.4761 -0.8459  1.4146
   91MOL    H5821838   4.223   3.997   4.603 -2.1262  0.1807 -1.3784
   91MOL    H5921839   4.535   3.989   4.276  3.1667 -0.1183  1.3052
   91MOL    H6021840   4.450   3.835   4.255  0.2745  0.0348  0.2932
   91MOL    H6121841   4.579   3.829   4.360  0.0144  0.1512  1.3281
   91MOL    C6221842   4.360   4.158   4.683  0.3890 -0.2722 -0.1710
   91MOL    C6321843   4.449   4.060   4.771 -0.1301 -0.0771 -0.7146
   91MOL    O6421844   4.529   4.140   4.855  0.6002 -0.3918 -0.4138
   91MOL    C6521845   4.660   4.143   4.826 -0.5871 -0.7810 -0.0030
   91MOL    C6621846   4.740   4.224   4.927 -0.0286 -0.6338  0.6796
   91MOL    O6721847   4.716   4.093   4.726 -0.4877  0.1244 -0.5582
   91MOL    H6821848   4.431   4.228   4.638  0.8557 -0.6487 -0.0261
   91MOL    H6921849   4.300   4.219   4.750  3.6615  0.2653  2.3866
   91MOL    H7021850   4.502   3.993   4.704 -0.9438  0.9361 -2.4162
   91MOL    H7121851   4.705   4.326   4.940 -1.4112 -0.9469 -0.3977
   91MOL    H7221852   4.842   4.230   4.891  0.6179  0.8033  2.6902
   91MOL    H7321853   4.741   4.176   5.026 -1.3586  0.0436  1.0400
   91MOL    C7421854   4.354   3.981   4.865  0.7419 -0.0576  0.1764
   91MOL    C7521855   4.398   3.832   4.901 -0.7830 -0.2931  0.6221
   91MOL    O7621856   4.524   3.842   4.966 -0.3324 -0.0060  0.5266
   91MOL    C7721857   4.619   3.742   4.943  0.3657 -0.0165  0.3800
   91MOL    C7821858   4.727   3.728   5.050  0.1511  0.2209 -0.1881
   91MOL    O7921859   4.607   3.641   4.866  0.3302 -0.0392 -0.2455
   91MOL    H8021860   4.338   4.042   4.954 -2.1165  1.1956 -1.1614
   91MOL    H8121861   4.257   3.960   4.821  2.1026 -0.3732 -2.8055
   91MOL    H8221862   4.411   3.773   4.810 -1.3507 -1.4863  1.3066
   91MOL    H8321863   4.743   3.827   5.093  1.1709  0.7114 -1.6569
   91MOL    H8421864   4.816   3.683   5.006  0.1099 -0.0130 -0.0316
   91MOL    H8521865   4.689   3.658   5.125  1.4940  2.1109  2.3279
   91MOL    C8621866   4.303   3.763   4.992 -0.0278 -0.4733  0.0724
   91MOL    C8721867   4.338   3.622   5.037  0.0937 -0.5027  0.1003
   91MOL    O8821868   4.273   3.598   5.161  0.0712  0.2439 -0.1275
   91MOL    C8921869   4.338   3.610   5.280  0.6056  0.0281  0.4655
   91MOL    C9021870   4.264   3.591   5.405  0.0034 -0.2794  0.1583
   91MOL    O9121871   4.457   3.633   5.281 -0.0803 -0.0360  0.7334
   91MOL    H9221872   4.280   3.825   5.079  1.8248  1.8561 -1.0401
   91MOL    H9321873   4.207   3.756   4.940 -0.0213  0.3331 -0.0587
   91MOL    H9421874   4.442   3.616   5.067  0.1439  2.5149  0.7392
   91MOL    H9521875   4.222   3.491   5.411 -0.3038 -0.2579 -1.4548
   91MOL    H9621876   4.187   3.665   5.426  0.0972 -0.8648  2.8083
   91MOL    H9721877   4.339   3.604   5.484  1.1745  0.4804 -1.0571
   91MOL    C9821878   4.308   3.512   4.944  0.2269  1.0986 -0.6694
   91MOL    C9921879   4.382   3.384   4.977 -0.2735  1.1523 -0.0456
   91MOL   O10021880   4.312   3.315   5.084  0.2319 -0.0513 -0.5141
   91MOL   C10121881   4.373   3.244   5.180  0.6922 -0.0319  0.4699
   91MOL   C10221882   4.273   3.204   5.292 -0.2743 -0.0525  0.0473
   91MOL   O10321883   4.491   3.203   5.171 -0.5308 -0.2568 -0.1977
   91MOL   H10421884   4.203   3.493   4.921  0.1197  1.1473 -0.2092
   91MOL   H10521885   4.344   3.536   4.844  0.8262  0.0957 -0.6932
   91MOL   H10621886   4.482   3.406   5.013 -0.1218  2.1229 -1.0138
   91MOL   H10721887   4.231   3.106   5.270 -0.9640  0.5280 -1.2901
   91MOL   H10821888   4.186   3.269   5.286 -0.5503 -0.5531 -1.8800
   91MOL   H10921889   4.312   3.206   5.394 -1.0955  0.0846  0.3613
   91MOL   C11021890   4.390   3.279   4.855  0.2301  0.1818 -1.2240
   91MOL   C11121891   4.530   3.210   4.829 -0.2429 -0.5463  0.2121
   91MOL   O11221892   4.506   3.113   4.730  0.0504  0.6093 -0.5051
   91MOL   C11321893   4.454   2.991   4.766 -0.2996 -1.0350  0.2484
   91MOL   C11421894   4.444   2.897   4.645  0.2846  0.5237 -0.1462
   91MOL   O11521895   4.417   2.964   4.880  0.5755 -0.6344  0.6977
   91MOL   H11621896   4.312   3.205   4.868 -1.7404  1.8304 -3.3429
   91MOL   H11721897   4.373   3.331   4.760  0.3102  1.8588 -0.3484
   91MOL   H11821898   4.571   3.175   4.923  0.3709  3.3127  1.4642
   91MOL   H11921899   4.435   2.791   4.669 -0.2947 -0.0896 -2.8317
   91MOL   H12021900   4.523   2.915   4.571 -0.5281  0.5666 -1.0156
   91MOL   H12121901   4.348   2.924   4.601  0.9558  1.0993 -1.3043
   91MOL   C12221902   4.627   3.317   4.787  0.4251  0.0049 -0.1103
   91MOL   C12321903   4.766   3.272   4.749 -0.3637  0.1942 -0.5668
   91MOL   O12421904   4.776   3.218   4.613 -0.6416 -0.0049 -0.1926
   91MOL   C12521905   4.780   3.083   4.587  1.0613 -0.6378  0.2494
   91MOL   C12621906   4.768   3.049   4.441 -0.6717 -0.6107 -0.7894
   91MOL   O12721907   4.794   2.994   4.670 -1.1888  0.0880 -0.1100
   91MOL   H12821908   4.586   3.383   4.710  0.3435  1.3633  1.0777
   91MOL   H12921909   4.635   3.377   4.877 -2.3515  0.6277 -0.2335
   91MOL   H13021910   4.788   3.205   4.831 -2.0089 -1.7402 -1.6739
   91MOL   H13121911   4.856   3.096   4.398  0.4090  0.9474  2.8943
   91MOL   H13221912   4.677   3.086   4.395 -0.2710 -1.8404 -2.6018
   91MOL   H13321913   4.784   2.942   4.426  2.8455 -0.8002  3.2376
   91MOL   C13421914   4.865   3.391   4.739  0.8748 -0.0230 -0.7016
   91MOL   C13521915   5.009   3.353   4.777 -0.3689 -0.4472 -0.2924
   91MOL   O13621916   5.060   3.253   4.694 -0.2822  0.4695 -0.3144
   91MOL   C13721917   5.133   3.151   4.739  0.5413  0.3405  0.4025
   91MOL   C13821918   5.184   3.057   4.638 -0.3871  0.0901  0.4533
   91MOL   O13921919   5.149   3.123   4.857 -0.1999 -0.6434  0.5903
   91MOL   H14021920   4.851   3.442   4.644 -0.1631 -2.2266 -1.7668
   91MOL   H14121921   4.841   3.468   4.812 -0.0148 -1.2297  0.3111
   91MOL   H14221922   5.009   3.319   4.881 -2.5970  0.1758 -0.0593
   91MOL   H14321923   5.218   2.967   4.688 -1.2258  0.2050  1.2395
   91MOL   H14421924   5.276   3.095   4.593  0.6146 -1.2550  1.3434
   91MOL   H14521925   5.108   3.032   4.563 -1.5295  2.4436  0.7663
   91MOL   C14621926   5.111   3.471   4.774  0.5898 -0.9856  0.4461
   91MOL   C14721927   5.103   3.584   4.878 -0.1223 -0.1464  0.0844
   91MOL   O14821928   5.147   3.525   4.997  0.2962  0.3840  0.2358
   91MOL   C14921929   5.061   3.476   5.089 -0.1594  0.0967 -0.6657
   91MOL   C15021930   5.128   3.417   5.212  0.4355  0.3677 -0.8665
   91MOL   O15121931   4.937   3.477   5.075  0.3653 -0.2282 -0.1652
   91MOL   H15221932   5.205   3.416   4.775  1.1533 -0.1534 -1.7832
   91MOL   H15321933   5.109   3.516   4.674  1.5531  2.8670  2.0787
   91MOL   H15421934   5.005   3.631   4.879  0.3704  0.9413 -1.0673
   91MOL   H15521935   5.069   3.333   5.247 -0.7486  2.4013  2.2773
   91MOL   H15621936   5.131   3.485   5.297 -1.7084 -1.2432  0.5149
   91MOL   H15721937   5.231   3.384   5.193  0.4526  0.9479 -1.7751
   91MOL   C15821938   5.193   3.695   4.830 -0.6845  0.1750  0.4188
   91MOL   C15921939   5.206   3.814   4.933 -0.6264 -0.2348  0.0539
   91MOL   O16021940   5.272   3.936   4.888 -0.1725  0.6271  0.1361
   91MOL   C16121941   5.398   3.941   4.865  0.6887 -0.2332  0.1796
   91MOL   C16221942   5.452   4.077   4.828 -0.3512  0.0832 -0.4207
   91MOL   O16321943   5.478   3.851   4.882 -0.1138  0.8043 -0.2704
   91MOL   H16421944   5.292   3.658   4.803 -0.5130 -0.6839  2.1516
   91MOL   H16521945   5.152   3.738   4.739 -0.1385 -3.0575 -1.4400
   91MOL   H16621946   5.264   3.782   5.019 -0.6821  0.3944  0.3277
   91MOL   H16721947   5.463   4.140   4.916  0.0669  1.0029 -1.1208
   91MOL   H16821948   5.383   4.123   4.757 -1.6496 -0.2669  0.6065
   91MOL   H16921949   5.551   4.067   4.783 -0.0199  0.7534  0.1384
   91MOL   C17021950   5.082   3.866   5.005  0.4055  0.5906 -0.3225
   91MOL   C17121951   5.105   3.934   5.139  0.3296 -0.1112  0.3850
   91MOL   O17221952   5.163   4.059   5.108 -0.8703 -0.0394  0.4403
   91MOL   C17321953   5.270   4.109   5.162 -0.3407  0.0620  0.0780
   91MOL   C17421954   5.302   4.243   5.106 -0.0755  0.2165  0.5840
   91MOL   O17521955   5.339   4.048   5.250  0.4364 -0.2904  0.0620
   91MOL   H17621956   5.018   3.924   4.939 -1.1045 -1.1283 -0.4370
   91MOL   H17721957   5.023   3.777   5.032  2.7908 -0.6928  0.8203
   91MOL   H17821958   5.180   3.873   5.190  0.3842  1.9194  2.8743
   91MOL   H17921959   5.407   4.270   5.119  0.0771  0.1780 -0.5655
   91MOL   H18021960   5.234   4.311   5.158 -0.9629 -1.2279  1.3366
   91MOL   H18121961   5.275   4.249   5.001  0.6292 -0.4335  0.3701
   91MOL   C18221962   4.982   3.951   5.227 -1.1075 -0.3841  0.2500
   91MOL   C18321963   5.008   4.004   5.367  0.6738  0.2598 -0.1535
   91MOL   O18421964   4.884   4.057   5.432  0.0560  0.1764  0.3449
   91MOL   C18521965   4.878   4.191   5.480  0.5760 -0.2395  0.8350
   91MOL   C18621966   4.743   4.225   5.544  0.3348  0.2508 -0.4240
   91MOL   O18721967   4.979   4.264   5.487 -0.2434 -0.5960 -1.2805
   91MOL   H18821968   4.908   4.014   5.177  0.9307  0.2535 -2.1114
   91MOL   H18921969   4.919   3.863   5.231 -1.4270 -0.2045 -0.5748
   91MOL   H19021970   5.074   4.088   5.345  0.5678  0.7664  1.4223
   91MOL   H19121971   4.672   4.239   5.462  0.7145 -2.2315 -1.2347
   91MOL   H19221972   4.753   4.317   5.601 -1.3950  0.1325  0.0928
   91MOL   H19321973   4.712   4.136   5.599 -1.2658 -0.1449 -1.9130
   91MOL   C19421974   5.077   3.907   5.457 -0.2643  0.4593 -0.2483
   91MOL   C19521975   4.999   3.823   5.561 -0.3085 -0.8759 -0.6157
   91MOL   O19621976   4.913   3.738   5.491  0.1207  0.4480  0.2155
   91MOL   C19721977   4.779   3.733   5.517 -0.2775 -0.1068 -0.2053
   91MOL   C19821978   4.707   3.627   5.437  0.3010 -0.5271 -0.6033
   91MOL   O19921979   4.710   3.814   5.584  0.3988 -0.1275  0.1054
   91MOL   H20021980   5.136   3.836   5.400  0.1392  0.5468  0.0521
   91MOL   H20121981   5.145   3.966   5.519 -2.1720  0.2867  2.1158
   91MOL   H20221982   4.948   3.899   5.620 -1.8141 -1.9658 -0.4636
   91MOL   H20321983   4.647   3.565   5.503  0.3600  0.5462  0.4729
   91MOL   H20421984   4.772   3.570   5.371  1.7970 -0.8139  1.0991
   91MOL   H20521985   4.641   3.695   5.383  0.0578  0.0786  0.4329
   91MOL   C20621986   5.090   3.749   5.655 -0.3699  0.1092 -0.5576
   91MOL   C20721987   5.020   3.666   5.759  0.0394 -1.2097 -0.2273
   91MOL   O20821988   4.990   3.539   5.706  0.2916  0.0797 -0.6519
   91MOL   C20921989   4.890   3.468   5.763 -0.7883 -0.2593  1.0634
   91MOL   C21021990   4.859   3.340   5.684 -0.1170  0.4710  0.7202
   91MOL   O21121991   4.816   3.519   5.856  0.1299  0.3187  0.2946
   91MOL   H21221992   5.138   3.672   5.594 -0.6008  1.1361 -2.0652
   91MOL   H21321993   5.161   3.822   5.694  1.6871 -0.3259 -3.3634
   91MOL   H21421994   4.926   3.716   5.777  1.3639  2.0897 -2.0584
   91MOL   H21521995   4.944   3.330   5.616 -0.6231 -2.0712  0.4314
   91MOL   H21621996   4.763   3.335   5.633 -0.2024 -0.7596  0.9995
   91MOL   H21721997   4.873   3.259   5.755  0.9910  0.6152  0.6849
   91MOL   C21821998   5.104   3.639   5.896  0.2191  0.8100  0.0611
   91MOL   C21921999   5.117   3.768   5.986 -0.5713  0.3402 -0.3913
   91MOL   O22022000   4.993   3.827   5.986 -0.1595  0.1824 -0.3130
   91MOL   C22122001   4.962   3.938   5.916 -0.3495 -0.1476  0.0100
   91MOL   C22222002   4.822   3.994   5.937 -0.4256 -0.3633  0.4170
   91MOL   O22322003   5.045   3.994   5.852  0.4730 -0.3045 -0.3889
   91MOL   H22422004   5.046   3.562   5.946  1.9503  0.4159  1.5217
   91MOL   H22522005   5.207   3.607   5.879 -0.4264 -0.5572 -1.4550
   91MOL   H22622006   5.196   3.831   5.945  0.0158 -0.9441 -1.2393
   91MOL   H22722007   4.789   3.975   6.039 -0.1358 -0.5265  0.4811
   91MOL   H22822008   4.755   3.930   5.880 -0.2236 -1.5734  1.5263
   91MOL   H22922009   4.815   4.101   5.917 -0.1260 -0.4871 -0.3476
   91MOL   C23022010   5.140   3.722   6.130  0.1921  0.5887  0.8568
   91MOL   C23122011   5.173   3.850   6.218  0.0567  0.4565  0.0548
   91MOL   O23222012   5.186   3.797   6.354  0.4910 -0.0195 -0.1985
   91MOL   C23322013   5.303   3.790   6.410 -0.6476 -0.1076  0.3049
   91MOL   C23422014   5.292   3.789   6.554  0.4037  0.3189  0.5569
   91MOL   O23522015   5.410   3.797   6.356 -0.0776  0.0515  0.1002
   91MOL   H23622016   5.048   3.670   6.155 -0.8312  0.3607 -3.0422
   91MOL   H23722017   5.223   3.653   6.130  0.6734  1.0143 -3.5495
   91MOL   H23822018   5.091   3.922   6.219  0.6016  1.0827  1.6520
   91MOL   H23922019   5.364   3.719   6.595 -0.4402 -1.1168 -0.4015
   91MOL   H24022020   5.192   3.758   6.584 -0.9345 -0.0959 -3.9427
   91MOL   H24122021   5.312   3.890   6.591  1.3378  0.7240 -1.0457
   91MOL   H24222022   5.260   3.902   6.178  0.0152  1.1630  0.8643
   92MOL     C122023   7.755   1.744   0.142 -0.1731 -0.1199  0.9578
   92MOL     C222024   7.618   1.796   0.189  0.0581  0.5251  0.3128
   92MOL     O322025   7.548   1.833   0.067  0.0814  0.1907  0.0987
   92MOL     C422026   7.566   1.954   0.009  0.3044  0.0437 -0.2360
   92MOL     C522027   7.473   1.970   7.903  0.4424  0.6093 -0.0131
   92MOL     O622028   7.639   2.042   0.052 -0.4153 -0.5511 -0.2041
   92MOL     H722029   7.743   1.656   0.078 -0.0904  1.7691 -1.7557
   92MOL     H822030   7.833   1.712   0.211  0.0326  1.0254  1.2559
   92MOL     H922031   7.625   1.878   0.261  0.5506  1.4052 -0.7154
   92MOL    H1022032   7.377   1.922   7.918 -0.4004  2.7469  1.6428
   92MOL    H1122033   7.527   1.925   7.819  0.0715  3.9470 -2.1363
   92MOL    H1222034   7.458   2.078   7.908 -2.0373  0.2724  0.3442
   92MOL    H1322035   7.810   1.820   0.087 -0.7755  1.8831  3.0985
   92MOL    C1422036   7.542   1.682   0.247  0.0974 -0.7384  0.0401
   92MOL    C1522037   7.399   1.725   0.294 -0.3367  0.1397 -0.1546
   92MOL    O1622038   7.308   1.712   0.186  0.1091 -0.1135 -0.1354
   92MOL    C1722039   7.240   1.820   0.143 -0.5094 -0.1048  0.5059
   92MOL    C1822040   7.133   1.787   0.042 -0.5276  0.2188  0.1248
   92MOL    O1922041   7.272   1.940   0.169  0.3225 -0.0820  0.6347
   92MOL    H2022042   7.532   1.609   0.167  0.5081 -1.2791  0.4748
   92MOL    H2122043   7.597   1.641   0.331  1.0328  0.3794 -0.0131
   92MOL    H2222044   7.404   1.827   0.335 -0.1927  0.0980 -0.0663
   92MOL    H2322045   7.176   1.703   8.008 -1.0919  0.4552 -0.6821
   92MOL    H2422046   7.126   1.873   7.997 -1.0082  0.2685  0.2330
   92MOL    H2522047   7.037   1.761   0.088 -1.2216 -0.5900 -1.7155
   92MOL    C2622048   7.353   1.644   0.414  0.2380  0.2855 -0.1501
   92MOL    C2722049   7.311   1.497   0.397  0.1850  1.2365 -0.2350
   92MOL    O2822050   7.410   1.416   0.336  0.2017 -0.2671 -0.0034
   92MOL    C2922051   7.380   1.320   0.246  0.4142  0.5823  0.7663
   92MOL    C3022052   7.500   1.243   0.189  0.1798 -0.4463 -0.1282
   92MOL    O3122053   7.266   1.309   0.198 -0.1411 -0.5892 -0.1431
   92MOL    H3222054   7.432   1.630   0.488 -1.5081  1.4441  1.9970
   92MOL    H3322055   7.273   1.699   0.462  0.5865  0.7447 -0.0861
   92MOL    H3422056   7.225   1.513   0.332  0.2123 -0.4854 -0.7090
   92MOL    H3522057   7.470   1.146   0.149 -1.1552 -0.6331  1.2640
   92MOL    H3622058   7.584   1.226   0.257  1.3233  0.3765 -1.2866
   92MOL    H3722059   7.547   1.313   0.119  0.4975  0.0964  0.6199
   92MOL    C3822060   7.253   1.436   0.523 -0.3062  0.6744  0.1830
   92MOL    C3922061   7.123   1.502   0.569  0.1739 -0.8401  0.0594
   92MOL    O4022062   7.024   1.493   0.458 -0.2091 -0.4314 -0.5643
   92MOL    C4122063   6.984   1.606   0.392  0.7219  0.8625 -0.1866
   92MOL    C4222064   6.865   1.581   0.303  0.1368  0.3541  0.5183
   92MOL    O4322065   7.031   1.717   0.405 -0.8000  0.6296 -0.6624
   92MOL    H4422066   7.242   1.328   0.514 -2.9214  0.8778  0.5753
   92MOL    H4522067   7.327   1.443   0.603 -1.8671 -0.5528  1.7624
   92MOL    H4622068   7.140   1.605   0.601 -0.2559 -1.3101  1.8577
   92MOL    H4722069   6.802   1.667   0.325  0.8242  0.8548  0.5735
   92MOL    H4822070   6.806   1.492   0.323 -0.5484  0.3949 -1.1919
   92MOL    H4922071   6.887   1.584   0.196  1.7363  2.5288  0.8592
   92MOL    C5022072   7.049   1.424   0.687 -0.1579 -0.0407 -0.1802
   92MOL    C5122073   6.920   1.476   0.744 -0.4170 -0.2704  0.0948
   92MOL    O5222074   6.927   1.617   0.740 -0.3128  0.3739  0.2594
   92MOL    C5322075   6.876   1.700   0.831  0.0405  0.4170  0.3620
   92MOL    C5422076   6.877   1.850   0.788  0.4509 -0.9507  0.0101
   92MOL    O5522077   6.826   1.663   0.938 -1.0083  0.0050  0.2323
   92MOL    H5622078   7.042   1.317   0.669  2.9136 -0.7473  2.3583
   92MOL    H5722079   7.124   1.425   0.766  0.6775  1.4223 -0.9605
   92MOL    H5822080   6.911   1.440   0.847  0.6052 -0.7759  0.0220
   92MOL    H5922081   6.848   1.850   0.683 -1.6425 -0.7163  0.5591
   92MOL    H6022082   6.978   1.878   0.816  0.0440 -0.8921  1.4727
   92MOL    H6122083   6.795   1.903   0.836  1.4758 -0.9993  1.8711
   92MOL    C6222084   6.794   1.425   0.670  1.2220 -0.3496 -0.0876
   92MOL    C6322085   6.666   1.458   0.747  0.5976  0.9749  0.7991
   92MOL    O6422086   6.568   1.486   0.650  0.2421 -0.8254  0.5277
   92MOL    C6522087   6.508   1.611   0.645  0.5733 -0.2541  0.4402
   92MOL    C6622088   6.404   1.613   0.533  0.8212 -0.0772 -0.4106
   92MOL    O6722089   6.539   1.710   0.709 -0.2733 -0.3543 -0.2918
   92MOL    H6822090   6.779   1.467   0.570 -0.1931  1.6803  0.9401
   92MOL    H6922091   6.812   1.319   0.651  1.8290 -0.0505 -1.2321
   92MOL    H7022092   6.671   1.539   0.820 -1.3327  0.9537  0.9825
   92MOL    H7122093   6.429   1.690   0.460 -1.8962 -0.6144 -1.9660
   92MOL    H7222094   6.304   1.624   0.575  1.0023 -1.6796  0.5064
   92MOL    H7322095   6.394   1.520   0.476  1.8936 -0.8449  0.6189
   92MOL    C7422096   6.609   1.327   0.816 -0.2135  0.7152  0.5943
   92MOL    C7522097   6.520   1.341   0.946  0.7734  0.5278 -0.1723
   92MOL    O7622098   6.587   1.437   1.022  0.1883  0.1710  0.0558
   92MOL    C7722099   6.593   1.423   1.160  0.5264 -0.2062 -0.2233
   92MOL    C7822100   6.707   1.518   1.214 -0.0690  0.6474 -0.3777
   92MOL    O7922101   6.522   1.354   1.238 -0.6857 -0.4944 -0.5588
   92MOL    H8022102   6.570   1.261   0.739  3.1266 -1.8093  0.9993
   92MOL    H8122103   6.700   1.280   0.853  0.0345 -0.1769 -1.1167
   92MOL    H8222104   6.514   1.252   1.008  0.6116  0.7981  0.2028
   92MOL    H8322105   6.709   1.507   1.323  1.2819 -3.6709 -0.7209
   92MOL    H8422106   6.679   1.620   1.188 -0.0639  0.2851 -1.8435
   92MOL    H8522107   6.803   1.503   1.167 -0.1708 -1.2851 -0.0121
   92MOL    C8622108   6.375   1.392   0.916 -0.2313  0.4774  0.6386
   92MOL    C8722109   6.274   1.279   0.881  1.0885 -0.4713 -0.0430
   92MOL    O8822110   6.331   1.192   0.787  0.3045  0.0770  0.0897
   92MOL    C8922111   6.316   1.210   0.653 -0.0068 -0.6796  0.3616
   92MOL    C9022112   6.415   1.123   0.571  0.1581 -0.0318  0.2027
   92MOL    O9122113   6.233   1.274   0.595  0.0845  0.2003  0.2212
   92MOL    H9222114   6.340   1.445   1.005 -0.0577  0.6268  0.6177
   92MOL    H9322115   6.386   1.469   0.839 -0.4268  0.3114  0.4446
   92MOL    H9422116   6.196   1.341   0.836  0.4385 -1.2323  0.0140
   92MOL    H9522117   6.450   1.042   0.635 -0.3679 -0.0947  0.4112
   92MOL    H9622118   6.511   1.174   0.559 -0.7909  1.7591  0.1909
   92MOL    H9722119   6.379   1.089   0.474 -0.8982 -2.2989  1.3296
   92MOL    C9822120   6.218   1.192   0.994 -0.2596  0.1646  0.0071
   92MOL    C9922121   6.103   1.096   0.969  0.2759  0.6574  0.1331
   92MOL   O10022122   6.155   0.973   0.917  0.3335  0.0383  0.6864
   92MOL   C10122123   6.103   0.933   0.806  0.4921 -0.1001 -0.4844
   92MOL   C10222124   6.177   0.812   0.747 -0.5725  0.4359  0.6327
   92MOL   O10322125   6.005   0.987   0.751  0.1630  0.4775  0.0353
   92MOL   H10422126   6.303   1.145   1.042 -1.3943 -1.2503  0.6603
   92MOL   H10522127   6.184   1.267   1.066  2.1594 -0.1714  1.5631
   92MOL   H10622128   6.027   1.142   0.905 -1.8686 -1.0796  1.3646
   92MOL   H10722129   6.275   0.835   0.706 -0.7721 -0.7791 -0.5588
   92MOL   H10822130   6.116   0.758   0.674 -0.3502 -0.2664  0.9634
   92MOL   H10922131   6.200   0.730   0.816  0.9996 -2.0479 -2.7287
   92MOL   C11022132   6.018   1.064   1.093 -0.0271 -0.8718 -0.1296
   92MOL   C11122133   6.092   0.967   1.198  0.2365  0.4275  0.2534
   92MOL   O11222134   6.176   1.059   1.262 -0.0868  0.3104 -0.4191
   92MOL   C11322135   6.299   1.014   1.309 -0.3690  0.5689 -0.0438
   92MOL   C11422136   6.367   1.125   1.389 -0.2648 -0.4670 -0.1428
   92MOL   O11522137   6.359   0.909   1.301 -0.2514 -0.0721  0.5689
   92MOL   H11622138   5.988   1.157   1.141  1.6014 -0.5635  0.3300
   92MOL   H11722139   5.920   1.028   1.064 -0.9391  0.1286  1.6930
   92MOL   H11822140   6.150   0.893   1.143  0.8700 -0.0157  1.4900
   92MOL   H11922141   6.456   1.168   1.342  0.2775 -0.4257  0.9008
   92MOL   H12022142   6.386   1.069   1.480  0.5586  0.1064  0.0450
   92MOL   H12122143   6.294   1.201   1.417 -0.9635 -1.1552 -0.0903
   92MOL   C12222144   6.006   0.897   1.307 -0.5443 -0.2409  0.1457
   92MOL   C12322145   5.957   0.988   1.425  0.4167 -0.5489  0.5496
   92MOL   O12422146   5.881   1.083   1.362  0.1254  0.4021 -0.2927
   92MOL   C12522147   5.868   1.204   1.415  0.3704  0.4908 -0.1320
   92MOL   C12622148   5.770   1.297   1.344  0.2110 -0.3838 -0.3655
   92MOL   O12722149   5.916   1.237   1.527  0.8849 -0.1256 -0.1052
   92MOL   H12822150   5.919   0.855   1.257  0.7419 -2.3917 -0.3429
   92MOL   H12922151   6.061   0.812   1.347 -2.2174 -3.0049 -3.2104
   92MOL   H13022152   6.043   1.038   1.469  0.1471  0.8675 -0.4740
   92MOL   H13122153   5.683   1.247   1.302  0.0742 -1.2423  0.9283
   92MOL   H13222154   5.817   1.338   1.254 -0.2541 -1.1708 -0.9622
   92MOL   H13322155   5.749   1.385   1.405 -0.9074 -1.3192  0.6190
   92MOL   C13422156   5.865   0.913   1.523  1.1288  0.1132 -0.7079
   92MOL   C13522157   5.929   0.806   1.600 -0.2115 -0.1550  1.2105
   92MOL   O13622158   6.012   0.863   1.703 -0.4864  0.1943  0.7101
   92MOL   C13722159   6.148   0.859   1.693  0.0930 -1.0763 -0.4359
   92MOL   C13822160   6.204   0.902   1.827  0.5653 -0.0979  0.3646
   92MOL   O13922161   6.216   0.831   1.591  0.0695  0.6157  0.5733
   92MOL   H14022162   5.822   0.981   1.597  0.7052 -1.1465  0.2110
   92MOL   H14122163   5.779   0.879   1.466  0.0738  2.3913 -0.5657
   92MOL   H14222164   5.978   0.732   1.535  0.1841 -2.4619  4.0131
   92MOL   H14322165   6.250   1.001   1.820 -1.2867  0.8238  0.9705
   92MOL   H14422166   6.277   0.824   1.848 -0.4071 -0.6492  1.7447
   92MOL   H14522167   6.120   0.911   1.896 -0.3445  2.5217 -1.0335
   92MOL   C14622168   5.833   0.718   1.673 -0.1157  0.8451 -0.0002
   92MOL   C14722169   5.759   0.625   1.584  1.2792 -0.1990 -0.1183
   92MOL   O14822170   5.845   0.514   1.562  0.5767  0.0375  0.1389
   92MOL   C14922171   5.912   0.499   1.444  0.9620 -0.0928 -0.3315
   92MOL   C15022172   5.990   0.370   1.438  0.3424 -0.7399 -0.5071
   92MOL   O15122173   5.909   0.580   1.350 -0.1113  0.3493  0.0625
   92MOL   H15222174   5.881   0.646   1.739  0.2771 -1.5763 -2.8057
   92MOL   H15322175   5.768   0.773   1.741  0.3742  1.7919 -0.2821
   92MOL   H15422176   5.723   0.674   1.494 -3.9140  0.3848  2.0944
   92MOL   H15522177   6.080   0.374   1.499  0.3911  1.7590 -0.6858
   92MOL   H15622178   6.006   0.340   1.334 -0.0389  0.3903 -0.9043
   92MOL   H15722179   5.929   0.286   1.472 -2.4859  1.1093 -0.8285
   92MOL   C15822180   5.633   0.572   1.652 -0.0044  0.0563  0.0687
   92MOL   C15922181   5.519   0.672   1.659  0.7634 -0.4123  0.4837
   92MOL   O16022182   5.488   0.707   1.525 -0.4017  0.4128  0.1114
   92MOL   C16122183   5.478   0.841   1.489  0.0563 -0.3106  0.6236
   92MOL   C16222184   5.472   0.862   1.340 -0.0166  0.0138  0.9922
   92MOL   O16322185   5.494   0.935   1.562 -0.0701  0.0242 -0.1946
   92MOL   H16422186   5.598   0.476   1.614 -1.7976  1.1769 -1.1790
   92MOL   H16522187   5.664   0.553   1.755  0.1502 -0.4783 -0.0740
   92MOL   H16622188   5.541   0.763   1.716  0.3967  0.1783 -0.3063
   92MOL   H16722189   5.500   0.766   1.297 -0.7681 -1.1333  3.0249
   92MOL   H16822190   5.555   0.925   1.309  1.0143 -1.0032  1.6458
   92MOL   H16922191   5.380   0.892   1.291  1.1768 -0.1090 -1.4161
   92MOL   C17022192   5.392   0.602   1.715  0.4166 -0.0774 -1.0061
   92MOL   C17122193   5.403   0.590   1.876  0.2074  0.7503 -0.3192
   92MOL   O17222194   5.318   0.695   1.930 -0.2788 -0.1928  0.6280
   92MOL   C17322195   5.370   0.808   1.988  0.0141 -0.7478  0.5275
   92MOL   C17422196   5.262   0.893   2.043 -0.2867  0.4254  0.1057
   92MOL   O17522197   5.491   0.836   1.999  0.0826  0.0138  0.0364
   92MOL   H17622198   5.310   0.668   1.686 -0.8806 -1.0939  0.3206
   92MOL   H17722199   5.381   0.503   1.673  2.8274 -0.5586 -0.6026
   92MOL   H17822200   5.505   0.597   1.915 -0.5011  0.9389  1.5377
   92MOL   H17922201   5.183   0.914   1.970  0.2936  1.6293 -0.2017
   92MOL   H18022202   5.298   0.989   2.079 -2.1928  1.1437  0.1804
   92MOL   H18122203   5.217   0.836   2.124 -2.4356  2.3489  0.3454
   92MOL   C18222204   5.346   0.462   1.937  0.3200  0.3333  0.2955
   92MOL   C18322205   5.441   0.346   1.937  0.0670 -0.2238 -0.0354
   92MOL   O18422206   5.531   0.339   2.047 -0.2117  0.1398  0.2840
   92MOL   C18522207   5.658   0.370   2.036 -0.0640 -0.2237 -0.0345
   92MOL   C18622208   5.736   0.337   2.162 -1.0738 -0.5956  0.1772
   92MOL   O18722209   5.711   0.438   1.948  0.8164  0.5774  0.3674
   92MOL   H18822210   5.318   0.477   2.041  0.8883  2.6656  0.1359
   92MOL   H18922211   5.250   0.439   1.890 -0.1715  2.5014  0.1754
   92MOL   H19022212   5.501   0.355   1.847 -0.6714 -2.6849 -0.8159
   92MOL   H19122213   5.801   0.420   2.189 -1.2854 -0.2133 -0.4952
   92MOL   H19222214   5.797   0.247   2.154  1.4632  1.2297 -1.7351
   92MOL   H19322215   5.668   0.325   2.246 -2.1517 -0.1346 -0.6249
   92MOL   C19422216   5.379   0.205   1.912 -0.3002 -0.1439  0.1867
   92MOL   C19522217   5.296   0.140   2.026 -0.9773  0.1224  0.2844
   92MOL   O19622218   5.156   0.183   2.013  0.1527 -0.1350  0.2338
   92MOL   C19722219   5.091   0.260   2.103  0.2687 -0.4933 -0.7363
   92MOL   C19822220   4.937   0.260   2.089 -0.4112  0.0444 -0.3425
   92MOL   O19922221   5.138   0.340   2.187 -0.1050  0.2375 -0.0869
   92MOL   H20022222   5.308   0.205   1.828  0.2019  0.0167 -0.2392
   92MOL   H20122223   5.457   0.139   1.874 -2.7514 -1.4514 -2.8123
   92MOL   H20222224   5.339   0.160   2.124 -1.7054  3.7461 -0.0375
   92MOL   H20322225   4.891   0.269   2.187 -1.0022  1.9174 -0.7727
   92MOL   H20422226   4.902   0.168   2.042 -1.9103  0.7599 -0.6557
   92MOL   H20522227   4.894   0.341   2.030  1.2604  1.6210  0.5370
   92MOL   C20622228   5.298   8.011   2.016  0.4838 -0.0216 -0.1358
   92MOL   C20722229   5.435   7.940   2.031  0.4283  0.5474 -0.2139
   92MOL   O20822230   5.475   7.992   2.155 -0.3017  0.5081  0.0605
   92MOL   C20922231   5.615   8.010   2.175 -0.6873  0.1843 -0.1161
   92MOL   C21022232   5.660   0.014   2.319  0.0980 -0.6744  0.2002
   92MOL   O21122233   5.703   7.992   2.091 -0.2081 -0.3306 -0.3576
   92MOL   H21222234   5.241   7.978   2.103  0.8471  0.3200  0.2323
   92MOL   H21322235   5.247   7.983   1.924 -0.7303 -0.7446  0.7573
   92MOL   H21422236   5.501   7.974   1.951  0.3712 -0.2544 -0.6081
   92MOL   H21522237   5.694   7.944   2.367  1.6557 -0.7707 -1.0425
   92MOL   H21622238   5.585   0.067   2.378  1.0385  0.5264  0.3501
   92MOL   H21722239   5.741   0.087   2.310  0.5769 -1.5763 -3.2229
   92MOL   C21822240   5.427   7.785   2.036  0.3272  0.3715  0.1095
   92MOL   C21922241   5.395   7.714   1.903 -0.5729  0.1983 -0.8361
   92MOL   O22022242   5.264   7.738   1.863 -0.4938 -0.3970 -0.4890
   92MOL   C22122243   5.170   7.650   1.898  0.2862 -0.1651  0.8810
   92MOL   C22222244   5.046   7.648   1.804 -0.3575 -0.1558  0.0828
   92MOL   O22322245   5.178   7.562   1.978  0.1068  0.6091 -0.2687
   92MOL   H22422246   5.515   7.737   2.079  0.7500  1.8840  1.0057
   92MOL   H22522247   5.349   7.759   2.108  1.5574 -2.7861  0.3755
   92MOL   H22622248   5.410   7.608   1.927 -0.7377  0.3017 -0.2784
   92MOL   H22722249   5.030   7.552   1.754 -1.1760 -0.2519  0.5108
   92MOL   H22822250   5.061   7.722   1.726 -2.7550  2.3356  1.8810
   92MOL   H22922251   4.953   7.655   1.861 -1.0875 -0.4889 -1.0380
   92MOL   C23022252   5.485   7.741   1.783  0.6708  0.3112 -0.0601
   92MOL   C23122253   5.458   7.655   1.656 -0.8365 -0.1648  1.1286
   92MOL   O23222254   5.547   7.684   1.550  0.2385 -0.5277  0.0552
   92MOL   C23322255   5.606   7.595   1.466 -0.4226  0.4160  0.5863
   92MOL   C23422256   5.676   7.670   1.349 -0.1325 -0.2640  0.1549
   92MOL   O23522257   5.610   7.469   1.474 -0.1281 -0.3371 -0.8194
   92MOL   H23622258   5.468   7.842   1.746  0.2960  0.2316 -0.1084
   92MOL   H23722259   5.588   7.742   1.820  0.4246 -0.2884  0.6489
   92MOL   H23822260   5.358   7.671   1.616 -0.0064 -1.8411 -1.7664
   92MOL   H23922261   5.646   7.635   1.250  1.3213 -1.6960  0.2145
   92MOL   H24022262   5.780   7.649   1.371 -0.2314  0.5192  1.4222
   92MOL   H24122263   5.673   7.778   1.361 -0.4685 -0.5229  2.4687
   92MOL   H24222264   5.455   7.548   1.675 -1.0838 -0.5000 -0.7141
   93MOL     C122265   7.624   7.277   0.469  0.6741  0.0779  0.4353
   93MOL     C222266   7.613   7.381   0.359 -0.5602 -0.5095  0.4420
   93MOL     O322267   7.733   7.460   0.364 -0.2565  0.3150 -0.5660
   93MOL     C422268   7.725   7.588   0.322 -0.0540 -0.3171  0.1291
   93MOL     C522269   7.861   7.652   0.341  0.2401  0.2644 -0.8386
   93MOL     O622270   7.622   7.650   0.282 -0.1713  0.2749  0.1751
   93MOL     H722271   7.533   7.217   0.478  1.5230 -1.1762  0.9324
   93MOL     H822272   7.647   7.319   0.566 -2.4370  0.3530  1.0974
   93MOL     H922273   7.533   7.448   0.390 -0.3191 -0.2416  0.4801
   93MOL    H1022274   7.856   7.761   0.330 -2.1020  0.2499 -0.1828
   93MOL    H1122275   7.937   7.613   0.274  1.7083  2.3810 -0.4608
   93MOL    H1222276   7.889   7.629   0.444  1.2740  1.6600 -0.7929
   93MOL    H1322277   7.709   7.213   0.444 -0.5379 -1.8914  1.1892
   93MOL    C1422278   7.594   7.330   0.209 -0.2715  0.3971  0.7863
   93MOL    C1522279   7.487   7.228   0.197 -0.2633 -0.0859 -0.4467
   93MOL    O1622280   7.362   7.293   0.211  0.1969 -0.5347 -0.0889
   93MOL    C1722281   7.271   7.235   0.293 -0.0659 -0.7009 -0.2127
   93MOL    C1822282   7.141   7.314   0.281 -0.6272 -0.5693 -0.2239
   93MOL    O1922283   7.288   7.133   0.356  0.4948 -0.3284  0.5979
   93MOL    H2022284   7.579   7.416   0.143  2.4217  1.6196  1.7129
   93MOL    H2122285   7.686   7.286   0.171 -0.0055  2.0340 -0.5334
   93MOL    H2222286   7.500   7.161   0.282  0.9337  0.6627 -0.0295
   93MOL    H2322287   7.156   7.408   0.335 -0.6720 -1.3138  1.1123
   93MOL    H2422288   7.065   7.256   0.335 -1.3113  1.2320  0.7974
   93MOL    H2522289   7.126   7.333   0.175  2.6033  1.9512 -0.3051
   93MOL    C2622290   7.488   7.154   0.058 -0.7647 -0.0097  0.1633
   93MOL    C2722291   7.610   7.059   0.036  0.1761  0.7191  0.0794
   93MOL    O2822292   7.614   6.969   0.148  0.3535 -0.2481 -0.6244
   93MOL    C2922293   7.704   6.975   0.251  0.4588  0.5377  0.1823
   93MOL    C3022294   7.664   6.890   0.365 -0.1575 -0.2227  0.4038
   93MOL    O3122295   7.803   7.042   0.254 -0.4129 -0.1660  0.5169
   93MOL    H3222296   7.397   7.094   0.054 -0.9868  0.0715  3.0103
   93MOL    H3322297   7.477   7.232   8.003 -1.6476  0.0167  0.3081
   93MOL    H3422298   7.705   7.113   0.033  1.1448 -0.8573  1.2355
   93MOL    H3522299   7.711   6.796   0.335 -0.2426 -0.4091  0.8497
   93MOL    H3622300   7.555   6.883   0.367 -0.4091  2.6471 -1.0632
   93MOL    H3722301   7.692   6.917   0.466 -2.2870  1.0091  0.6968
   93MOL    C3822302   7.590   6.978   7.927 -0.1067  0.0223  0.0157
   93MOL    C3922303   7.620   7.050   7.797  0.2283 -0.2798 -0.0799
   93MOL    O4022304   7.755   7.085   7.793 -0.4726 -0.8266 -0.0939
   93MOL    C4122305   7.783   7.220   7.793  0.4011  0.4793  0.5134
   93MOL    C4222306   7.934   7.246   7.766  0.7351 -0.2050  0.0937
   93MOL    O4322307   7.704   7.315   7.805  0.3470 -0.1313 -0.2512
   93MOL    H4422308   7.644   6.883   7.932  0.5562  0.4574  1.5114
   93MOL    H4522309   7.486   6.948   7.922  0.0508 -0.5340  0.0424
   93MOL    H4622310   7.564   7.144   7.800  2.6427  1.1539  1.0230
   93MOL    H4722311   7.977   7.186   7.686  2.4104 -0.4121  1.1241
   93MOL    H4822312   7.978   7.205   7.857 -0.5650 -2.3721 -0.2218
   93MOL    H4922313   7.962   7.349   7.745  0.2146 -0.3014 -1.1447
   93MOL    C5022314   7.562   6.980   7.675  0.1493 -0.5310 -0.9219
   93MOL    C5122315   7.518   7.076   7.566  0.2409  0.0427  0.7488
   93MOL    O5222316   7.628   7.137   7.493  0.3721  0.1180  0.3180
   93MOL    C5322317   7.609   7.256   7.448  0.2562  0.4722 -0.1786
   93MOL    C5422318   7.737   7.312   7.391 -0.0097  0.2866 -0.1042
   93MOL    O5522319   7.506   7.321   7.440  0.1527 -0.0304  0.4649
   93MOL    H5622320   7.634   6.903   7.645  1.2840 -0.2295  0.9284
   93MOL    H5722321   7.471   6.937   7.717  0.1747 -0.1631 -0.4858
   93MOL    H5822322   7.459   7.155   7.614  0.0413  0.2068  0.2378
   93MOL    H5922323   7.815   7.293   7.465  0.0518  0.0065 -0.2363
   93MOL    H6022324   7.728   7.420   7.378  1.5794  0.2962 -1.4387
   93MOL    H6122325   7.779   7.268   7.300  0.4554 -0.3942  0.4272
   93MOL    C6222326   7.433   6.988   7.470 -0.1278  0.0330 -0.1665
   93MOL    C6322327   7.287   6.983   7.502 -0.2405  0.1202 -0.3088
   93MOL    O6422328   7.227   7.113   7.488 -0.1653  0.0631 -0.2015
   93MOL    C6522329   7.212   7.189   7.598  0.5926 -0.0954 -0.0773
   93MOL    C6622330   7.171   7.326   7.561 -0.1383 -0.0429 -0.0320
   93MOL    O6722331   7.225   7.147   7.710  0.0467  0.2473 -0.0644
   93MOL    H6822332   7.428   7.033   7.371  0.5795 -0.0152 -0.2251
   93MOL    H6922333   7.480   6.891   7.453 -0.2045 -0.1699  0.7631
   93MOL    H7022334   7.279   6.952   7.606  0.1663  5.3347  1.4388
   93MOL    H7122335   7.213   7.351   7.464 -1.3862  0.4864 -0.4496
   93MOL    H7222336   7.223   7.396   7.627  3.0294 -0.3299 -2.1610
   93MOL    H7322337   7.065   7.338   7.538 -0.0597  0.1162 -0.3163
   93MOL    C7422338   7.210   6.871   7.427  0.3418 -0.0318  0.4609
   93MOL    C7522339   7.060   6.875   7.446  0.5470 -0.1178  0.1044
   93MOL    O7622340   6.999   6.768   7.373  0.7461  0.6227  0.7355
   93MOL    C7722341   6.946   6.797   7.249 -0.1367  0.0751  0.5867
   93MOL    C7822342   6.829   6.708   7.209 -0.4749 -0.1808  0.2416
   93MOL    O7922343   6.980   6.895   7.182  1.0824 -0.0516  0.4431
   93MOL    H8022344   7.237   6.887   7.323 -1.0027 -2.5923 -0.3105
   93MOL    H8122345   7.244   6.773   7.460  0.1428  0.3480  1.8442
   93MOL    H8222346   7.032   6.968   7.396  0.8223 -0.3757 -0.5393
   93MOL    H8322347   6.880   6.615   7.183 -0.3959 -0.5798  1.7613
   93MOL    H8422348   6.775   6.749   7.124  1.1942  1.9884  0.1620
   93MOL    H8522349   6.767   6.685   7.296 -2.2858 -0.6301 -1.1678
   93MOL    C8622350   6.995   6.874   7.591  0.4402 -0.3809  0.2005
   93MOL    C8722351   6.841   6.897   7.599  0.5938  0.0803 -0.1624
   93MOL    O8822352   6.780   6.774   7.584 -0.4357 -0.1311  0.1022
   93MOL    C8922353   6.663   6.759   7.533  0.0526 -0.1245 -0.2017
   93MOL    C9022354   6.614   6.616   7.534 -0.0966  0.2258  0.3951
   93MOL    O9122355   6.598   6.851   7.490  0.4391  0.1428 -0.7085
   93MOL    H9222356   7.020   6.775   7.631  1.9586 -0.3141 -0.5731
   93MOL    H9322357   7.048   6.949   7.649  1.0318  1.9227 -3.2211
   93MOL    H9422358   6.808   6.974   7.529  0.1041 -0.9191 -1.0242
   93MOL    H9522359   6.650   6.552   7.453 -0.2846  1.8035 -0.9580
   93MOL    H9622360   6.505   6.615   7.534 -0.0965 -2.5594  0.5777
   93MOL    H9722361   6.650   6.575   7.628  0.2422 -0.3845  0.0022
   93MOL    C9822362   6.794   6.944   7.735 -0.2658 -0.0321 -0.3678
   93MOL    C9922363   6.794   7.093   7.771 -0.0653 -0.2452  0.7440
   93MOL   O10022364   6.671   7.141   7.710  0.4020  0.2316  0.6977
   93MOL   C10122365   6.677   7.258   7.649  0.7016 -0.7812 -0.8893
   93MOL   C10222366   6.544   7.299   7.593 -0.0809  0.0432  0.7222
   93MOL   O10322367   6.778   7.327   7.646 -0.2556  0.3004 -0.0464
   93MOL   H10422368   6.694   6.912   7.767 -0.5742  0.1808 -1.1179
   93MOL   H10522369   6.843   6.889   7.816 -0.4793  0.6191  0.2187
   93MOL   H10622370   6.881   7.141   7.726  0.2605 -0.0358  1.5853
   93MOL   H10722371   6.506   7.394   7.629  1.6602  0.7883  0.6349
   93MOL   H10822372   6.478   7.218   7.623  0.8978 -0.6881  0.9436
   93MOL   H10922373   6.546   7.300   7.484  1.7565 -3.1152  0.6681
   93MOL   C11022374   6.791   7.127   7.919 -0.1523  0.5168 -0.4046
   93MOL   C11122375   6.937   7.152   7.975 -0.3567 -0.5428  0.5773
   93MOL   O11222376   7.029   7.044   7.945 -0.3564  0.2828  0.4368
   93MOL   C11322377   7.087   6.968   0.020 -0.0200  0.1570  0.2420
   93MOL   C11422378   7.175   6.860   7.973  0.4095  0.6814 -0.2830
   93MOL   O11522379   7.059   6.975   0.141 -0.0196  0.0215 -0.0640
   93MOL   H11622380   6.735   7.216   7.946 -0.4146 -0.5795  2.9589
   93MOL   H11722381   6.739   7.045   7.970 -1.3261  0.8753 -1.0244
   93MOL   H11822382   6.912   7.171   0.058  1.1463 -0.2168  0.8921
   93MOL   H11922383   7.147   6.858   7.867  1.0805  0.6004 -0.4562
   93MOL   H12022384   7.156   6.760   8.011  1.6932 -0.1639 -1.8084
   93MOL   H12122385   7.279   6.891   7.978  1.1795 -1.6545 -1.4848
   93MOL   C12222386   6.994   7.288   7.922  1.1928 -0.5970 -0.5909
   93MOL   C12322387   6.918   7.418   7.959  0.4760  1.0559  0.0807
   93MOL   O12422388   6.926   7.439   0.084  0.4667  0.4170  0.5636
   93MOL   C12522389   6.841   7.520   0.152  0.0728 -0.0863 -0.0600
   93MOL   C12622390   6.895   7.537   0.299  0.1029  0.2608  0.0863
   93MOL   O12722391   6.756   7.596   0.108  0.1714 -0.2766  0.8884
   93MOL   H12822392   7.101   7.306   7.935  1.6299 -1.6565 -2.5591
   93MOL   H12922393   6.985   7.281   7.813 -2.7254  0.4725 -0.4035
   93MOL   H13022394   6.811   7.407   7.941  0.2425  2.8832  0.2803
   93MOL   H13122395   6.902   7.442   0.352 -1.1891 -0.3706 -0.8267
   93MOL   H13222396   6.842   7.614   0.355 -1.9366 -0.4708 -0.7886
   93MOL   H13322397   6.996   7.579   0.297  0.2990 -0.1118  1.4204
   93MOL   C13422398   6.952   7.551   7.874  0.6660  0.6642 -0.7031
   93MOL   C13522399   7.092   7.623   7.892 -0.4055  0.2895  0.1219
   93MOL   O13622400   7.194   7.560   7.814  0.0529 -0.5713 -0.8876
   93MOL   C13722401   7.307   7.517   7.884 -0.5431 -1.0737  0.2019
   93MOL   C13822402   7.412   7.483   7.787  0.0853  0.1169 -0.3112
   93MOL   O13922403   7.321   7.510   8.006  0.0932 -0.0756  0.4474
   93MOL   H14022404   6.935   7.512   7.774  1.0515 -2.0633  0.2280
   93MOL   H14122405   6.873   7.624   7.888 -0.6244 -0.7802 -0.2725
   93MOL   H14222406   7.119   7.627   7.997 -0.3121  0.7305  0.0818
   93MOL   H14322407   7.401   7.377   7.766 -0.0180  0.0218  0.2313
   93MOL   H14422408   7.509   7.500   7.834  1.4001  0.0661 -2.8945
   93MOL   H14522409   7.393   7.546   7.699  1.8400  0.5840 -0.3809
   93MOL   C14622410   7.087   7.761   7.839  0.2597 -0.3893  0.4385
   93MOL   C14722411   7.222   7.839   7.841  0.7378 -0.1716 -0.6815
   93MOL   O14822412   7.206   7.961   7.771  0.3382  0.5977 -0.2891
   93MOL   C14922413   7.229   7.964   7.643  0.9530  0.4454 -0.4724
   93MOL   C15022414   7.195   0.080   7.576  0.2195 -1.0073  0.6795
   93MOL   O15122415   7.280   7.872   7.580  0.2276  0.2111 -0.3545
   93MOL   H15222416   7.051   7.748   7.738 -0.2056  0.2630  0.5162
   93MOL   H15322417   7.009   7.808   7.900 -1.5212 -2.4925 -0.1462
   93MOL   H15422418   7.310   7.784   7.808  1.2633  0.7038 -0.7809
   93MOL   H15522419   7.113   0.136   7.621 -0.6702 -1.0041 -0.9418
   93MOL   H15622420   7.175   0.066   7.470 -1.1500 -2.2254  1.0724
   93MOL   H15722421   7.284   0.142   7.573 -0.0583 -0.6577 -0.6169
   93MOL   C15822422   7.258   7.883   7.981 -0.4130 -0.3618 -1.1414
   93MOL   C15922423   7.403   7.940   7.988 -0.2682  0.9356 -0.1678
   93MOL   O16022424   7.388   0.057   7.976 -0.1994  0.1308 -0.0264
   93MOL   C16122425   7.454   0.122   7.884 -0.3906 -0.3851 -0.3122
   93MOL   C16222426   7.406   0.265   7.847 -0.0422  0.4082 -0.0064
   93MOL   O16322427   7.563   0.086   7.840  0.1713 -0.1571 -0.2217
   93MOL   H16422428   7.180   7.947   0.001 -0.4753 -0.5531 -0.9602
   93MOL   H16522429   7.249   7.798   0.028 -0.3684  1.3751  1.0951
   93MOL   H16622430   7.467   7.888   7.918 -0.6229 -2.8064  2.1365
   93MOL   H16722431   7.464   0.303   7.763 -0.4286  0.0845 -0.4280
   93MOL   H16822432   7.411   0.319   7.941 -2.1654 -0.0786  0.4063
   93MOL   H16922433   7.301   0.273   7.821 -0.0084  2.2320  0.3615
   93MOL   C17022434   7.471   7.908   0.102  0.0500  0.6592 -0.5873
   93MOL   C17122435   7.619   7.953   0.110 -0.6360  0.4960 -0.7437
   93MOL   O17222436   7.662   7.924   0.246 -0.6276 -0.3642  0.0711
   93MOL   C17322437   7.629   8.003   0.340 -0.4018  0.0432  0.1104
   93MOL   C17422438   7.688   7.964   0.470  0.7148 -0.0218  0.2916
   93MOL   O17522439   7.572   0.091   0.327 -0.3275 -0.1643  0.1646
   93MOL   H17622440   7.417   7.952   0.186  2.1515 -1.3309  1.8849
   93MOL   H17722441   7.458   7.800   0.115 -1.8134  1.1358  1.9952
   93MOL   H17822442   7.637   0.035   0.082 -3.7345  1.6975  1.3634
   93MOL   H17922443   7.606   7.944   0.539 -1.3429  0.5640 -1.9590
   93MOL   H18022444   7.778   8.013   0.508  0.9906 -1.5382  1.6719
   93MOL   H18122445   7.725   7.861   0.463 -1.0976 -0.6003 -1.0685
   93MOL   C18222446   7.709   7.864   0.022 -0.2252  0.2328 -0.1925
   93MOL   C18322447   7.859   7.909   0.025 -0.3422  0.3422 -0.6194
   93MOL   O18422448   7.933   7.841   7.951  0.2475 -0.1861  0.3177
   93MOL   C18522449   7.967   7.707   7.966 -0.1700 -0.3383  0.9046
   93MOL   C18622450   0.007   7.646   7.836  0.2698 -0.0127 -0.3544
   93MOL   O18722451   7.955   7.639   0.044  0.1484 -0.4428  0.3266
   93MOL   H18822452   7.710   7.760   0.054 -0.4526  0.1016 -0.6159
   93MOL   H18922453   7.678   7.854   7.940 -0.4866 -1.3847  0.0373
   93MOL   H19022454   7.904   7.896   0.124 -0.7174  2.0657 -0.2108
   93MOL   H19122455   7.952   7.639   7.759 -1.3218 -1.3874  1.3009
   93MOL   H19222456   0.051   7.547   7.848  1.2063  0.5854  1.3158
   93MOL   H19322457   0.091   7.705   7.798  0.2702 -0.2722 -0.7635
   93MOL   C19422458   7.873   0.031   8.008 -0.4884 -0.3119 -0.1411
   93MOL   C19522459   8.016   0.090   8.002  0.0347 -0.0092  0.7866
   93MOL   O19622460   7.997   0.218   7.958 -0.4656 -0.4954 -0.1196
   93MOL   C19722461   7.991   0.246   7.827 -0.7146 -0.5794  0.6964
   93MOL   C19822462   7.931   0.385   7.804 -0.8659  0.5220  0.3404
   93MOL   O19922463   0.001   0.173   7.735  0.1708 -0.5003  0.2322
   93MOL   H20022464   7.827   0.043   7.910  0.5840 -0.7397 -0.7098
   93MOL   H20122465   7.826   0.092   0.063 -0.1462  3.0350 -2.5053
   93MOL   H20222466   0.049   0.037   7.923  0.8120 -2.3810  2.8339
   93MOL   H20322467   7.937   0.420   7.701 -1.2882 -3.9048 -1.2722
   93MOL   H20422468   7.975   0.460   7.871 -1.3735  2.7670 -1.7938
   93MOL   H20522469   7.830   0.376   7.843 -1.8906 -0.0227 -2.3614
   93MOL   C20622470   0.065   0.085   0.115 -0.3940 -0.0488 -0.5814
   93MOL   C20722471   0.185   0.179   0.141  0.0602  0.0297  0.1817
   93MOL   O20822472   0.288   0.162   0.043  0.6477  0.5228 -0.0078
   93MOL   C20922473   0.412   0.197   0.074  0.1842  0.6624  0.8084
   93MOL   C21022474   0.516   0.169   7.988 -0.2032  0.3718 -0.2226
   93MOL   O21122475   0.457   0.251   0.169 -0.1682 -0.4989 -0.2245
   93MOL   H21222476   8.009   0.111   0.187  1.7319 -2.0377  2.5376
   93MOL   H21322477   0.114   8.012   0.139 -0.7107 -0.3943 -1.2770
   93MOL   H21422478   0.223   0.134   0.233  0.1182  0.6325  0.4576
   93MOL   H21522479   0.480   0.236   7.910  0.1926 -0.2326 -0.9327
   93MOL   H21622480   0.516   0.061   7.976 -3.2272  0.4221 -1.0131
   93MOL   H21722481   0.614   0.199   0.005  0.7832 -2.2351 -0.6173
   93MOL   C21822482   0.148   0.329   0.171 -0.2594 -1.2051 -0.3709
   93MOL   C21922483   0.040   0.355   0.275  0.4614 -0.2269 -0.3228
   93MOL   O22022484   0.075   0.301   0.400  0.0495 -0.4700 -0.3975
   93MOL   C22122485   8.013   0.221   0.464 -0.0389  0.3108 -0.0418
   93MOL   C22222486   0.050   0.176   0.597  0.2078  0.0736  0.1805
   93MOL   O22322487   7.905   0.177   0.421  0.2425 -0.5226 -0.3075
   93MOL   H22422488   0.236   0.392   0.183  0.2223 -2.2486  1.8866
   93MOL   H22522489   0.117   0.363   0.073  1.8227 -0.4429 -0.7827
   93MOL   H22622490   7.973   0.298   0.245  0.4108 -0.7486  0.7910
   93MOL   H22722491   0.141   0.226   0.630 -0.1008 -0.6112  2.1455
   93MOL   H22822492   0.053   0.068   0.612  0.4856  0.2891  1.6781
   93MOL   H22922493   7.996   0.212   0.666 -1.0332  0.5839 -1.4059
   93MOL   C23022494   0.008   0.495   0.309  0.6151  0.4906  0.1522
   93MOL   C23122495   0.131   0.579   0.346  0.3898  0.0609  0.2309
   93MOL   O23222496   0.100   0.719   0.352 -0.2064 -0.2556 -0.5637
   93MOL   C23322497   0.132   0.797   0.459 -0.6402 -1.2123  0.0796
   93MOL   C23422498   0.108   0.944   0.428  0.0366  0.5615  0.1724
   93MOL   O23522499   0.184   0.752   0.565 -0.1290 -0.3135  0.2498
   93MOL   H23622500   7.985   0.551   0.226 -1.2283 -0.3770  0.5282
   93MOL   H23722501   7.961   0.506   0.393  0.8701  0.9560  0.2993
   93MOL   H23822502   0.203   0.573   0.264 -1.2231 -0.8017 -1.1609
   93MOL   H23922503   0.173   1.010   0.486 -0.0274  0.5101  0.3016
   93MOL   H24022504   0.006   0.966   0.459 -0.3661 -0.9468 -0.0418
   93MOL   H24122505   0.124   0.961   0.321 -1.9241  2.2754  0.1255
   93MOL   H24222506   0.184   0.550   0.437  2.9754 -0.8478 -1.5044
   94MOL     C122507   7.394   5.660   1.207 -0.4226 -0.4486 -0.3411
   94MOL     C222508   7.294   5.600   1.112  0.4092 -0.3027 -0.2702
   94MOL     O322509   7.265   5.468   1.157 -0.3095  0.3350  0.0772
   94MOL     C422510   7.287   5.363   1.071  0.0483 -0.3973 -0.7056
   94MOL     C522511   7.228   5.237   1.116  0.2604  0.8870  0.2568
   94MOL     O622512   7.343   5.372   0.963 -0.0452 -0.0598  0.2752
   94MOL     H722513   7.479   5.592   1.216  0.4434  0.3115 -2.5386
   94MOL     H822514   7.357   5.661   1.310  0.1943 -0.4646 -0.1180
   94MOL     H922515   7.313   5.600   1.005 -0.1946 -3.1700 -0.4112
   94MOL    H1022516   7.145   5.216   1.048  0.6310 -1.1898  0.4049
   94MOL    H1122517   7.193   5.257   1.217  1.4732  0.5857  0.7370
   94MOL    H1222518   7.301   5.156   1.120 -1.8672 -1.0424  1.0607
   94MOL    H1322519   7.426   5.760   1.177 -1.8858  0.5517  1.3347
   94MOL    C1422520   7.157   5.663   1.128  0.8169  0.0765  0.1505
   94MOL    C1522521   7.153   5.802   1.067 -0.0561 -0.5454 -0.9271
   94MOL    O1622522   7.182   5.800   0.923  0.5084 -0.1346  0.1553
   94MOL    C1722523   7.256   5.891   0.853  0.8069  0.7679  0.2187
   94MOL    C1822524   7.255   5.855   0.703 -0.5982 -0.5121 -0.5411
   94MOL    O1922525   7.302   5.991   0.904  0.7134  0.3386 -0.2482
   94MOL    H2022526   7.085   5.607   1.068  1.4685  0.1439 -0.7102
   94MOL    H2122527   7.130   5.662   1.234  2.3721  0.7009  0.5668
   94MOL    H2222528   7.227   5.870   1.109 -2.5213  0.9745  1.0979
   94MOL    H2322529   7.306   5.924   0.637  0.2240 -0.1006  0.5245
   94MOL    H2422530   7.151   5.860   0.669 -0.7712 -1.2608 -0.1334
   94MOL    H2522531   7.288   5.752   0.685 -0.1631 -0.4842  0.0962
   94MOL    C2622532   7.014   5.870   1.081  0.2918  0.0986 -0.0836
   94MOL    C2722533   6.981   5.910   1.224 -0.8652 -0.2767  0.2916
   94MOL    O2822534   7.069   6.015   1.261  0.4091 -0.6626  0.4757
   94MOL    C2922535   7.178   5.989   1.330  0.3565 -0.2559 -0.2862
   94MOL    C3022536   7.265   6.109   1.337  0.0856 -0.3248 -0.4294
   94MOL    O3122537   7.209   5.889   1.389 -0.0473  0.4342  0.6791
   94MOL    H3222538   7.009   5.958   1.016  1.4758  0.1053 -0.1865
   94MOL    H3322539   6.945   5.796   1.039  1.9027 -1.9599  0.7840
   94MOL    H3422540   6.997   5.822   1.286 -0.3118 -0.3166  0.0924
   94MOL    H3522541   7.347   6.080   1.403  0.9062 -0.7880 -1.6342
   94MOL    H3622542   7.203   6.182   1.389  0.5184 -0.6976  0.6369
   94MOL    H3722543   7.289   6.129   1.233  0.3587  0.5564 -0.2010
   94MOL    C3822544   6.831   5.951   1.249 -0.2130 -0.2631  0.7920
   94MOL    C3922545   6.770   5.901   1.383  0.3118  0.4637  0.0517
   94MOL    O4022546   6.814   5.765   1.409 -0.0812 -0.1446  0.2563
   94MOL    C4122547   6.770   5.667   1.327 -0.6333  0.6056  0.3136
   94MOL    C4222548   6.836   5.535   1.357  0.1103 -0.3038 -0.1872
   94MOL    O4322549   6.685   5.683   1.235 -0.0053  0.9086 -0.1714
   94MOL    H4422550   6.836   6.060   1.248  0.0770 -0.2793 -0.3154
   94MOL    H4522551   6.771   5.915   1.165 -0.9412  0.1909  1.1098
   94MOL    H4622552   6.663   5.913   1.371  0.3217 -0.2058 -0.7053
   94MOL    H4722553   6.943   5.530   1.376 -0.1433 -2.6466  0.7256
   94MOL    H4822554   6.819   5.468   1.272 -1.8332 -0.2410  0.1310
   94MOL    H4922555   6.777   5.489   1.435 -0.0478  0.2369  0.0139
   94MOL    C5022556   6.825   5.993   1.497  0.6307  0.0187 -0.0463
   94MOL    C5122557   6.778   5.964   1.642 -0.1267  0.2922  0.5568
   94MOL    O5222558   6.843   5.853   1.696  0.0158  0.4004 -0.5534
   94MOL    C5322559   6.769   5.745   1.736 -0.0777 -0.2306 -0.3446
   94MOL    C5422560   6.850   5.642   1.813  1.1298 -0.7199 -0.6906
   94MOL    O5522561   6.648   5.732   1.713  0.8536 -0.3104  0.6138
   94MOL    H5622562   6.932   5.983   1.518  0.1007 -3.9427  1.1441
   94MOL    H5722563   6.796   6.095   1.470  0.1655  0.3360  1.5981
   94MOL    H5822564   6.679   5.929   1.615  1.6218 -3.2522 -1.7418
   94MOL    H5922565   6.808   5.545   1.787  1.2583 -0.3297 -2.3941
   94MOL    H6022566   6.854   5.656   1.921 -1.7663 -0.5163 -0.5924
   94MOL    H6122567   6.955   5.643   1.783  1.1653 -0.3183 -0.5432
   94MOL    C6222568   6.788   6.085   1.742 -0.3083  0.2102  0.1568
   94MOL    C6322569   6.658   6.126   1.803 -0.1779  0.6513  0.0524
   94MOL    O6422570   6.682   6.248   1.871 -0.0520  0.2567 -0.4572
   94MOL    C6522571   6.596   6.284   1.973 -1.0220 -0.0850  0.5032
   94MOL    C6622572   6.629   6.419   2.021 -0.0862 -0.4937  0.5279
   94MOL    O6722573   6.514   6.209   2.034  0.5324 -0.1929  0.4893
   94MOL    H6822574   6.862   6.051   1.814 -0.1027  0.1521 -0.0807
   94MOL    H6922575   6.839   6.172   1.701 -2.1332  1.5262  0.6739
   94MOL    H7022576   6.631   6.050   1.878 -0.9846  2.2139  1.3908
   94MOL    H7122577   6.647   6.419   2.129  1.3934 -2.7211  0.3237
   94MOL    H7222578   6.550   6.486   1.987  0.4685  0.2584  0.7068
   94MOL    H7322579   6.720   6.448   1.970 -0.1489 -1.3752 -0.1032
   94MOL    C7422580   6.539   6.139   1.705  0.3179 -0.2961  0.1545
   94MOL    C7522581   6.438   6.033   1.685 -0.6574 -0.1401 -0.3433
   94MOL    O7622582   6.337   6.025   1.777  0.0164  0.0095 -0.2831
   94MOL    C7722583   6.363   5.974   1.900 -0.2676 -0.8484 -0.1144
   94MOL    C7822584   6.256   6.017   2.001  1.0210  0.7692 -0.4844
   94MOL    O7922585   6.457   5.902   1.923  0.1742 -0.4026  0.5910
   94MOL    H8022586   6.490   6.236   1.714 -1.8123 -1.2292 -1.1427
   94MOL    H8122587   6.583   6.165   1.609 -0.2337  1.6530  0.4080
   94MOL    H8222588   6.493   5.939   1.688 -0.4689 -0.0347 -0.5646
   94MOL    H8322589   6.149   5.997   1.990  1.7554 -3.2860 -0.7458
   94MOL    H8422590   6.262   6.123   2.027 -0.4911  0.6304  0.4903
   94MOL    H8522591   6.271   5.976   2.100  2.3940 -1.1343 -1.4556
   94MOL    C8622592   6.379   6.051   1.548 -0.4862  0.3361 -0.1622
   94MOL    C8722593   6.302   5.928   1.515 -0.1569  0.1524 -0.5475
   94MOL    O8822594   6.219   5.955   1.398 -0.4740  0.1660  0.2442
   94MOL    C8922595   6.099   6.007   1.413 -0.9176 -0.0899  0.0595
   94MOL    C9022596   6.027   6.022   1.284 -0.7334  0.5539 -0.0733
   94MOL    O9122597   6.049   6.052   1.514 -0.1577  0.1968  0.1235
   94MOL    H9222598   6.306   6.131   1.540 -0.5063  0.1701 -1.8308
   94MOL    H9322599   6.452   6.066   1.468  0.0383 -2.3014 -0.2314
   94MOL    H9422600   6.240   5.907   1.602  1.8558 -1.0297  0.6491
   94MOL    H9522601   6.021   6.130   1.265  0.2557  0.3354 -1.7307
   94MOL    H9622602   5.932   5.975   1.307 -0.3258 -0.6615 -0.8453
   94MOL    H9722603   6.071   5.974   1.197 -1.4251  0.6752 -0.4995
   94MOL    C9822604   6.391   5.810   1.472 -0.2190  0.1250  0.6362
   94MOL    C9922605   6.340   5.673   1.509  0.3896  0.3016 -0.0332
   94MOL   O10022606   6.232   5.643   1.415 -0.2254 -0.3164  0.6420
   94MOL   C10122607   6.123   5.580   1.447 -0.1917  0.3037 -0.1110
   94MOL   C10222608   6.028   5.560   1.335 -0.2087 -0.3055  0.3713
   94MOL   O10322609   6.085   5.548   1.558 -0.4588  0.2696  0.1874
   94MOL   H10422610   6.404   5.809   1.363 -1.4556  2.1440  0.4569
   94MOL   H10522611   6.485   5.814   1.526 -0.4525 -0.4021  1.0847
   94MOL   H10622612   6.318   5.672   1.616  2.4741 -0.2157  0.4272
   94MOL   H10722613   6.008   5.453   1.327  0.9639 -0.5012 -0.0648
   94MOL   H10822614   6.067   5.584   1.236 -0.1723  1.3631  0.7857
   94MOL   H10922615   5.929   5.596   1.363 -0.1448  0.6754 -0.6221
   94MOL   C11022616   6.453   5.568   1.482  0.5931  0.6992  0.3578
   94MOL   C11122617   6.439   5.428   1.555  0.1853  0.0586  0.0074
   94MOL   O11222618   6.502   5.335   1.471 -0.5300 -0.5510 -0.1887
   94MOL   C11322619   6.430   5.256   1.389 -0.2221  0.2997  0.1715
   94MOL   C11422620   6.519   5.174   1.298 -0.2110  0.4209  0.6228
   94MOL   O11522621   6.309   5.239   1.386 -0.2522 -0.3012  0.4873
   94MOL   H11622622   6.454   5.556   1.374 -1.5771 -2.8110  0.6513
   94MOL   H11722623   6.542   5.621   1.518  0.0439 -0.6255  3.8422
   94MOL   H11822624   6.340   5.386   1.570  0.2430  0.5781  1.9903
   94MOL   H11922625   6.513   5.069   1.328  0.5052  0.4059  0.7328
   94MOL   H12022626   6.623   5.206   1.306  0.4907 -1.4157 -0.7371
   94MOL   H12122627   6.489   5.183   1.194 -1.8485 -0.3227  1.0224
   94MOL   C12222628   6.495   5.421   1.697 -0.3528 -0.7161  0.5152
   94MOL   C12322629   6.479   5.283   1.762 -0.1530 -0.0013 -0.6037
   94MOL   O12422630   6.564   5.187   1.702 -0.5482 -0.5717 -0.5862
   94MOL   C12522631   6.531   5.058   1.696 -0.6436  0.4507 -0.0845
   94MOL   C12622632   6.638   4.984   1.608 -0.4046 -0.4418 -0.3572
   94MOL   O12722633   6.435   4.999   1.744  0.2076  0.2326  0.0402
   94MOL   H12822634   6.602   5.430   1.713 -0.5599  2.5933  0.2876
   94MOL   H12922635   6.442   5.499   1.752 -2.5086 -1.0841 -0.9741
   94MOL   H13022636   6.381   5.241   1.738  0.2754 -1.7524  0.5749
   94MOL   H13122637   6.604   4.974   1.505 -1.1192  0.6395 -0.2394
   94MOL   H13222638   6.659   4.885   1.648 -1.2242 -0.8328 -0.8896
   94MOL   H13322639   6.728   5.045   1.607 -1.2787  0.9425  1.6283
   94MOL   C13422640   6.498   5.283   1.916 -0.3643  0.2572  0.1471
   94MOL   C13522641   6.393   5.353   2.001  0.4370 -0.9288  0.2098
   94MOL   O13622642   6.419   5.494   2.018 -0.0570  0.5602 -0.0375
   94MOL   C13722643   6.499   5.526   2.124  0.7135  0.4951  0.1769
   94MOL   C13822644   6.529   5.675   2.127  0.0465 -0.0636  0.4774
   94MOL   O13922645   6.556   5.450   2.204  0.2160  0.6519  0.3984
   94MOL   H14022646   6.498   5.182   1.959 -0.4732  0.4071  0.5026
   94MOL   H14122647   6.595   5.320   1.948 -0.9796  3.0491 -1.1125
   94MOL   H14222648   6.388   5.316   2.104 -1.5996  0.7509  0.7653
   94MOL   H14322649   6.520   5.699   2.233  0.8735  1.0837  0.2924
   94MOL   H14422650   6.454   5.728   2.069  1.4943 -0.0695 -1.4653
   94MOL   H14522651   6.633   5.699   2.105 -0.7461  1.0417 -2.2772
   94MOL   C14622652   6.247   5.340   1.948  0.4145  0.5097  0.4210
   94MOL   C14722653   6.139   5.373   2.063 -0.1110  0.3524 -0.1334
   94MOL   O14822654   6.147   5.509   2.103 -0.8114  1.0483  0.4616
   94MOL   C14922655   6.162   5.549   2.231 -0.0889  0.4074 -0.3308
   94MOL   C15022656   6.158   5.695   2.239  0.0469 -0.5218 -0.2312
   94MOL   O15122657   6.181   5.479   2.328 -0.6653  0.1808 -0.7246
   94MOL   H15222658   6.216   5.411   1.871 -1.4283  1.4102  1.9539
   94MOL   H15322659   6.238   5.241   1.903  1.0809  1.3982 -1.7225
   94MOL   H15422660   6.162   5.302   2.142  0.8737  1.0421  0.2139
   94MOL   H15522661   6.114   5.721   2.335  1.6256 -0.1983  0.4191
   94MOL   H15622662   6.102   5.728   2.151 -3.1431  1.3877  2.3870
   94MOL   H15722663   6.255   5.744   2.237 -0.8203  1.2488 -1.2364
   94MOL   C15822664   5.988   5.349   2.031 -0.4472 -0.3331  0.3091
   94MOL   C15922665   5.907   5.328   2.164  0.4606 -0.1854 -0.4245
   94MOL   O16022666   5.767   5.326   2.147  0.6027 -0.4316 -0.3979
   94MOL   C16122667   5.680   5.365   2.240  0.2164  0.4734  0.1932
   94MOL   C16222668   5.530   5.361   2.201  0.1172 -0.7088 -0.8814
   94MOL   O16322669   5.704   5.381   2.357 -0.2223 -0.4657  0.2059
   94MOL   H16422670   5.952   5.427   1.965  0.3738 -0.8370 -0.7515
   94MOL   H16522671   5.972   5.260   1.971 -1.4798  0.4101 -0.5345
   94MOL   H16622672   5.920   5.427   2.209  0.2352 -0.7004  0.7711
   94MOL   H16722673   5.467   5.361   2.290  0.7474  0.7237 -0.4347
   94MOL   H16822674   5.488   5.292   2.128 -0.9212  0.0130 -0.9849
   94MOL   H16922675   5.496   5.461   2.176 -1.1827 -0.5594  1.3144
   94MOL   C17022676   5.950   5.203   2.242  0.0213 -0.0638 -0.3156
   94MOL   C17122677   5.956   5.062   2.169 -0.4892  0.6833 -0.4669
   94MOL   O17222678   6.040   4.972   2.234 -0.0895  0.7155 -0.1778
   94MOL   C17322679   6.171   4.964   2.217  0.2091  0.5159 -0.0869
   94MOL   C17422680   6.235   4.866   2.304 -0.2017  0.1755 -0.3279
   94MOL   O17522681   6.233   5.034   2.138  0.2439  0.9443 -0.1995
   94MOL   H17622682   6.047   5.214   2.291 -1.6773  2.5479  2.6647
   94MOL   H17722683   5.881   5.198   2.326  0.5709  1.5956  0.2668
   94MOL   H17822684   6.009   5.088   2.078 -2.6330 -1.2524 -2.3486
   94MOL   H17922685   6.342   4.859   2.289 -0.1925  1.6339 -0.9696
   94MOL   H18022686   6.188   4.767   2.294  1.2210 -0.4704 -0.6575
   94MOL   H18122687   6.222   4.901   2.407  0.8789  1.3972 -0.6031
   94MOL   C18222688   5.815   5.005   2.146 -0.2132  0.3118  0.3203
   94MOL   C18322689   5.813   4.865   2.095  0.0066  0.3103  0.1375
   94MOL   O18422690   5.675   4.840   2.089 -0.3467 -0.0076 -0.0575
   94MOL   C18522691   5.631   4.726   2.134  0.8584  0.0383  0.2800
   94MOL   C18622692   5.479   4.722   2.142  0.1206  0.2209  0.7532
   94MOL   O18722693   5.690   4.624   2.154 -0.4020 -0.2168  0.3186
   94MOL   H18822694   5.756   5.003   2.238 -2.1946  1.2016 -0.9119
   94MOL   H18922695   5.761   5.079   2.086 -2.6630 -0.3349  1.6525
   94MOL   H19022696   5.865   4.809   2.173 -0.4708 -2.1132 -1.2327
   94MOL   H19122697   5.459   4.829   2.141  2.9449  0.7941  2.0252
   94MOL   H19222698   5.436   4.693   2.237 -2.0076  0.4980 -0.0955
   94MOL   H19322699   5.427   4.669   2.062  0.6415  0.0581  0.5198
   94MOL   C19422700   5.878   4.818   1.954 -0.1006 -0.6565 -0.0777
   94MOL   C19522701   5.889   4.661   1.919 -0.1443 -0.1474  0.2546
   94MOL   O19622702   5.942   4.660   1.786  0.2662 -0.4896 -0.0066
   94MOL   C19722703   5.865   4.641   1.683  0.7297  0.0722  0.4473
   94MOL   C19822704   5.937   4.620   1.551 -0.2732  0.5982  0.1367
   94MOL   O19922705   5.740   4.641   1.692  0.0586  0.1519  0.2338
   94MOL   H20022706   5.823   4.874   1.878  0.6603  0.9390  0.5136
   94MOL   H20122707   5.973   4.872   1.959 -0.8188  0.3706  3.7482
   94MOL   H20222708   5.790   4.615   1.916 -1.8320  3.4096 -1.1804
   94MOL   H20322709   5.908   4.522   1.514 -1.9019  1.3042 -0.4980
   94MOL   H20422710   6.043   4.613   1.575  0.0732  2.8472 -0.6073
   94MOL   H20522711   5.931   4.687   1.466 -0.6163 -2.7479 -2.6029
   94MOL   C20622712   5.984   4.560   1.998  0.3139 -1.0531 -0.4576
   94MOL   C20722713   5.916   4.424   2.009 -0.6164 -0.8535  0.3606
   94MOL   O20822714   5.937   4.355   1.884  0.4944 -0.0690 -0.1546
   94MOL   C20922715   5.838   4.282   1.830 -0.3490  0.0657 -0.5625
   94MOL   C21022716   5.863   4.240   1.687  0.1670 -0.0712  0.0346
   94MOL   O21122717   5.738   4.240   1.890  0.1596 -0.1451  0.1163
   94MOL   H21222718   6.085   4.563   1.958 -0.5523  1.0158 -2.5957
   94MOL   H21322719   6.004   4.591   2.101  0.6826  1.1295 -1.1851
   94MOL   H21422720   5.809   4.439   2.022 -0.5914  0.5572 -0.9065
   94MOL   H21522721   5.800   4.308   1.629  1.9741  0.4432 -1.3578
   94MOL   H21622722   5.816   4.142   1.674 -2.9648  1.3427  0.1155
   94MOL   H21722723   5.967   4.241   1.656 -0.0817  0.8578 -0.8229
   94MOL   C21822724   5.964   4.331   2.125 -0.0045 -0.2801 -0.0101
   94MOL   C21922725   6.111   4.294   2.132  0.7196 -0.1004 -0.0487
   94MOL   O22022726   6.178   4.402   2.192 -0.3740 -0.0720 -0.1117
   94MOL   C22122727   6.302   4.436   2.157 -0.4663 -0.0711 -0.4191
   94MOL   C22222728   6.357   4.544   2.249  0.7229 -0.1635  0.0794
   94MOL   O22322729   6.360   4.398   2.057  0.2401 -0.1746 -0.0161
   94MOL   H22422730   5.937   4.378   2.219 -1.7212  0.0963 -0.6676
   94MOL   H22522731   5.920   4.233   2.105  0.1563 -0.6899  1.5796
   94MOL   H22622732   6.153   4.281   2.032  1.2434 -0.6316  0.2388
   94MOL   H22722733   6.455   4.506   2.279 -0.6633 -3.1810  0.9905
   94MOL   H22822734   6.298   4.557   2.340 -0.3540  1.8666 -0.8710
   94MOL   H22922735   6.364   4.647   2.216 -1.4869 -0.1165 -0.2626
   94MOL   C23022736   6.135   4.160   2.205  0.5746  0.2084  0.1572
   94MOL   C23122737   6.279   4.111   2.213 -0.2344  1.2022  0.5933
   94MOL   O23222738   6.278   3.994   2.297  0.6824  0.9989  0.7144
   94MOL   C23322739   6.286   3.868   2.248 -0.2831  0.3920 -0.0234
   94MOL   C23422740   6.290   3.769   2.361 -0.0394  0.6737  0.3827
   94MOL   O23522741   6.292   3.824   2.130 -0.1824 -0.0476  0.1565
   94MOL   H23622742   6.101   4.173   2.308 -0.3043  0.9309 -0.2136
   94MOL   H23722743   6.079   4.088   2.146  1.0608 -1.0155  1.1726
   94MOL   H23822744   6.339   4.182   2.271 -1.2109  0.7592  2.1740
   94MOL   H23922745   6.251   3.673   2.329 -0.8938  0.9587  0.5246
   94MOL   H24022746   6.225   3.793   2.446 -0.0832  2.8395 -0.2146
   94MOL   H24122747   6.393   3.751   2.391 -0.2525 -1.4501 -0.0715
   94MOL   H24222748   6.327   4.092   2.117  0.8332  1.6590  1.0330
   95MOL     C122749   3.455   3.268   7.125 -0.8233 -0.2834  0.1528
   95MOL     C222750   3.426   3.155   7.028 -0.4146  0.0264  0.1090
   95MOL     O322751   3.486   3.192   6.911 -0.1147 -0.1867 -0.0349
   95MOL     C422752   3.448   3.149   6.793  0.8452 -0.6837 -0.6930
   95MOL     C522753   3.525   3.221   6.679 -0.2004 -0.1372  0.5269
   95MOL     O622754   3.356   3.067   6.772 -0.4085 -0.6578  0.7713
   95MOL     H722755   3.436   3.234   7.227 -0.6629 -1.6101 -0.2568
   95MOL     H822756   3.388   3.351   7.102  1.5155  1.2727 -1.3277
   95MOL     H922757   3.322   3.150   6.995 -0.3007 -1.8573 -0.0214
   95MOL    H1022758   3.607   3.160   6.641 -1.2079 -0.5827 -1.0320
   95MOL    H1122759   3.576   3.309   6.717  1.7637 -1.2553  0.5340
   95MOL    H1222760   3.461   3.253   6.596  0.3800  0.9898  0.5089
   95MOL    H1322761   3.559   3.302   7.117 -0.5167 -1.2304  0.1166
   95MOL    C1422762   3.484   3.014   7.075  0.1332  0.3259  0.4508
   95MOL    C1522763   3.407   2.955   7.197  0.4178 -0.1257 -0.3833
   95MOL    O1622764   3.271   2.936   7.153 -0.3256  0.4830 -0.4070
   95MOL    C1722765   3.168   2.966   7.235  0.1558  0.3875  0.6947
   95MOL    C1822766   3.033   2.971   7.162 -0.5476 -0.6331  0.3111
   95MOL    O1922767   3.175   2.989   7.353 -0.0830 -0.1456 -0.3309
   95MOL    H2022768   3.468   2.940   6.997  1.0865 -0.3471  0.8853
   95MOL    H2122769   3.592   3.027   7.080 -0.2127  3.4523  1.4764
   95MOL    H2222770   3.408   3.023   7.282 -1.8878 -2.1905  1.3595
   95MOL    H2322771   3.006   3.065   7.113 -0.0349 -0.5944  0.1005
   95MOL    H2422772   2.955   2.951   7.235 -0.6943 -0.0627  0.3140
   95MOL    H2522773   3.025   2.885   7.096  0.8299 -1.2945  0.9724
   95MOL    C2622774   3.455   2.817   7.243  0.2181  0.7401 -0.1011
   95MOL    C2722775   3.573   2.821   7.336  0.3066  0.7110 -0.2489
   95MOL    O2822776   3.523   2.843   7.465 -0.6433  0.2858  0.5317
   95MOL    C2922777   3.562   2.954   7.529  0.7464 -0.3374 -0.1163
   95MOL    C3022778   3.500   2.972   7.669  0.2921  0.8861 -0.0492
   95MOL    O3122779   3.641   3.038   7.490 -0.3460  0.2086 -0.0249
   95MOL    H3222780   3.368   2.763   7.280  0.5777  1.9396  2.6508
   95MOL    H3322781   3.485   2.763   7.153  0.9151 -0.1119  0.6220
   95MOL    H3422782   3.643   2.898   7.306  1.1594 -1.0577 -2.9637
   95MOL    H3522783   3.562   3.031   7.737 -0.4807  2.3429 -0.5916
   95MOL    H3622784   3.522   2.879   7.722  0.3831  2.3442  2.5548
   95MOL    H3722785   3.394   2.996   7.677  0.0048 -0.4805  0.4102
   95MOL    C3822786   3.648   2.687   7.344 -0.7833  0.1731  0.4597
   95MOL    C3922787   3.804   2.700   7.376  0.4078 -0.1535 -0.5536
   95MOL    O4022788   3.859   2.579   7.433  0.4440 -0.5871 -0.3088
   95MOL    C4122789   3.886   2.565   7.568 -0.5180  0.5040  0.1242
   95MOL    C4222790   3.960   2.438   7.597  0.1897  0.0167  0.4834
   95MOL    O4322791   3.867   2.651   7.655  0.0685  0.3789 -0.6848
   95MOL    H4422792   3.604   2.626   7.422  1.2009 -1.1094  0.6145
   95MOL    H4522793   3.634   2.625   7.255  2.4615  2.9496 -2.1088
   95MOL    H4622794   3.810   2.778   7.452  1.5623 -0.0629 -0.7301
   95MOL    H4722795   3.952   2.406   7.701  0.9027 -0.7711  0.2998
   95MOL    H4822796   4.063   2.441   7.562  0.1732  0.6264  0.4758
   95MOL    H4922797   3.909   2.358   7.543 -0.6007  0.4975  0.5087
   95MOL    C5022798   3.885   2.730   7.251 -0.7036  0.3008  1.2129
   95MOL    C5122799   4.028   2.747   7.279  0.3533  0.2601  0.2157
   95MOL    O5222800   4.112   2.738   7.166 -0.1722  0.3474  0.0055
   95MOL    C5322801   4.189   2.634   7.146 -1.0592  0.1047 -0.0048
   95MOL    C5422802   4.270   2.654   7.016  0.1633  0.0654  0.1654
   95MOL    O5522803   4.210   2.539   7.222 -0.0268 -0.4174 -0.1394
   95MOL    H5622804   3.879   2.654   7.173  0.5715  0.2929  1.1120
   95MOL    H5722805   3.845   2.811   7.190  2.3352 -1.0461 -2.7430
   95MOL    H5822806   4.050   2.669   7.352 -0.4570 -0.9877 -0.8566
   95MOL    H5922807   4.299   2.550   7.001  0.8113 -0.2623  3.4259
   95MOL    H6022808   4.359   2.714   7.036 -0.7119  0.6527  2.4284
   95MOL    H6122809   4.214   2.696   6.932 -0.0526 -2.5603 -1.0788
   95MOL    C6222810   4.050   2.888   7.349  0.4484 -0.9465  0.3164
   95MOL    C6322811   4.062   3.010   7.253 -0.1883  0.6243 -0.2196
   95MOL    O6422812   3.987   3.117   7.299  0.3915 -0.4976  0.0770
   95MOL    C6522813   3.859   3.143   7.256  0.3597  0.0710  0.0432
   95MOL    C6622814   3.801   3.269   7.326 -0.2270  0.4956  0.3066
   95MOL    O6722815   3.800   3.090   7.163 -0.0630  0.2904 -0.1648
   95MOL    H6822816   3.965   2.900   7.417 -0.7199 -0.7365 -1.1358
   95MOL    H6922817   4.132   2.894   7.420 -0.5267 -3.0566  1.6803
   95MOL    H7022818   4.012   2.968   7.165  0.0794 -1.2163  0.4683
   95MOL    H7122819   3.700   3.250   7.359  0.3627  0.8461  2.3539
   95MOL    H7222820   3.790   3.355   7.260 -2.9065  0.4711  0.6708
   95MOL    H7322821   3.848   3.296   7.420  0.5273 -0.8423  0.3453
   95MOL    C7422822   4.213   3.040   7.228  1.3428 -0.8361  0.1849
   95MOL    C7522823   4.235   3.162   7.128  0.0928 -0.2507 -0.5652
   95MOL    O7622824   4.375   3.191   7.120 -0.1209  0.1331  0.0509
   95MOL    C7722825   4.440   3.258   7.221  0.4143  0.2576  0.0421
   95MOL    C7822826   4.587   3.259   7.198 -0.7828 -0.5238 -0.1223
   95MOL    O7922827   4.386   3.307   7.324  0.4611  0.4103  0.1962
   95MOL    H8022828   4.260   3.063   7.323  0.6192  0.5441  0.2155
   95MOL    H8122829   4.268   2.949   7.202 -0.0257 -1.7511  0.3885
   95MOL    H8222830   4.176   3.246   7.164  1.5442  0.6433 -0.2641
   95MOL    H8322831   4.632   3.291   7.292 -1.5277  0.3039 -0.0377
   95MOL    H8422832   4.608   3.322   7.112  0.8940 -2.9645 -1.5530
   95MOL    H8522833   4.628   3.164   7.167  1.0190 -0.1408  0.9934
   95MOL    C8622834   4.202   3.122   6.977 -0.6061 -0.1186 -0.1618
   95MOL    C8722835   4.174   3.251   6.893  0.5304  0.2770  1.1425
   95MOL    O8822836   4.055   3.308   6.941  0.2797  0.5421  0.5315
   95MOL    C8922837   3.935   3.260   6.893  0.3012  0.8661 -0.4025
   95MOL    C9022838   3.816   3.352   6.924 -0.0439 -0.5672 -0.5333
   95MOL    O9122839   3.924   3.171   6.805  0.0783 -0.5174 -0.0933
   95MOL    H9222840   4.282   3.064   6.931 -1.3959 -0.2452 -1.3937
   95MOL    H9322841   4.115   3.057   6.971 -0.3547 -0.3230 -1.5788
   95MOL    H9422842   4.151   3.212   6.794 -0.8889  0.4893  1.3731
   95MOL    H9522843   3.848   3.433   6.989 -1.7152 -0.9361  0.7683
   95MOL    H9622844   3.738   3.299   6.978  1.5881 -1.4318  1.0075
   95MOL    H9722845   3.772   3.402   6.837 -0.5494  0.9506  0.5704
   95MOL    C9822846   4.280   3.367   6.898 -0.3351 -0.1519  0.9100
   95MOL    C9922847   4.282   3.474   6.782 -0.0790 -1.4801 -0.3111
   95MOL   O10022848   4.369   3.579   6.831  0.9653  0.2601  0.5558
   95MOL   C10122849   4.320   3.707   6.845 -0.0932 -0.2810 -0.5512
   95MOL   C10222850   4.421   3.798   6.909 -0.0693  0.1695  0.2898
   95MOL   O10322851   4.204   3.739   6.839  0.3395 -0.0424 -0.4756
   95MOL   H10422852   4.283   3.426   6.990  1.5452  1.2979 -0.0461
   95MOL   H10522853   4.376   3.317   6.895  0.1707  0.8402 -1.5344
   95MOL   H10622854   4.181   3.513   6.768 -0.4823 -1.7142  1.8273
   95MOL   H10722855   4.410   3.901   6.877  0.2160  0.0284 -0.2777
   95MOL   H10822856   4.516   3.763   6.868  1.0601  1.4818  1.7081
   95MOL   H10922857   4.410   3.789   7.017  2.5033  1.7229  0.7301
   95MOL   C11022858   4.343   3.427   6.645 -0.4493 -0.0823  0.3657
   95MOL   C11122859   4.258   3.458   6.522  0.1428  0.3313  0.2526
   95MOL   O11222860   4.139   3.391   6.545 -0.4620  0.6023 -0.2973
   95MOL   C11322861   4.079   3.330   6.443  0.2834 -0.4879  0.4102
   95MOL   C11422862   3.957   3.258   6.488  0.5652  0.2567  0.5623
   95MOL   O11522863   4.115   3.332   6.322  0.2422 -0.2040  0.3440
   95MOL   H11622864   4.443   3.469   6.633  0.3634 -2.4235 -1.3753
   95MOL   H11722865   4.358   3.320   6.657 -0.8781 -0.1898 -0.0248
   95MOL   H11822866   4.315   3.419   6.438 -2.1158 -0.0445 -1.1596
   95MOL   H11922867   3.873   3.256   6.418  2.3147 -2.0025 -1.5670
   95MOL   H12022868   3.927   3.308   6.581 -1.0564  0.7717 -0.2216
   95MOL   H12122869   3.981   3.153   6.507 -0.0039  0.3928  2.1127
   95MOL   C12222870   4.251   3.613   6.498  0.2482  0.3136  0.1024
   95MOL   C12322871   4.188   3.666   6.358  0.0204 -0.0617 -0.0479
   95MOL   O12422872   4.163   3.805   6.379 -0.1034 -0.2259  0.3649
   95MOL   C12522873   4.039   3.860   6.367 -0.1156  0.0267 -0.1505
   95MOL   C12622874   4.034   4.017   6.380 -0.8428 -0.1704  0.0012
   95MOL   O12722875   3.941   3.796   6.328 -0.4121  0.1289  0.6199
   95MOL   H12822876   4.179   3.660   6.566 -1.0272 -0.5109 -0.6462
   95MOL   H12922877   4.338   3.672   6.524  0.1798 -0.1383  1.3888
   95MOL   H13022878   4.090   3.626   6.334  0.1034 -0.2770 -0.0289
   95MOL   H13122879   3.942   4.041   6.432 -1.4549 -1.4650 -0.4548
   95MOL   H13222880   4.042   4.064   6.282 -0.0085 -1.2869 -0.4862
   95MOL   H13322881   4.118   4.049   6.443 -1.4044  0.8638  0.2310
   95MOL   C13422882   4.289   3.659   6.247 -0.7214 -0.3708 -0.0105
   95MOL   C13522883   4.223   3.687   6.113 -0.8597 -0.2462  0.5991
   95MOL   O13622884   4.317   3.742   6.023  0.0305 -0.4188  0.1416
   95MOL   C13722885   4.331   3.871   5.990  0.3610 -0.0563 -0.2162
   95MOL   C13822886   4.457   3.889   5.909 -0.1058  0.2712 -0.1535
   95MOL   O13922887   4.259   3.967   6.022  0.2681 -0.1656  0.1878
   95MOL   H14022888   4.374   3.724   6.269  0.0843 -1.2448 -0.4646
   95MOL   H14122889   4.326   3.556   6.244 -0.4261 -0.2554 -0.3886
   95MOL   H14222890   4.138   3.754   6.119 -3.3468 -3.0286 -2.2250
   95MOL   H14322891   4.452   3.972   5.838 -0.0650 -1.8243 -2.6587
   95MOL   H14422892   4.493   3.792   5.875  0.8987 -0.1903  2.1665
   95MOL   H14522893   4.539   3.913   5.977 -0.9626  0.4411  0.8401
   95MOL   C14622894   4.176   3.557   6.057 -0.2069 -0.2268  0.6465
   95MOL   C14722895   4.079   3.583   5.944 -0.5505  0.4405  0.1702
   95MOL   O14822896   4.079   3.478   5.848 -0.6095  0.5600  0.1517
   95MOL   C14922897   4.089   3.502   5.716  0.1561 -1.5001 -0.1700
   95MOL   C15022898   4.083   3.370   5.640  0.3833 -0.1424  0.6489
   95MOL   O15122899   4.099   3.613   5.661 -0.5749  0.4074  0.0017
   95MOL   H15222900   4.266   3.499   6.038  0.6452  1.3444 -0.2110
   95MOL   H15322901   4.125   3.509   6.141 -0.9095 -1.1734 -0.3086
   95MOL   H15422902   4.110   3.678   5.901 -0.4245 -0.0965 -0.9440
   95MOL   H15522903   3.997   3.317   5.682 -0.1098 -2.6227 -3.1968
   95MOL   H15622904   4.176   3.315   5.652  1.9190  1.9731 -1.1189
   95MOL   H15722905   4.055   3.377   5.534 -1.6220 -0.4597  1.1384
   95MOL   C15822906   3.939   3.603   6.001 -0.7326 -0.3032 -0.0485
   95MOL   C15922907   3.834   3.663   5.902 -0.3594  0.1404 -0.1526
   95MOL   O16022908   3.703   3.604   5.921 -0.1759  0.0189 -0.0916
   95MOL   C16122909   3.674   3.487   5.862 -0.0330 -0.1728  0.1327
   95MOL   C16222910   3.534   3.430   5.887 -0.3932 -0.5187 -0.2654
   95MOL   O16322911   3.753   3.420   5.789 -0.3687  0.1364  0.0223
   95MOL   H16422912   3.909   3.499   6.019 -0.3498 -0.3297  0.4451
   95MOL   H16522913   3.956   3.663   6.090 -0.5277  0.9979 -0.9493
   95MOL   H16622914   3.879   3.651   5.803  1.3294  2.1126  0.3439
   95MOL   H16722915   3.535   3.323   5.912  2.1897 -0.2371  1.0716
   95MOL   H16822916   3.472   3.451   5.800 -1.0384  1.8038  0.7243
   95MOL   H16922917   3.488   3.476   5.975  0.5395  0.8574 -0.5022
   95MOL   C17022918   3.819   3.812   5.927  0.6300  0.3601  0.0327
   95MOL   C17122919   3.750   3.899   5.814 -0.1572 -0.2306  0.3605
   95MOL   O17222920   3.762   4.040   5.852  0.1763  0.3192 -0.7537
   95MOL   C17322921   3.657   4.124   5.834  0.2293 -0.8510  0.5673
   95MOL   C17422922   3.695   4.272   5.838  0.0798 -1.0775 -0.7127
   95MOL   O17522923   3.546   4.086   5.793  0.1667 -0.1200 -0.1937
   95MOL   H17622924   3.761   3.808   6.020  2.0661  0.6222  0.9539
   95MOL   H17722925   3.918   3.850   5.951  0.9530 -1.1431  1.1173
   95MOL   H17822926   3.647   3.864   5.805  0.6456 -2.4661 -0.4261
   95MOL   H17922927   3.764   4.296   5.757 -0.5696 -3.1145 -1.9131
   95MOL   H18022928   3.733   4.294   5.937 -0.6890 -3.5640  0.1550
   95MOL   H18122929   3.600   4.324   5.821  0.5582  0.0212 -0.0470
   95MOL   C18222930   3.808   3.880   5.673 -0.3294 -0.2329  0.1536
   95MOL   C18322931   3.736   3.785   5.588 -0.2570  0.6992  0.5240
   95MOL   O18422932   3.606   3.838   5.566 -0.4568 -0.0373 -0.6300
   95MOL   C18522933   3.497   3.768   5.581 -0.3340 -0.7891 -0.0093
   95MOL   C18622934   3.378   3.863   5.605  0.8094  0.1698 -0.2290
   95MOL   O18722935   3.480   3.649   5.584 -0.1208 -0.8524  0.3944
   95MOL   H18822936   3.808   3.968   5.609 -2.2041 -0.0183  0.4015
   95MOL   H18922937   3.909   3.840   5.677 -0.5003 -0.6141  0.8925
   95MOL   H19022938   3.729   3.691   5.643 -1.3790 -2.2902 -4.3923
   95MOL   H19122939   3.282   3.818   5.577 -0.3836  2.5167 -0.0295
   95MOL   H19222940   3.377   3.960   5.556  0.8888 -0.1419 -0.8658
   95MOL   H19322941   3.362   3.886   5.710 -0.4526 -2.6445  0.2583
   95MOL   C19422942   3.811   3.758   5.450 -0.0814 -0.1092 -0.9941
   95MOL   C19522943   3.774   3.639   5.364  0.1385  0.0261 -0.4352
   95MOL   O19622944   3.877   3.641   5.263 -0.6655 -0.0675 -0.3236
   95MOL   C19722945   3.857   3.679   5.144 -0.0676 -0.2479 -0.7652
   95MOL   C19822946   3.953   3.618   5.045 -0.1096  0.6968  0.3692
   95MOL   O19922947   3.775   3.759   5.110 -0.3034  0.1160 -0.0588
   95MOL   H20022948   3.808   3.847   5.386 -1.4763  0.1860 -0.5376
   95MOL   H20122949   3.917   3.749   5.475 -0.6056  1.0907  1.8689
   95MOL   H20222950   3.673   3.661   5.328  0.9095  0.3469 -2.4928
   95MOL   H20322951   3.928   3.517   5.012  4.6948 -1.0719  1.7334
   95MOL   H20422952   4.046   3.610   5.101 -0.5426  1.5112  1.2324
   95MOL   H20522953   3.980   3.679   4.959  3.5858  1.4570  1.9676
   95MOL   C20622954   3.769   3.495   5.427  0.6203  0.3093 -0.3829
   95MOL   C20722955   3.684   3.408   5.341 -0.9953  0.0915  0.1033
   95MOL   O20822956   3.736   3.274   5.343  0.2471 -0.2106 -0.6072
   95MOL   C20922957   3.846   3.243   5.276 -0.2227  0.7950  0.2147
   95MOL   C21022958   3.900   3.102   5.311 -0.1474 -0.5659  0.1534
   95MOL   O21122959   3.905   3.302   5.185  0.0677 -0.2094 -0.4033
   95MOL   H21222960   3.870   3.458   5.442  0.8210  1.1659  0.4560
   95MOL   H21322961   3.721   3.507   5.525  2.7267  1.4129  0.5546
   95MOL   H21422962   3.676   3.434   5.236 -0.1882 -0.9249 -0.2199
   95MOL   H21522963   4.001   3.103   5.353 -0.3007  0.9708  0.5428
   95MOL   H21622964   3.901   3.040   5.222  0.7123  1.4008 -1.2590
   95MOL   H21722965   3.840   3.044   5.381  0.5343 -1.2118  0.1998
   95MOL   C21822966   3.539   3.387   5.390 -0.6604 -0.3438 -0.9455
   95MOL   C21922967   3.442   3.303   5.309 -0.0565  1.1623 -0.4730
   95MOL   O22022968   3.497   3.167   5.309  0.1970 -0.0132  0.2816
   95MOL   C22122969   3.518   3.100   5.201 -1.1473 -0.0472 -0.0773
   95MOL   C22222970   3.599   2.967   5.225  0.5722  0.1289 -0.2396
   95MOL   O22322971   3.484   3.145   5.088 -0.0648 -0.5585 -0.5929
   95MOL   H22422972   3.551   3.346   5.491  2.1714  0.2735 -0.9836
   95MOL   H22522973   3.485   3.481   5.406 -0.2442 -0.2862  0.1846
   95MOL   H22622974   3.444   3.356   5.213  0.6770  3.7473  0.9229
   95MOL   H22722975   3.658   2.966   5.316 -1.4630  0.4960  1.1140
   95MOL   H22822976   3.665   2.944   5.141  0.0205  1.5774 -1.0903
   95MOL   H22922977   3.534   2.881   5.241  0.0345  0.6381  0.3708
   95MOL   C23022978   3.301   3.294   5.367  0.0353 -0.2658 -0.1885
   95MOL   C23122979   3.208   3.421   5.349  0.6004  0.3118 -0.0203
   95MOL   O23222980   3.175   3.432   5.213 -0.1516 -0.4053  0.1999
   95MOL   C23322981   3.218   3.535   5.129 -0.3217  0.1960 -0.6934
   95MOL   C23422982   3.205   3.493   4.984 -0.0862 -0.0355  0.0229
   95MOL   O23522983   3.277   3.639   5.160  0.3500  0.0873 -0.1097
   95MOL   H23622984   3.254   3.208   5.319 -1.2880  0.8591 -0.9434
   95MOL   H23722985   3.307   3.280   5.475  0.2272  3.3395  0.3355
   95MOL   H23822986   3.263   3.505   5.392 -0.1081 -0.3242  2.2005
   95MOL   H23922987   3.128   3.549   4.931 -1.5037 -0.5956  1.4645
   95MOL   H24022988   3.174   3.388   4.981 -2.5000  0.6812 -2.0077
   95MOL   H24122989   3.299   3.500   4.929 -0.1992  1.1560 -0.0204
   95MOL   H24222990   3.107   3.420   5.391  0.2391  0.1207 -0.8930
   96MOL     C122991   1.153   7.937   6.631 -0.4256  0.3549 -0.0917
   96MOL     C222992   1.139   7.908   6.781 -0.1903  0.2405  0.2493
   96MOL     O322993   1.270   7.863   6.825 -0.0690  0.3202 -0.0041
   96MOL     C422994   1.279   7.734   6.863 -0.2684  0.0257 -0.7415
   96MOL     C522995   1.424   7.693   6.904 -0.2722  0.8914 -0.7118
   96MOL     O622996   1.189   7.645   6.860 -0.8457  0.0361 -0.2662
   96MOL     H722997   1.181   7.846   6.577 -0.1462  0.6579 -0.4605
   96MOL     H822998   1.231   8.012   6.617 -0.2392  0.4648  1.4177
   96MOL     H922999   1.054   7.843   6.799 -0.6840  0.8191  0.0457
   96MOL    H1023000   1.425   7.589   6.936  1.7108  1.6521  1.9748
   96MOL    H1123001   1.457   7.756   6.986 -0.2364  1.0339 -0.8345
   96MOL    H1223002   1.484   7.720   6.816  2.2195  2.9699  1.5278
   96MOL    H1323003   1.064   7.990   6.596  0.7782  1.8303 -0.9814
   96MOL    C1423004   1.099   0.018   6.858  0.0255 -0.1785  0.2864
   96MOL    C1523005   1.060   0.020   7.009 -0.3252  0.1734  0.1809
   96MOL    O1623006   1.049   0.157   7.030  0.2128  0.0270 -0.4941
   96MOL    C1723007   1.088   0.223   7.142  0.7817  0.7652  0.8428
   96MOL    C1823008   1.075   0.375   7.131 -0.8382  0.2484  0.1271
   96MOL    O1923009   1.129   0.169   7.245  0.4754 -0.7117  0.2815
   96MOL    H2023010   1.177   0.093   6.843  1.3608 -1.3911  1.0732
   96MOL    H2123011   1.021   0.065   6.798 -0.2019  0.6086  1.1787
   96MOL    H2223012   1.132   7.996   7.078  1.2964 -0.5656 -1.9323
   96MOL    H2323013   0.982   0.405   7.179  1.0489  2.0692  2.8019
   96MOL    H2423014   1.082   0.401   7.025  1.1705 -0.0929  0.1543
   96MOL    H2523015   1.154   0.426   7.185  1.4684 -0.5066 -2.4257
   96MOL    C2623016   0.924   7.971   7.052  0.0975 -0.1433  0.3025
   96MOL    C2723017   0.940   7.826   7.092 -0.7363  0.9820 -0.9487
   96MOL    O2823018   0.963   7.825   7.232  0.6906  0.3103 -0.1132
   96MOL    C2923019   1.077   7.770   7.297  1.0069  0.1866 -0.8227
   96MOL    C3023020   1.076   7.788   7.447 -0.6984 -0.1807  0.2615
   96MOL    O3123021   1.168   7.723   7.233 -0.5540  0.7640 -0.5011
   96MOL    H3223022   0.867   0.001   7.129 -0.1657 -0.6936  0.4775
   96MOL    H3323023   0.862   7.968   6.962  0.4166  1.8069  0.0108
   96MOL    H3423024   1.028   7.786   7.043  0.0331  2.1447 -0.5351
   96MOL    H3523025   1.072   7.893   7.475 -2.1761  0.1959 -1.3321
   96MOL    H3623026   1.161   7.733   7.488 -0.4920 -0.5593 -0.6772
   96MOL    H3723027   0.988   7.738   7.487  0.5438 -1.2056  1.8108
   96MOL    C3823028   0.808   7.749   7.052  0.3628  0.3549  0.1860
   96MOL    C3923029   0.802   7.602   7.119  0.2839  0.2559 -0.2381
   96MOL    O4023030   0.668   7.569   7.118 -0.2487  0.2678  0.3825
   96MOL    C4123031   0.584   7.595   7.215  0.3902 -0.4739 -0.8547
   96MOL    C4223032   0.437   7.554   7.189  0.5441 -0.1635  0.4702
   96MOL    O4323033   0.617   7.657   7.319  0.0959  0.1238  0.7866
   96MOL    H4423034   0.733   7.812   7.099  1.2789  0.4845  1.5230
   96MOL    H4523035   0.801   7.756   6.944 -0.8525 -2.0236  0.0800
   96MOL    H4623036   0.834   7.605   7.223 -1.9715  0.1296  0.4857
   96MOL    H4723037   0.365   7.623   7.146 -0.2100  0.8956  3.2917
   96MOL    H4823038   0.390   7.510   7.277  0.2995  1.0288  0.9563
   96MOL    H4923039   0.435   7.476   7.113 -1.5905 -0.8547  1.2024
   96MOL    C5023040   0.892   7.504   7.040  0.7993 -0.1186 -0.4030
   96MOL    C5123041   0.927   7.378   7.114 -0.2636  0.2493 -1.0410
   96MOL    O5223042   0.804   7.296   7.122 -0.8798 -0.6037 -0.4284
   96MOL    C5323043   0.743   7.270   7.236 -0.0433  0.2098 -0.1136
   96MOL    C5423044   0.610   7.200   7.219  0.1682  0.1856 -0.2615
   96MOL    O5523045   0.790   7.288   7.345  0.0066  0.1972  0.0780
   96MOL    H5623046   0.852   7.501   6.938  1.7331 -1.3926 -0.7386
   96MOL    H5723047   0.981   7.563   7.020  0.1932  0.9080 -0.0964
   96MOL    H5823048   0.967   7.404   7.212  2.3718  0.3533 -2.1136
   96MOL    H5923049   0.607   7.140   7.128 -1.9024 -1.1826  0.6715
   96MOL    H6023050   0.533   7.276   7.209 -0.1172 -0.1808 -0.8533
   96MOL    H6123051   0.597   7.136   7.306  2.9433  0.7766  0.6359
   96MOL    C6223052   1.034   7.287   7.040 -0.1682 -0.5599  0.4080
   96MOL    C6323053   1.055   7.148   7.101  0.2672 -0.0004  0.5257
   96MOL    O6423054   1.171   7.093   7.020 -0.6053 -0.4538  0.1956
   96MOL    C6523055   1.170   6.959   6.983  0.6872  0.4013  0.9695
   96MOL    C6623056   1.302   6.910   6.931 -0.8410  0.1915  0.5056
   96MOL    O6723057   1.075   6.884   6.993 -0.0162  0.1157  0.6858
   96MOL    H6823058   1.012   7.266   6.935 -0.9156  1.5266  0.1284
   96MOL    H6923059   1.128   7.341   7.039 -1.0587  1.0832  2.3460
   96MOL    H7023060   0.963   7.096   7.075 -0.1691  1.0606 -0.0650
   96MOL    H7123061   1.338   6.957   6.840 -1.5671  0.2948  0.2731
   96MOL    H7223062   1.298   6.803   6.909  2.8802 -0.6382  3.2238
   96MOL    H7323063   1.379   6.926   7.006 -0.8678 -1.0585  0.8129
   96MOL    C7423064   1.096   7.146   7.247 -0.0059 -0.1701  0.1556
   96MOL    C7523065   1.113   7.002   7.304 -0.3182  0.6031 -0.0555
   96MOL    O7623066   1.249   6.977   7.303 -0.5415  0.3380  0.5669
   96MOL    C7723067   1.292   6.848   7.322 -1.1588 -0.2311 -0.7508
   96MOL    C7823068   1.446   6.848   7.330 -0.3064  0.1225  0.0162
   96MOL    O7923069   1.221   6.747   7.346 -0.0818 -0.5673 -0.2871
   96MOL    H8023070   1.185   7.208   7.261  1.8166 -2.2015 -2.1621
   96MOL    H8123071   1.015   7.195   7.301 -0.7827  0.2962 -1.4115
   96MOL    H8223072   1.064   6.931   7.238 -0.4809  1.1565 -0.5382
   96MOL    H8323073   1.490   6.876   7.234 -0.4452 -0.5639 -0.2548
   96MOL    H8423074   1.491   6.753   7.359 -1.1285 -0.9506 -2.1291
   96MOL    H8523075   1.481   6.918   7.406  0.7023  0.8014 -1.0606
   96MOL    C8623076   1.061   6.993   7.456 -1.1591  0.2318 -0.2167
   96MOL    C8723077   0.910   6.989   7.461  0.5361 -0.7175 -0.1822
   96MOL    O8823078   0.869   6.860   7.430  0.1962 -0.2384  0.4751
   96MOL    C8923079   0.795   6.844   7.315  0.1624  0.3518  0.0028
   96MOL    C9023080   0.731   6.702   7.308  0.7306 -0.1313  0.2899
   96MOL    O9123081   0.775   6.926   7.234 -0.0435  0.3183 -0.1683
   96MOL    H9223082   1.100   6.909   7.513 -0.1842 -0.2039 -1.5160
   96MOL    H9323083   1.094   7.080   7.512  0.2038 -0.6247  0.3225
   96MOL    H9423084   0.882   7.067   7.390 -0.4491 -0.6098  0.3122
   96MOL    H9523085   0.732   6.670   7.203 -1.0253  1.3432 -0.1937
   96MOL    H9623086   0.627   6.688   7.337 -0.2293  1.8540 -1.9910
   96MOL    H9723087   0.800   6.636   7.360  0.2886 -0.6461  0.2186
   96MOL    C9823088   0.860   7.033   7.601 -0.8640 -0.4235 -0.5368
   96MOL    C9923089   0.718   7.083   7.603 -0.3201  0.4509 -0.0317
   96MOL   O10023090   0.632   6.977   7.570  0.2865 -0.1689  0.3850
   96MOL   C10123091   0.507   6.998   7.523 -0.0767 -0.1251 -0.3679
   96MOL   C10223092   0.432   6.863   7.513 -0.5078  0.2930 -1.2074
   96MOL   O10323093   0.462   7.106   7.493  0.1055 -0.7441  0.0405
   96MOL   H10423094   0.863   6.940   7.658  1.0563  0.2872  0.5585
   96MOL   H10523095   0.928   7.108   7.641  0.6349 -1.0017 -1.9128
   96MOL   H10623096   0.712   7.172   7.541  1.1985 -0.4963 -1.6076
   96MOL   H10723097   0.391   6.839   7.611 -0.0818 -0.6956 -1.2657
   96MOL   H10823098   0.501   6.791   7.469  1.8051  1.2975  0.5996
   96MOL   H10923099   0.344   6.882   7.452 -0.8314 -1.0850 -1.1718
   96MOL   C11023100   0.691   7.134   7.742  0.2509 -0.0186  0.1586
   96MOL   C11123101   0.630   7.030   7.837 -0.8701 -0.4867 -0.3631
   96MOL   O11223102   0.727   6.936   7.876  0.5671 -0.1243 -0.3996
   96MOL   C11323103   0.707   6.808   7.864  0.0695  0.7029  0.2040
   96MOL   C11423104   0.799   6.730   7.950 -0.6537  0.1687  0.2667
   96MOL   O11523105   0.615   6.763   7.797  0.0749 -0.0239 -0.6812
   96MOL   H11623106   0.768   7.206   7.772  0.3891 -0.4336  0.8101
   96MOL   H11723107   0.605   7.201   7.735 -0.2787 -0.5634  1.3316
   96MOL   H11823108   0.537   6.988   7.798 -0.7453 -0.4225 -0.7319
   96MOL   H11923109   0.820   6.632   7.907 -1.1401 -1.4778  3.5821
   96MOL   H12023110   0.758   6.706   0.027 -1.4355 -1.9534 -0.5416
   96MOL   H12123111   0.893   6.776   7.982 -1.1629  0.2678  1.6916
   96MOL   C12223112   0.582   7.097   7.970 -0.2304  0.1415  0.0445
   96MOL   C12323113   0.473   7.202   7.955 -0.1866  0.1024 -0.0364
   96MOL   O12423114   0.379   7.136   7.868 -0.5803 -0.6550 -0.9090
   96MOL   C12523115   0.294   7.202   7.791 -0.1161 -0.3917  0.2807
   96MOL   C12623116   0.211   7.105   7.707 -0.2319 -0.2184 -0.9195
   96MOL   O12723117   0.263   7.321   7.790  0.5390  0.2217 -0.1495
   96MOL   H12823118   0.553   7.019   0.020  0.5912 -0.2763 -0.0721
   96MOL   H12923119   0.666   7.144   8.021  0.3917 -1.7949  0.8674
   96MOL   H13023120   0.511   7.290   7.904 -1.3602  0.9727  0.5698
   96MOL   H13123121   0.131   7.072   7.773  1.0535 -0.3545  0.5870
   96MOL   H13223122   0.270   7.024   7.664  2.4842  1.0625  0.3263
   96MOL   H13323123   0.158   7.159   7.628 -1.2120  0.6320  0.2954
   96MOL   C13423124   0.411   7.232   0.070 -0.1600 -0.4269 -0.1781
   96MOL   C13523125   0.314   7.355   0.095  0.6018 -0.5731 -0.7233
   96MOL   O13623126   0.236   7.340   0.213 -0.0446 -0.8272  0.5447
   96MOL   C13723127   0.101   7.324   0.202 -0.1019 -0.4177  0.3265
   96MOL   C13823128   0.025   7.338   0.334 -0.5926 -0.0522  0.0737
   96MOL   O13923129   0.035   7.296   0.096  0.5153  0.4035 -0.5124
   96MOL   H14023130   0.361   7.142   0.108 -0.0716 -0.2653  0.3230
   96MOL   H14123131   0.490   7.243   0.144 -0.6592  0.8222  0.1696
   96MOL   H14223132   0.250   7.368   0.008  1.5828  1.5374 -1.1795
   96MOL   H14323133   0.001   7.442   0.356 -0.2853 -0.1633  0.9581
   96MOL   H14423134   0.093   7.309   0.414  0.1178 -0.2050 -0.5791
   96MOL   H14523135   7.965   7.265   0.330 -1.5332  1.0214 -0.7252
   96MOL   C14623136   0.393   7.489   0.120 -0.5954 -0.1678  0.2804
   96MOL   C14723137   0.327   7.612   0.058 -0.6897  0.2626 -0.2167
   96MOL   O14823138   0.379   7.732   0.127 -0.4444  0.3423 -0.1797
   96MOL   C14923139   0.328   7.777   0.237  0.0040 -0.4626  1.6129
   96MOL   C15023140   0.367   7.923   0.284 -0.5530  0.2363 -0.5395
   96MOL   O15123141   0.247   7.711   0.305  0.0835 -0.0491  0.1567
   96MOL   H15223142   0.402   7.510   0.227 -1.4221  2.6040 -0.1693
   96MOL   H15323143   0.499   7.477   0.096  0.1272  2.9561  1.5533
   96MOL   H15423144   0.220   7.601   0.073 -1.0444  3.2735 -0.2189
   96MOL   H15523145   0.471   7.936   0.314  0.3127 -1.6505 -2.5805
   96MOL   H15623146   0.295   7.943   0.363 -0.2091 -0.8284  0.0483
   96MOL   H15723147   0.365   7.995   0.202  1.9806 -1.6589 -2.3502
   96MOL   C15823148   0.351   7.622   7.928  0.2843  0.1460 -0.2548
   96MOL   C15923149   0.491   7.609   7.870  0.1370  1.1601  0.2848
   96MOL   O16023150   0.474   7.544   7.743  0.1598 -0.4071 -0.3137
   96MOL   C16123151   0.575   7.492   7.677  0.3292  0.9247 -0.3472
   96MOL   C16223152   0.518   7.424   7.552 -0.1474  0.6220  0.1587
   96MOL   O16323153   0.696   7.488   7.701 -0.1187 -0.3277  0.4431
   96MOL   H16423154   0.287   7.545   7.885  0.1170 -0.5631  1.2574
   96MOL   H16523155   0.314   7.722   7.907  2.4145  0.5336 -2.4659
   96MOL   H16623156   0.553   7.547   7.935  0.6930  2.1887  0.7585
   96MOL   H16723157   0.487   7.506   7.487  1.0647 -0.0013 -1.2406
   96MOL   H16823158   0.439   7.352   7.572 -0.2058  0.4147 -0.7623
   96MOL   H16923159   0.603   7.376   7.503 -1.2461  0.0446 -1.1930
   96MOL   C17023160   0.581   7.735   7.880  0.1925  0.2902 -0.1903
   96MOL   C17123161   0.564   7.847   7.776 -0.2337  0.1394  0.0273
   96MOL   O17223162   0.432   7.909   7.800 -0.7245 -0.0379 -0.4460
   96MOL   C17323163   0.351   7.948   7.701  0.9419  0.4003 -0.4254
   96MOL   C17423164   0.210   7.991   7.736 -0.1963 -0.3927  0.1310
   96MOL   O17523165   0.384   7.931   7.584 -0.3094  0.4416  0.0588
   96MOL   H17623166   0.571   7.789   7.974 -0.2838  0.7245 -0.4868
   96MOL   H17723167   0.684   7.701   7.879  0.7912  1.9984  0.8042
   96MOL   H17823168   0.558   7.802   7.677  0.1502 -1.7196  0.8257
   96MOL   H17923169   0.154   7.913   7.788  0.0502 -1.7018 -1.5251
   96MOL   H18023170   0.163   0.002   7.643 -0.2684  0.5581  0.4911
   96MOL   H18123171   0.225   0.051   7.808 -1.6680 -1.4957  1.7312
   96MOL   C18223172   0.673   7.951   7.777  0.4114 -0.3539 -0.2124
   96MOL   C18323173   0.784   7.932   7.667 -0.3491  0.4104  0.4405
   96MOL   O18423174   0.859   7.815   7.686 -0.3054 -0.4069  0.2155
   96MOL   C18523175   0.949   7.806   7.783 -0.2009 -0.1583  0.4803
   96MOL   C18623176   1.030   7.674   7.778  0.4753  0.2373 -0.0144
   96MOL   O18723177   0.954   7.878   7.879 -1.2150  0.2334 -0.3085
   96MOL   H18823178   0.617   0.022   7.762  0.0037 -0.2967  1.5055
   96MOL   H18923179   0.708   7.953   7.881 -2.1433 -0.8560  0.6962
   96MOL   H19023180   0.854   8.016   7.670  1.5394 -1.1001 -0.2435
   96MOL   H19123181   1.119   7.676   7.840  0.5642  1.8255 -0.1724
   96MOL   H19223182   1.040   7.651   7.671 -0.9727 -2.9626  0.4722
   96MOL   H19323183   0.965   7.599   7.824 -0.4964  1.3395  0.4354
   96MOL   C19423184   0.730   7.921   7.524 -0.5438 -0.1523 -0.2339
   96MOL   C19523185   0.670   0.029   7.463 -0.4496 -0.2238 -0.5617
   96MOL   O19623186   0.770   0.129   7.454  0.3545 -0.4908 -0.1809
   96MOL   C19723187   0.772   0.242   7.519 -0.5110 -0.4242 -0.1895
   96MOL   C19823188   0.861   0.342   7.452 -0.1596 -0.0087 -0.0826
   96MOL   O19923189   0.701   0.267   7.619  0.1167 -0.3519 -0.1182
   96MOL   H20023190   0.813   7.900   7.456  0.5408  2.6794  0.1656
   96MOL   H20123191   0.661   7.837   7.514 -0.5547 -0.2782  0.8151
   96MOL   H20223192   0.587   0.070   7.520 -0.2757 -0.0371 -0.4435
   96MOL   H20323193   0.952   0.299   7.410  1.1423  0.8212  1.8350
   96MOL   H20423194   0.885   0.422   7.522 -0.9139  0.7120 -0.6386
   96MOL   H20523195   0.807   0.371   7.361  0.7599 -1.4755 -1.1200
   96MOL   C20623196   0.609   0.004   7.318  0.6497  0.4346  0.1196
   96MOL   C20723197   0.543   0.133   7.272  0.7033  0.5449  0.1384
   96MOL   O20823198   0.520   0.122   7.129 -0.3733 -0.4452 -0.9707
   96MOL   C20923199   0.607   0.155   7.042 -0.5600  0.5514 -0.1624
   96MOL   C21023200   0.559   0.153   6.895 -0.2244 -0.6876 -0.1843
   96MOL   O21123201   0.724   0.188   7.065 -0.0450  0.4213 -0.5661
   96MOL   H21223202   0.696   7.996   7.260  0.2231  1.0002 -0.8223
   96MOL   H21323203   0.531   7.951   7.331  1.4936 -0.5883 -0.5856
   96MOL   H21423204   0.613   0.215   7.285 -0.9452  1.8306  1.1172
   96MOL   H21523205   0.638   0.117   6.829  0.1814 -2.0106  0.9989
   96MOL   H21623206   0.522   0.247   6.855  1.4668 -0.1490 -0.5435
   96MOL   H21723207   0.488   0.072   6.881  0.4082 -1.5016  1.2233
   96MOL   C21823208   0.407   0.170   7.342  0.1217 -0.4710  0.6838
   96MOL   C21923209   0.348   0.313   7.307  0.4811 -0.0471  0.7715
   96MOL   O22023210   0.227   0.309   7.385 -0.0575 -0.2162  0.5807
   96MOL   C22123211   0.110   0.335   7.326 -0.1688  0.0182 -0.3274
   96MOL   C22223212   8.021   0.354   7.424  0.1530  1.0416 -0.7981
   96MOL   O22323213   0.084   0.328   7.204 -0.2012 -0.2774  0.0490
   96MOL   H22423214   0.334   0.091   7.325 -2.0118  1.3393  1.1352
   96MOL   H22523215   0.428   0.175   7.449  1.1599  0.4468  0.4465
   96MOL   H22623216   0.325   0.316   7.200 -0.0577  0.8643  0.9079
   96MOL   H22723217   0.019   0.283   7.505 -3.4347 -1.6883 -2.2110
   96MOL   H22823218   7.922   0.335   7.384  1.2656 -0.1989 -3.0067
   96MOL   H22923219   0.012   0.459   7.452  1.3317  1.4636 -2.8160
   96MOL   C23023220   0.434   0.427   7.358 -0.4224  0.0757 -0.1325
   96MOL   C23123221   0.385   0.567   7.333 -0.3028 -0.3617  0.5171
   96MOL   O23223222   0.273   0.585   7.417 -0.9096 -0.1493  0.1650
   96MOL   C23323223   0.266   0.676   7.510 -0.0919  0.3268  0.9289
   96MOL   C23423224   0.128   0.680   7.574  0.4101  0.5413  0.1722
   96MOL   O23523225   0.356   0.753   7.533  0.9471  0.1454 -0.3482
   96MOL   H23623226   0.462   0.413   7.463  0.9633 -1.4096 -0.6678
   96MOL   H23723227   0.532   0.420   7.312 -0.5139 -2.0040 -0.1009
   96MOL   H23823228   0.359   0.571   7.227  2.8555 -2.9028 -0.4204
   96MOL   H23923229   0.046   0.702   7.506  1.7415  0.0694 -1.6242
   96MOL   H24023230   0.113   0.768   7.636 -0.8591  0.2055  0.3523
   96MOL   H24123231   0.109   0.589   7.631  1.0190  1.0593  1.2352
   96MOL   H24223232   0.466   0.632   7.366  0.0088 -0.7067  0.4214
   97MOL     C123233   5.021   6.143   3.757 -0.0270 -0.7004  1.0693
   97MOL     C223234   4.910   6.224   3.686  0.6639  1.1855 -0.1565
   97MOL     O323235   4.946   6.365   3.693  0.0192  0.0911 -0.0831
   97MOL     C423236   4.894   6.448   3.779  0.2349  0.7389  0.2397
   97MOL     C523237   4.974   6.575   3.807  0.5198  0.1859  0.1037
   97MOL     O623238   4.790   6.426   3.849 -0.3371 -0.3726 -1.0267
   97MOL     H723239   4.977   6.043   3.760 -1.7783  0.0054 -0.1039
   97MOL     H823240   5.045   6.179   3.857  0.0685  0.0188  0.7906
   97MOL     H923241   4.831   6.199   3.756 -1.3334  0.2867 -2.6488
   97MOL    H1023242   4.920   6.648   3.746  0.5404 -1.2586 -1.6884
   97MOL    H1123243   5.063   6.548   3.751  0.5847 -0.4824  0.5246
   97MOL    H1223244   4.986   6.613   3.908  2.5158  1.2063 -0.5042
   97MOL    H1323245   5.114   6.126   3.702  0.0288 -0.7010  1.1639
   97MOL    C1423246   4.878   6.171   3.547  0.2889 -0.4541 -1.0165
   97MOL    C1523247   4.778   6.247   3.460 -0.1812 -1.0748  0.3669
   97MOL    O1623248   4.758   6.197   3.333  0.2605  0.2775  0.5893
   97MOL    C1723249   4.843   6.221   3.231 -0.6945  0.0183  0.0561
   97MOL    C1823250   4.815   6.137   3.111  0.0168  0.4511  0.5103
   97MOL    O1923251   4.933   6.305   3.227  0.6037 -0.3384 -0.0469
   97MOL    H2023252   4.965   6.170   3.481  0.1978  0.4119 -1.1542
   97MOL    H2123253   4.849   6.066   3.551 -1.1363 -0.0324  0.3463
   97MOL    H2223254   4.819   6.348   3.458  0.5173 -1.3647 -0.0957
   97MOL    H2323255   4.836   6.200   3.024 -1.8863  0.1633 -0.1928
   97MOL    H2423256   4.712   6.103   3.100  0.5196 -0.2322 -2.6164
   97MOL    H2523257   4.881   6.050   3.101  2.2307  2.2688 -1.2269
   97MOL    C2623258   4.638   6.253   3.533  0.4701  0.1224  1.1300
   97MOL    C2723259   4.567   6.113   3.550 -0.0869 -0.0392  0.2270
   97MOL    O2823260   4.594   6.072   3.680  0.1764 -0.4523 -0.3735
   97MOL    C2923261   4.656   5.951   3.708 -0.7964 -0.9004  0.3196
   97MOL    C3023262   4.680   5.934   3.861 -0.4647 -0.2860 -0.1315
   97MOL    O3123263   4.710   5.875   3.627  0.2325 -0.1793 -0.3754
   97MOL    H3223264   4.646   6.295   3.633  2.1390 -0.6537  1.3437
   97MOL    H3323265   4.577   6.327   3.481 -1.6615 -0.1728  3.1395
   97MOL    H3423266   4.605   6.041   3.477  0.3078 -0.6103  0.9980
   97MOL    H3523267   4.726   6.027   3.896 -2.9358  0.5631  0.9620
   97MOL    H3623268   4.758   5.861   3.885  0.0369  0.4945  0.6727
   97MOL    H3723269   4.589   5.904   3.913 -0.4650 -1.0376 -0.5487
   97MOL    C3823270   4.413   6.120   3.540 -0.2024 -0.2798 -0.0400
   97MOL    C3923271   4.357   6.119   3.396  0.1619  1.2256  0.4491
   97MOL    O4023272   4.424   6.227   3.332 -0.1732 -0.1042  0.0209
   97MOL    C4123273   4.354   6.309   3.260 -0.2642  0.9412 -0.0912
   97MOL    C4223274   4.433   6.387   3.167  0.3153  0.0173  0.0206
   97MOL    O4323275   4.236   6.326   3.270  0.2951  0.3144  1.0370
   97MOL    H4423276   4.377   6.034   3.597 -1.5129 -0.0718 -0.5325
   97MOL    H4523277   4.376   6.214   3.581  2.6985  0.6542  0.5191
   97MOL    H4623278   4.249   6.125   3.406  0.3931  0.5027  3.8582
   97MOL    H4723279   4.487   6.320   3.101 -0.6465 -0.4018 -0.3488
   97MOL    H4823280   4.491   6.460   3.223 -0.0661 -0.6155  1.2652
   97MOL    H4923281   4.367   6.442   3.101  1.4257  3.1262  1.4044
   97MOL    C5023282   4.390   5.993   3.308  0.2190  0.6610 -0.1726
   97MOL    C5123283   4.334   5.854   3.350 -0.4261  0.3458 -0.2929
   97MOL    O5223284   4.429   5.791   3.437  0.7223  0.6866 -0.0082
   97MOL    C5323285   4.515   5.710   3.379  0.1220  0.2860  0.4703
   97MOL    C5423286   4.560   5.604   3.472 -0.2998  0.3644 -0.2507
   97MOL    O5523287   4.560   5.708   3.266 -0.2902  0.3632  0.8206
   97MOL    H5623288   4.344   6.016   3.212 -0.4625 -0.7085 -0.1837
   97MOL    H5723289   4.495   6.004   3.281  0.2587 -1.4141 -0.9251
   97MOL    H5823290   4.309   5.796   3.261  0.4114 -1.8839  0.8842
   97MOL    H5923291   4.511   5.512   3.440  1.7854 -0.4357 -1.2557
   97MOL    H6023292   4.520   5.625   3.571  1.1912 -4.1189  1.4158
   97MOL    H6123293   4.666   5.602   3.497 -0.7745  0.1957  1.8198
   97MOL    C6223294   4.193   5.857   3.416  0.1425 -0.0724 -0.1181
   97MOL    C6323295   4.115   5.723   3.435  0.7176 -0.3374 -0.9661
   97MOL    O6423296   4.172   5.658   3.549  0.5420 -0.2113 -0.0731
   97MOL    C6523297   4.162   5.526   3.562 -0.2650  0.2843 -0.4399
   97MOL    C6623298   4.188   5.480   3.701  0.0077  0.3825 -0.1802
   97MOL    O6723299   4.127   5.443   3.477 -0.3098  0.3497  0.5168
   97MOL    H6823300   4.191   5.927   3.500  0.2980  0.6048 -0.6679
   97MOL    H6923301   4.141   5.902   3.331 -0.3973  1.3758  0.9609
   97MOL    H7023302   4.118   5.665   3.343  0.0598  0.8677 -1.7526
   97MOL    H7123303   4.186   5.563   3.772  0.3661 -0.0696  0.3672
   97MOL    H7223304   4.289   5.439   3.699 -0.0181  0.3418 -0.8608
   97MOL    H7323305   4.109   5.411   3.732 -1.2003 -0.1656 -4.2329
   97MOL    C7423306   3.970   5.737   3.467 -0.5016 -0.2963 -0.1654
   97MOL    C7523307   3.880   5.805   3.355 -0.4947 -0.3904 -0.3533
   97MOL    O7623308   3.857   5.705   3.254  0.0110  0.1995 -0.6448
   97MOL    C7723309   3.928   5.711   3.138 -0.0315  0.4866  0.2968
   97MOL    C7823310   3.922   5.578   3.066  0.1370  0.2088 -0.0181
   97MOL    O7923311   4.007   5.801   3.103 -0.1216 -0.9096  0.7365
   97MOL    H8023312   3.919   5.647   3.502 -1.6590  0.3033 -0.2869
   97MOL    H8123313   3.959   5.795   3.558 -0.4389 -0.3640 -0.1137
   97MOL    H8223314   3.935   5.890   3.316 -1.8343  0.0148 -1.4012
   97MOL    H8323315   3.900   5.579   2.960  0.8120  2.0964 -0.1470
   97MOL    H8423316   3.838   5.520   3.104 -0.5190  1.1871  0.0389
   97MOL    H8523317   4.016   5.525   3.079 -0.8827 -1.8407 -0.7852
   97MOL    C8623318   3.740   5.855   3.403  0.4650 -0.4285  0.0853
   97MOL    C8723319   3.672   5.954   3.306  0.3366  0.1179 -0.3972
   97MOL    O8823320   3.586   5.885   3.220 -0.1569 -0.1651 -0.0059
   97MOL    C8923321   3.562   5.921   3.094  0.1770 -0.2319  0.4949
   97MOL    C9023322   3.487   5.813   3.011 -0.2382  0.2420 -0.5979
   97MOL    O9123323   3.591   6.027   3.041  0.0503 -0.1430  0.1829
   97MOL    H9223324   3.673   5.770   3.417  0.0819 -0.2822 -0.7746
   97MOL    H9323325   3.759   5.906   3.497 -0.6519  2.0602 -0.9852
   97MOL    H9423326   3.748   6.007   3.248 -0.4114  1.4985 -0.1214
   97MOL    H9523327   3.388   5.805   3.058  0.3711 -0.7313  0.5515
   97MOL    H9623328   3.533   5.714   3.013  1.1873  0.9078  0.8117
   97MOL    H9723329   3.480   5.853   2.911  1.2204  2.0760  0.0143
   97MOL    C9823330   3.580   6.051   3.377  0.6315  1.0364 -1.0298
   97MOL    C9923331   3.641   6.165   3.462 -0.1768 -1.2655 -0.1995
   97MOL   O10023332   3.710   6.260   3.375 -0.3974  0.4847  0.1000
   97MOL   C10123333   3.846   6.262   3.345 -0.3880 -0.4128  0.4056
   97MOL   C10223334   3.894   6.381   3.259  0.7117 -0.3735  0.4383
   97MOL   O10323335   3.927   6.180   3.388  0.4177  0.5444 -0.3489
   97MOL   H10423336   3.516   6.094   3.300 -2.3411  0.1278  0.8646
   97MOL   H10523337   3.514   5.990   3.438 -0.8090  1.4911 -2.0878
   97MOL   H10623338   3.713   6.123   3.531 -0.5316 -0.2585  0.8060
   97MOL   H10723339   3.983   6.432   3.295  0.7241  0.3400 -0.5647
   97MOL   H10823340   3.818   6.460   3.252 -2.3680 -3.1987  0.9369
   97MOL   H10923341   3.912   6.340   3.160 -0.9348 -0.7454  0.2709
   97MOL   C11023342   3.543   6.251   3.552  0.6960 -0.1305  0.3739
   97MOL   C11123343   3.506   6.180   3.683  0.2429  0.5219 -0.5159
   97MOL   O11223344   3.612   6.183   3.779  0.0575  0.1847 -0.0820
   97MOL   C11323345   3.691   6.078   3.809  0.7757 -0.5440 -0.0359
   97MOL   C11423346   3.773   6.106   3.937 -0.2057 -0.1692  0.0029
   97MOL   O11523347   3.705   5.974   3.747 -0.0213 -0.2016 -0.1047
   97MOL   H11623348   3.579   6.350   3.581 -0.1382  0.8378 -1.7940
   97MOL   H11723349   3.462   6.290   3.490  0.0208 -1.8372  0.1639
   97MOL   H11823350   3.480   6.081   3.646 -0.0761 -0.0959  1.3485
   97MOL   H11923351   3.793   6.213   3.948 -1.2367  0.1007 -0.6677
   97MOL   H12023352   3.872   6.064   3.926  0.5374  1.6867 -0.6230
   97MOL   H12123353   3.729   6.074   4.031 -0.4215  0.1842  0.0247
   97MOL   C12223354   3.386   6.241   3.753 -0.0625  0.3583 -0.3115
   97MOL   C12323355   3.254   6.257   3.667 -0.2563  0.3829 -0.3628
   97MOL   O12423356   3.199   6.130   3.622 -0.0462  0.3375 -0.2210
   97MOL   C12523357   3.213   6.090   3.494 -0.0560  0.6439  0.0693
   97MOL   C12623358   3.166   5.946   3.467  0.4394 -0.5782 -0.0294
   97MOL   O12723359   3.263   6.159   3.400  0.5812 -0.0437 -0.0963
   97MOL   H12823360   3.367   6.186   3.846 -0.6660  0.7297 -0.2103
   97MOL   H12923361   3.421   6.335   3.795  1.6090 -1.5379  2.7443
   97MOL   H13023362   3.264   6.322   3.579 -0.3293  2.4975  1.1542
   97MOL   H13123363   3.173   5.875   3.549 -1.5712  2.0713  2.5364
   97MOL   H13223364   3.197   5.903   3.372  2.2147 -0.5634  0.5248
   97MOL   H13323365   3.058   5.946   3.452  0.6702 -0.2918 -1.8034
   97MOL   C13423366   3.142   6.329   3.740  0.1760 -0.4277  0.0807
   97MOL   C13523367   3.125   6.479   3.704 -0.1209 -0.1840 -0.4355
   97MOL   O13623368   3.077   6.480   3.574  0.2448  0.0462 -0.1600
   97MOL   C13723369   3.107   6.580   3.486 -0.4309 -0.5236 -0.1118
   97MOL   C13823370   3.040   6.565   3.342  0.5514  0.1540  0.0377
   97MOL   O13923371   3.182   6.672   3.512 -0.1193  0.3780  0.4802
   97MOL   H14023372   3.046   6.279   3.727 -0.9371  1.1480  1.9305
   97MOL   H14123373   3.171   6.319   3.845  3.5554  3.0481 -0.4030
   97MOL   H14223374   3.225   6.522   3.703 -0.9583  1.8303  1.0230
   97MOL   H14323375   3.076   6.651   3.286 -2.4982  0.1330 -2.0895
   97MOL   H14423376   2.932   6.581   3.346  0.8327  1.8123  1.9573
   97MOL   H14523377   3.053   6.482   3.273  1.7957  0.6846 -0.3806
   97MOL   C14623378   3.038   6.554   3.799 -0.2457 -1.1239 -1.1767
   97MOL   C14723379   3.117   6.623   3.918  0.1430 -0.1060 -0.0954
   97MOL   O14823380   3.196   6.524   3.983 -0.2965 -0.5095  0.5313
   97MOL   C14923381   3.219   6.518   4.110  0.3854 -0.2014 -0.2117
   97MOL   C15023382   3.297   6.387   4.134 -0.1855 -0.0319  0.7098
   97MOL   O15123383   3.163   6.585   4.199  0.6377  0.0152  0.2643
   97MOL   H15223384   2.978   6.634   3.754  1.9162  1.1900 -0.0970
   97MOL   H15323385   2.979   6.481   3.854 -2.3020  0.9293 -0.5325
   97MOL   H15423386   3.040   6.650   3.991 -0.9905  0.5385 -1.4969
   97MOL   H15523387   3.247   6.293   4.111  2.4353 -1.5468  1.0117
   97MOL   H15623388   3.324   6.384   4.240  0.8491  2.5633  0.5694
   97MOL   H15723389   3.390   6.386   4.077 -0.6034  0.1227  0.0247
   97MOL   C15823390   3.196   6.746   3.882  0.1647 -0.0662  0.3969
   97MOL   C15923391   3.120   6.857   3.816 -0.7224 -1.0231  0.3085
   97MOL   O16023392   3.050   6.934   3.909 -0.0431 -0.1952 -0.4211
   97MOL   C16123393   2.918   6.941   3.900  0.4449 -0.7498  0.5254
   97MOL   C16223394   2.858   7.000   4.021  0.5033 -0.0923  0.1615
   97MOL   O16323395   2.848   6.918   3.798 -0.9353  0.2747  0.1892
   97MOL   H16423396   3.253   6.791   3.963  0.7697  1.3788 -0.8206
   97MOL   H16523397   3.270   6.720   3.806  0.7826  2.3359  0.1636
   97MOL   H16623398   3.058   6.811   3.740  0.6236 -0.7686 -0.9655
   97MOL   H16723399   2.866   7.109   4.017 -0.4389 -0.0423 -0.3802
   97MOL   H16823400   2.912   6.978   4.113  1.9638 -0.6395 -0.8068
   97MOL   H16923401   2.754   6.972   4.034  0.6351 -0.1565  1.0860
   97MOL   C17023402   3.223   6.962   3.743 -0.3960 -0.3001 -0.1569
   97MOL   C17123403   3.160   7.076   3.662 -0.2376  0.6054  0.0702
   97MOL   O17223404   3.265   7.134   3.584  0.1623  0.0740 -0.6067
   97MOL   C17323405   3.325   7.238   3.635 -0.3165  0.1510  1.1418
   97MOL   C17423406   3.432   7.293   3.545 -0.0349 -0.1005  0.3323
   97MOL   O17523407   3.293   7.288   3.747 -0.2744  0.0923 -0.2497
   97MOL   H17623408   3.286   7.007   3.820 -2.6924  1.5339  0.6997
   97MOL   H17723409   3.294   6.906   3.682 -0.6990 -0.3189 -0.4913
   97MOL   H17823410   3.123   7.150   3.733  0.0608 -0.7651  1.6905
   97MOL   H17923411   3.396   7.291   3.443  3.5749 -1.2069 -0.9862
   97MOL   H18023412   3.514   7.222   3.535 -0.4170 -0.8017  2.0448
   97MOL   H18123413   3.462   7.394   3.573  1.6993 -0.8342  1.2334
   97MOL   C18223414   3.050   7.034   3.553  0.1033  0.5782 -0.0068
   97MOL   C18323415   2.964   7.142   3.495  0.8506 -0.1918 -0.7602
   97MOL   O18423416   3.014   7.192   3.372 -0.0762  0.7534 -0.2494
   97MOL   C18523417   3.069   7.314   3.381 -0.1557 -1.0184 -0.9725
   97MOL   C18623418   3.143   7.356   3.253 -0.4134  0.3430 -0.0206
   97MOL   O18723419   3.071   7.399   3.471  0.3489  0.4744  0.4546
   97MOL   H18823420   3.074   6.955   3.482 -0.7214 -0.0733  0.4314
   97MOL   H18923421   2.992   6.974   3.622  2.3679  0.6825  2.0858
   97MOL   H19023422   2.962   7.214   3.577 -1.3788  0.3220 -1.2314
   97MOL   H19123423   3.210   7.273   3.233  0.0787  0.7993 -0.2854
   97MOL   H19223424   3.215   7.437   3.263  0.3759 -0.3774  0.1290
   97MOL   H19323425   3.068   7.385   3.179 -1.4416  0.4961  1.0587
   97MOL   C19423426   2.826   7.103   3.477 -0.3538  0.2620  0.0378
   97MOL   C19523427   2.788   6.982   3.392  0.1487  0.0178 -0.4017
   97MOL   O19623428   2.686   6.903   3.446  0.4008  0.2179  0.1279
   97MOL   C19723429   2.710   6.790   3.514  0.0583 -0.4384  0.9433
   97MOL   C19823430   2.588   6.734   3.585 -0.0046 -0.0079  0.8984
   97MOL   O19923431   2.822   6.738   3.524 -0.3572  0.1574  0.0202
   97MOL   H20023432   2.784   7.096   3.578 -0.9724 -1.0979 -0.3091
   97MOL   H20123433   2.758   7.181   3.441 -0.6449  0.1653  0.3708
   97MOL   H20223434   2.885   6.933   3.380 -0.0810 -0.6670  0.4608
   97MOL   H20323435   2.518   6.807   3.626  0.2791  0.9466 -0.2837
   97MOL   H20423436   2.631   6.680   3.669 -0.1866  0.4426  1.2850
   97MOL   H20523437   2.538   6.651   3.534 -0.2949  0.2144  0.8182
   97MOL   C20623438   2.745   7.027   3.251 -0.4446  0.2489 -0.0374
   97MOL   C20723439   2.734   6.904   3.160 -0.4449  0.0970  0.2146
   97MOL   O20823440   2.617   6.832   3.166 -0.1244 -0.1321 -0.0619
   97MOL   C20923441   2.621   6.694   3.175  0.6283 -0.5140  0.9944
   97MOL   C21023442   2.481   6.632   3.171 -0.0546  0.7625  0.4670
   97MOL   O21123443   2.720   6.626   3.176  0.2805  0.3772 -0.0904
   97MOL   H21223444   2.645   7.069   3.263 -1.0688 -1.2072 -0.0233
   97MOL   H21323445   2.816   7.102   3.216  0.0753  0.8411  2.1890
   97MOL   H21423446   2.811   6.837   3.197 -1.0111 -1.0159 -0.6074
   97MOL   H21523447   2.452   6.574   3.258  0.2767  0.0028  0.0739
   97MOL   H21623448   2.478   6.580   3.075  0.5571  0.2980  0.6974
   97MOL   H21723449   2.410   6.715   3.162 -1.4004 -0.3429  0.7507
   97MOL   C21823450   2.785   6.923   3.015 -0.3934  0.5303 -0.0866
   97MOL   C21923451   2.717   7.031   2.924  0.1620 -0.0863 -0.1035
   97MOL   O22023452   2.792   7.052   2.795 -0.1814 -0.5175  0.2784
   97MOL   C22123453   2.887   7.146   2.784 -0.1119  0.7989  0.4483
   97MOL   C22223454   2.952   7.148   2.651 -0.7923 -0.1396  0.0783
   97MOL   O22323455   2.919   7.216   2.879 -0.4044  0.4176 -0.0095
   97MOL   H22423456   2.892   6.942   3.008 -0.1930 -0.0739  1.1199
   97MOL   H22523457   2.784   6.828   2.963  0.1148  1.3025 -1.5358
   97MOL   H22623458   2.703   7.123   2.982  0.1828 -0.0800 -0.1086
   97MOL   H22723459   2.993   7.247   2.631  2.2992 -1.2928  0.4241
   97MOL   H22823460   2.887   7.118   2.569  0.7853  0.3331 -1.3733
   97MOL   H22923461   3.044   7.090   2.659 -0.5440  0.1001 -1.0873
   97MOL   C23023462   2.571   6.983   2.873  0.2061  0.6496 -0.2343
   97MOL   C23123463   2.551   6.843   2.810  0.6366  0.5471  0.4720
   97MOL   O23223464   2.425   6.834   2.750  0.0911 -0.4582 -0.0132
   97MOL   C23323465   2.395   6.713   2.701  0.0089 -0.5786 -0.2950
   97MOL   C23423466   2.300   6.713   2.585  0.2127  0.5708 -0.7310
   97MOL   O23523467   2.446   6.608   2.743 -0.8982 -0.1449  0.0032
   97MOL   H23623468   2.509   6.987   2.963  0.9872  0.3978  0.3194
   97MOL   H23723469   2.533   7.056   2.801  0.5327 -1.3719 -2.5280
   97MOL   H23823470   2.576   6.769   2.886 -0.1600  0.6809  0.8593
   97MOL   H23923471   2.353   6.740   2.494  1.1389  0.7874 -0.1390
   97MOL   H24023472   2.225   6.790   2.602 -0.8596 -0.6465  0.1485
   97MOL   H24123473   2.232   6.630   2.566  1.1425 -0.1210 -1.0956
   97MOL   H24223474   2.621   6.836   2.726 -0.0830 -0.2771 -0.0668
   98MOL     C123475   0.928   6.196   3.099 -0.1396 -0.4501 -0.6385
   98MOL     C223476   1.018   6.117   3.184  0.0400  0.3947 -0.8951
   98MOL     O323477   1.151   6.169   3.174 -0.1356 -0.3371  0.0082
   98MOL     C423478   1.231   6.127   3.080  0.1992 -0.1026 -0.6869
   98MOL     C523479   1.366   6.188   3.096 -0.3558  0.4171 -0.3743
   98MOL     O623480   1.213   6.035   3.000  0.0964  0.2840  0.6900
   98MOL     H723481   0.931   6.302   3.127 -2.8826  0.4969 -3.5254
   98MOL     H823482   0.825   6.161   3.099  0.1134 -1.2012 -0.9877
   98MOL     H923483   1.008   6.014   3.151  2.1832 -0.1155 -0.0706
   98MOL    H1023484   1.395   6.193   3.201 -0.7700 -0.1261 -0.2341
   98MOL    H1123485   1.362   6.284   3.044  0.6019  0.4997 -0.3082
   98MOL    H1223486   1.434   6.121   3.044  1.9648  0.6549  2.2250
   98MOL    H1323487   0.961   6.193   2.995  2.1625 -1.0695  0.0942
   98MOL    C1423488   0.973   6.115   3.329 -0.1896  0.0844  0.0784
   98MOL    C1523489   1.029   5.993   3.404  0.1586  0.3475 -0.1764
   98MOL    O1623490   1.058   6.033   3.542  0.5074 -0.4294  0.1204
   98MOL    C1723491   1.174   6.097   3.557  0.3419  0.4083  0.5464
   98MOL    C1823492   1.211   6.123   3.698  0.1190 -0.3206 -0.0090
   98MOL    O1923493   1.251   6.129   3.468 -0.3689 -0.0823 -0.7408
   98MOL    H2023494   1.005   6.206   3.380  1.8824 -1.2661  1.2823
   98MOL    H2123495   0.864   6.112   3.322 -0.1199 -0.0298 -1.0219
   98MOL    H2223496   1.118   5.964   3.349 -3.2145 -5.1521 -3.1039
   98MOL    H2323497   1.284   6.052   3.735  1.0179  1.6140  2.0702
   98MOL    H2423498   1.126   6.123   3.766  0.6739  1.8285  0.7509
   98MOL    H2523499   1.255   6.223   3.704 -2.3382  0.7966 -0.2139
   98MOL    C2623500   0.941   5.866   3.397 -0.2082  0.2666 -0.0053
   98MOL    C2723501   1.016   5.732   3.422 -0.3608  0.0852 -0.1456
   98MOL    O2823502   0.910   5.650   3.479  0.5932 -0.0335  0.0922
   98MOL    C2923503   0.941   5.551   3.556  0.5792  0.3748 -0.4939
   98MOL    C3023504   0.820   5.471   3.601 -0.0496  0.4311 -0.6119
   98MOL    O3123505   1.056   5.517   3.591 -0.1162 -0.4096 -0.2170
   98MOL    H3223506   0.871   5.890   3.477  0.7645  2.2845  0.2853
   98MOL    H3323507   0.886   5.869   3.303  0.5394 -1.3969 -0.5168
   98MOL    H3423508   1.094   5.750   3.495  0.9474  0.4089 -1.6093
   98MOL    H3523509   0.862   5.411   3.681  0.7023  1.5368 -0.1648
   98MOL    H3623510   0.785   5.403   3.524 -0.8164  0.9005 -0.6897
   98MOL    H3723511   0.732   5.521   3.643 -0.1208 -0.1089 -0.1139
   98MOL    C3823512   1.090   5.680   3.298  1.1567  0.3613  1.1759
   98MOL    C3923513   0.998   5.591   3.205 -0.5601  0.4787  0.2436
   98MOL    O4023514   0.883   5.672   3.162  0.1362 -0.3189  0.3624
   98MOL    C4123515   0.765   5.616   3.162  0.4365  0.5363  0.1275
   98MOL    C4223516   0.661   5.715   3.124  0.3219 -0.0867 -0.3135
   98MOL    O4323517   0.741   5.498   3.194  0.2119 -0.7379  0.0727
   98MOL    H4423518   1.127   5.766   3.242  0.6656  0.3208  0.7864
   98MOL    H4523519   1.174   5.617   3.328  0.7847 -1.2778 -1.0694
   98MOL    H4623520   0.961   5.510   3.268  0.9567  0.4265  1.1008
   98MOL    H4723521   0.566   5.679   3.164  0.3621  0.8897  0.7028
   98MOL    H4823522   0.641   5.722   3.018 -0.5231 -0.3129 -0.1722
   98MOL    H4923523   0.681   5.813   3.167 -0.0156 -0.2714  0.2723
   98MOL    C5023524   1.086   5.542   3.083  0.3046 -0.2497  0.3527
   98MOL    C5123525   1.172   5.415   3.113 -0.3807 -0.2094  0.0769
   98MOL    O5223526   1.083   5.304   3.124  0.3249  1.0197 -0.1121
   98MOL    C5323527   1.095   5.214   3.219  0.7204 -0.6407 -0.1730
   98MOL    C5423528   1.001   5.095   3.218  0.1833 -0.1796 -0.0324
   98MOL    O5523529   1.174   5.219   3.308 -0.3821  0.1489 -0.3872
   98MOL    H5623530   1.023   5.522   2.996  0.2177  0.2935  0.2867
   98MOL    H5723531   1.136   5.627   3.036  0.5043 -0.0723  0.8806
   98MOL    H5823532   1.225   5.443   3.205 -0.6947 -0.5515  0.3667
   98MOL    H5923533   1.024   5.027   3.300 -0.0920 -0.4112 -0.1465
   98MOL    H6023534   1.019   5.035   3.129  2.2327 -0.7716  0.7556
   98MOL    H6123535   0.902   5.139   3.227  1.2577  2.8818 -2.2119
   98MOL    C6223536   1.278   5.384   3.004  0.1767 -0.1396  0.3486
   98MOL    C6323537   1.399   5.482   2.996 -0.6655  0.5249  0.9434
   98MOL    O6423538   1.497   5.440   3.093 -0.9179 -0.8074 -0.2505
   98MOL    C6523539   1.605   5.517   3.129  0.0918 -1.1056  0.4115
   98MOL    C6623540   1.673   5.460   3.249 -0.2585  0.0392  0.0239
   98MOL    O6723541   1.642   5.618   3.076  0.6340 -0.2368  0.1820
   98MOL    H6823542   1.301   5.279   3.025 -1.4434 -1.0352 -2.1046
   98MOL    H6923543   1.229   5.391   2.907  0.8533  3.6866  0.1929
   98MOL    H7023544   1.367   5.585   3.013 -1.6975  0.9735 -3.0825
   98MOL    H7123545   1.609   5.383   3.293 -0.9866  0.2498 -0.6399
   98MOL    H7223546   1.667   5.538   3.325  2.0437 -1.8705  2.2602
   98MOL    H7323547   1.768   5.416   3.217 -0.5263 -0.0416 -0.6701
   98MOL    C7423548   1.471   5.490   2.856  0.1000 -0.0961  1.7432
   98MOL    C7523549   1.385   5.506   2.728  0.7840 -0.0739  0.6296
   98MOL    O7623550   1.297   5.616   2.747  0.0490 -0.2061 -0.0010
   98MOL    C7723551   1.165   5.614   2.720 -0.2143  0.1498 -0.1764
   98MOL    C7823552   1.105   5.747   2.774  0.7923 -0.0539 -0.2652
   98MOL    O7923553   1.096   5.514   2.693 -0.5415  0.1073 -0.0561
   98MOL    H8023554   1.547   5.568   2.859 -0.2777  0.2893  1.4680
   98MOL    H8123555   1.529   5.399   2.842 -1.1638 -0.7739  0.8219
   98MOL    H8223556   1.326   5.416   2.715 -1.3090  1.4761 -0.9000
   98MOL    H8323557   1.171   5.807   2.836  0.1922 -0.9251  1.2389
   98MOL    H8423558   1.005   5.747   2.816  0.1478  0.1737 -1.7728
   98MOL    H8523559   1.090   5.806   2.683  0.0416 -1.7264 -1.2477
   98MOL    C8623560   1.474   5.512   2.605 -0.0120  0.7042  0.4049
   98MOL    C8723561   1.401   5.503   2.470 -0.6317  0.0630  0.3216
   98MOL    O8823562   1.504   5.510   2.374 -0.6296  0.1049 -0.5549
   98MOL    C8923563   1.521   5.636   2.307  1.0471  0.7521 -0.7879
   98MOL    C9023564   1.634   5.645   2.205 -0.4494  0.5390 -0.3693
   98MOL    O9123565   1.465   5.740   2.341 -0.3928 -0.5816  0.1287
   98MOL    H9223566   1.540   5.599   2.614  1.2304 -0.3108  1.1871
   98MOL    H9323567   1.542   5.428   2.609 -1.6021 -0.6856 -0.9903
   98MOL    H9423568   1.330   5.585   2.465  0.8059  1.3132  0.0887
   98MOL    H9523569   1.696   5.556   2.214 -0.6881  0.5286  1.5046
   98MOL    H9623570   1.705   5.727   2.213  0.5363 -0.2335 -1.1872
   98MOL    H9723571   1.591   5.652   2.106  0.9197 -2.4324 -1.2357
   98MOL    C9823572   1.326   5.370   2.456 -0.3348 -0.1527  0.7651
   98MOL    C9923573   1.242   5.358   2.326  0.7863  0.1349  0.2662
   98MOL   O10023574   1.184   5.232   2.349  0.1376 -0.1096 -0.4783
   98MOL   C10123575   1.197   5.138   2.251 -0.4834 -0.4346 -0.0360
   98MOL   C10223576   1.144   5.009   2.291  0.3208  0.6995  0.2501
   98MOL   O10323577   1.254   5.150   2.142 -0.0885 -0.0568  0.1691
   98MOL   H10423578   1.398   5.289   2.467  2.1125  1.9801  0.9297
   98MOL   H10523579   1.250   5.363   2.534  0.6694 -2.3923  1.5700
   98MOL   H10623580   1.322   5.353   2.253  0.6759 -0.5450  0.1898
   98MOL   H10723581   1.209   4.965   2.367 -0.2219 -2.2055 -0.8862
   98MOL   H10823582   1.144   4.951   2.199  1.8876  0.1727  0.5599
   98MOL   H10923583   1.050   5.032   2.342 -0.6601 -2.1683 -0.1530
   98MOL   C11023584   1.132   5.468   2.301 -0.1134  0.2620 -0.0591
   98MOL   C11123585   1.065   5.459   2.165  0.1122  0.0075 -0.1234
   98MOL   O11223586   0.991   5.578   2.161  0.4417 -0.3643  0.3476
   98MOL   C11323587   0.864   5.576   2.123  0.2503 -0.5984 -0.4772
   98MOL   C11423588   0.809   5.718   2.121 -0.0990  0.0996 -0.2573
   98MOL   O11523589   0.797   5.477   2.093 -0.3929  0.2317  0.3002
   98MOL   H11623590   1.060   5.479   2.383 -1.0920  0.1898 -0.9007
   98MOL   H11723591   1.190   5.559   2.312  0.8781 -0.6276  2.5589
   98MOL   H11823592   0.995   5.375   2.157 -0.8244  0.6802  0.8972
   98MOL   H11923593   0.700   5.722   2.109 -0.2118 -0.2581  0.5995
   98MOL   H12023594   0.855   5.774   2.040  2.6933 -0.8420  0.6230
   98MOL   H12123595   0.834   5.769   2.214 -1.4448  1.0356 -0.4043
   98MOL   C12223596   1.163   5.464   2.045 -0.0786 -0.1364 -0.7259
   98MOL   C12323597   1.082   5.434   1.918 -1.1145  0.3190  0.2323
   98MOL   O12423598   1.153   5.499   1.814 -0.1419 -0.3420  0.9990
   98MOL   C12523599   1.123   5.623   1.783 -0.4094  0.6133 -0.2960
   98MOL   C12623600   1.201   5.686   1.667 -1.1475 -0.2632  0.4765
   98MOL   O12723601   1.020   5.682   1.815 -0.0540  0.1464 -0.1013
   98MOL   H12823602   1.200   5.567   2.048 -0.6857  0.0587  0.3469
   98MOL   H12923603   1.248   5.395   2.048  0.7273  0.8343 -0.6938
   98MOL   H13023604   0.983   5.479   1.923 -1.1691  0.0818  1.4654
   98MOL   H13123605   1.162   5.780   1.631 -0.4353 -0.9112 -2.0737
   98MOL   H13223606   1.215   5.615   1.585  0.2196 -0.9813  1.3068
   98MOL   H13323607   1.306   5.697   1.694 -1.3480  1.6733  0.4976
   98MOL   C13423608   1.061   5.286   1.889  0.2692  0.1574  0.2382
   98MOL   C13523609   0.940   5.255   1.801 -0.3041 -0.0362  0.3229
   98MOL   O13623610   0.961   5.308   1.669 -0.0891  0.1506 -1.4011
   98MOL   C13723611   0.864   5.371   1.600 -0.2094  1.0032  0.1891
   98MOL   C13823612   0.907   5.378   1.456 -0.4048 -0.2079 -0.5105
   98MOL   O13923613   0.748   5.388   1.632  0.4193 -0.3129  0.3168
   98MOL   H14023614   1.151   5.238   1.850 -1.4716 -2.2207 -0.9779
   98MOL   H14123615   1.032   5.238   1.982  3.0908  0.6286  1.3946
   98MOL   H14223616   0.849   5.295   1.846 -0.3345 -0.0860  0.3064
   98MOL   H14323617   0.993   5.438   1.430 -0.1198 -1.2084 -1.9637
   98MOL   H14423618   0.831   5.426   1.394  1.5495  0.4437 -2.4661
   98MOL   H14523619   0.913   5.280   1.408 -0.8325 -0.1978 -0.5937
   98MOL   C14623620   0.919   5.101   1.781  0.1371 -0.2521  0.2666
   98MOL   C14723621   0.887   5.013   1.901 -0.0929  0.2116 -0.2385
   98MOL   O14823622   0.773   5.068   1.959 -0.6155  0.4367 -0.0052
   98MOL   C14923623   0.770   5.102   2.089 -0.1572  0.5804 -0.1349
   98MOL   C15023624   0.633   5.134   2.140  0.4570 -0.6173  0.0634
   98MOL   O15123625   0.865   5.113   2.170 -0.4799  0.1369 -0.2296
   98MOL   H15223626   0.844   5.079   1.705  1.6698  0.7387 -1.5798
   98MOL   H15323627   1.008   5.064   1.729 -0.3710 -0.2872 -0.5906
   98MOL   H15423628   0.981   5.017   1.958  0.3477 -0.4781 -0.9062
   98MOL   H15523629   0.554   5.099   2.075  1.2154 -1.9984 -0.1294
   98MOL   H15623630   0.613   5.240   2.155 -0.0774 -0.9098  1.5391
   98MOL   H15723631   0.610   5.088   2.237 -1.1321 -0.4204 -0.2151
   98MOL   C15823632   0.865   4.865   1.856 -0.1915 -0.3313 -0.4509
   98MOL   C15923633   0.853   4.749   1.954 -0.3584 -0.5123  0.2322
   98MOL   O16023634   0.819   4.636   1.880  0.1933 -0.0204  0.0617
   98MOL   C16123635   0.719   4.554   1.919 -0.2881 -1.1995 -0.0370
   98MOL   C16223636   0.674   4.459   1.808 -0.3472  0.2536 -0.2956
   98MOL   O16323637   0.658   4.553   2.025 -0.4596  0.3414  0.4333
   98MOL   H16423638   0.773   4.865   1.797  1.5140 -1.6456 -3.2009
   98MOL   H16523639   0.941   4.834   1.785 -0.2444 -0.1267 -0.5983
   98MOL   H16623640   0.770   4.778   2.019 -0.9533 -2.5877  0.4181
   98MOL   H16723641   0.594   4.394   1.845  0.7173 -0.0985  1.4233
   98MOL   H16823642   0.755   4.398   1.768 -1.1104 -1.9257  1.3999
   98MOL   H16923643   0.626   4.525   1.736  0.0573  2.3492  1.3176
   98MOL   C17023644   0.974   4.723   2.047 -0.3112 -0.5069 -0.6590
   98MOL   C17123645   1.103   4.698   1.970 -0.4213 -0.1977 -0.8524
   98MOL   O17223646   1.177   4.820   1.972  0.6683  0.2584  0.1442
   98MOL   C17323647   1.264   4.849   1.870 -0.1424 -0.0038 -0.2959
   98MOL   C17423648   1.296   4.993   1.861  0.8253  0.0809 -0.3516
   98MOL   O17523649   1.302   4.772   1.779 -0.5668  0.3956  0.1859
   98MOL   H17623650   0.982   4.798   2.126  0.7781  0.6188 -1.7984
   98MOL   H17723651   0.948   4.633   2.101 -1.5008 -0.4193 -1.0652
   98MOL   H17823652   1.068   4.681   1.868 -1.6439 -1.1488 -0.2778
   98MOL   H17923653   1.204   5.041   1.892  0.2649  0.3322 -2.3278
   98MOL   H18023654   1.306   5.012   1.754  1.2481 -0.6061 -0.4368
   98MOL   H18123655   1.384   5.025   1.917 -0.0665 -0.1779  1.2054
   98MOL   C18223656   1.187   4.578   2.003  0.0380 -0.3260 -0.1410
   98MOL   C18323657   1.262   4.582   2.135  0.1276 -0.0199  0.1339
   98MOL   O18423658   1.157   4.583   2.238 -0.2263  0.6197 -0.3789
   98MOL   C18523659   1.183   4.670   2.339  0.1081  0.0533  0.2783
   98MOL   C18623660   1.076   4.667   2.454  0.2065  0.2376  0.4252
   98MOL   O18723661   1.285   4.730   2.359  0.0966  0.6043 -0.1774
   98MOL   H18823662   1.113   4.498   2.009 -0.9448  0.5800 -0.0163
   98MOL   H18923663   1.243   4.556   1.912  0.3935  0.8197 -0.2070
   98MOL   H19023664   1.324   4.671   2.141 -0.4693  0.3306  1.2444
   98MOL   H19123665   1.082   4.584   2.524  1.5891  1.5429  1.8689
   98MOL   H19223666   0.983   4.654   2.398  0.3935 -0.5315  0.2840
   98MOL   H19323667   1.075   4.760   2.510 -2.6997  0.5468 -0.0558
   98MOL   C19423668   1.350   4.461   2.154  0.1160  0.0557 -0.8572
   98MOL   C19523669   1.484   4.470   2.083  0.8450  1.2196  0.6489
   98MOL   O19623670   1.460   4.479   1.942  0.2797 -0.0675 -0.1823
   98MOL   C19723671   1.502   4.383   1.849  0.3200  0.5362  0.1656
   98MOL   C19823672   1.438   4.392   1.711  0.5786  0.6999  0.1224
   98MOL   O19923673   1.579   4.289   1.877  0.3297  0.6356  0.7523
   98MOL   H20023674   1.367   4.444   2.261  0.2200  2.2216 -0.4933
   98MOL   H20123675   1.293   4.373   2.126  0.3502 -0.4550  0.2438
   98MOL   H20223676   1.521   4.368   2.094 -2.2655  0.1758  2.2459
   98MOL   H20323677   1.441   4.495   1.676 -0.3438  1.2550  1.6344
   98MOL   H20423678   1.336   4.358   1.726  0.9094 -0.0787  0.6412
   98MOL   H20523679   1.493   4.320   1.649 -3.6869 -0.8251 -2.0666
   98MOL   C20623680   1.597   4.562   2.126 -0.7769  0.1102 -0.0031
   98MOL   C20723681   1.661   4.513   2.256  0.1663 -0.5906 -0.6600
   98MOL   O20823682   1.798   4.487   2.239 -0.2426 -0.2622  0.4423
   98MOL   C20923683   1.830   4.362   2.195 -0.0299 -0.0650  0.1283
   98MOL   C21023684   1.978   4.327   2.208  0.0416  0.3206  0.1071
   98MOL   O21123685   1.754   4.286   2.131 -0.5062 -0.6769  0.9446
   98MOL   H21223686   1.668   4.568   2.044 -1.6161  0.9309 -0.6768
   98MOL   H21323687   1.566   4.666   2.117  1.9395  0.8468 -1.3393
   98MOL   H21423688   1.614   4.426   2.301  1.6834 -0.3756  1.4075
   98MOL   H21523689   1.983   4.229   2.255  1.9081  0.7851  0.9182
   98MOL   H21623690   2.045   4.397   2.258 -0.5597  0.7523  0.3244
   98MOL   H21723691   2.030   4.315   2.113 -2.1868 -1.0383 -0.9775
   98MOL   C21823692   1.649   4.624   2.365 -0.1583 -0.1774  0.1478
   98MOL   C21923693   1.701   4.581   2.502  0.0030  0.4345 -0.3757
   98MOL   O22023694   1.728   4.702   2.574 -0.3995  0.1552  0.6312
   98MOL   C22123695   1.838   4.711   2.647  0.1847  0.2403 -0.1156
   98MOL   C22223696   1.861   4.854   2.698 -0.5893  0.3565  0.5596
   98MOL   O22323697   1.913   4.623   2.679  0.4849  0.6592  1.0030
   98MOL   H22423698   1.702   4.713   2.329  0.1278  0.0287  1.0658
   98MOL   H22523699   1.543   4.650   2.366 -0.8765 -2.8919 -0.6345
   98MOL   H22623700   1.788   4.516   2.497  0.1564  0.5480  0.7573
   98MOL   H22723701   1.799   4.875   2.786 -0.8182 -1.3315  0.8129
   98MOL   H22823702   1.824   4.930   2.629 -1.8675  0.1903  1.0431
   98MOL   H22923703   1.967   4.865   2.718 -0.3364 -0.5111 -0.2578
   98MOL   C23023704   1.595   4.495   2.584 -0.4567 -0.3885 -0.3346
   98MOL   C23123705   1.464   4.562   2.622 -0.5322  0.9163 -0.6338
   98MOL   O23223706   1.382   4.487   2.714 -0.0676 -0.4262  0.0165
   98MOL   C23323707   1.275   4.545   2.759  0.6011  0.6852  0.9153
   98MOL   C23423708   1.195   4.454   2.855 -1.0588 -0.1367 -0.3489
   98MOL   O23523709   1.242   4.660   2.740 -0.3039  0.2311 -0.0659
   98MOL   H23623710   1.582   4.401   2.530  2.1179 -1.1953  0.3867
   98MOL   H23723711   1.645   4.465   2.676  1.7583  0.2892 -1.2947
   98MOL   H23823712   1.410   4.590   2.532  1.9255  1.1301 -2.0764
   98MOL   H23923713   1.231   4.352   2.855  1.7722  0.8248  0.2384
   98MOL   H24023714   1.088   4.465   2.835 -1.4457  0.5224  1.8847
   98MOL   H24123715   1.210   4.494   2.955  0.5199  1.1506 -1.0716
   98MOL   H24223716   1.495   4.660   2.659  0.0033  0.0909  1.1291
   99MOL     C123717   5.184   0.107   5.018  0.4087  0.0128  0.7635
   99MOL     C223718   5.313   0.063   4.944  0.2962  0.0792  0.0406
   99MOL     O323719   5.323   7.943   4.944  0.6309 -0.1148 -0.6606
   99MOL     C423720   5.366   7.875   5.046 -0.3146 -0.6915 -0.7929
   99MOL     C523721   5.374   7.730   5.012  1.0649  0.6060  0.6974
   99MOL     O623722   5.392   7.924   5.160  0.6263  0.3279  0.0879
   99MOL     H723723   5.100   0.061   4.965  1.8508  1.2760 -2.6967
   99MOL     H823724   5.163   0.214   5.025  1.6173  0.4803 -2.1985
   99MOL     H923725   5.392   0.107   5.004 -0.6144  3.4095 -1.0646
   99MOL    H1023726   5.365   7.717   4.905  1.5578  0.1600  0.7082
   99MOL    H1123727   5.296   7.675   5.064 -0.5410 -0.1113 -2.4122
   99MOL    H1223728   5.471   7.682   5.029 -1.2225 -4.4048  0.3902
   99MOL    H1323729   5.187   0.065   5.119  1.8643 -3.9831 -0.8587
   99MOL    C1423730   5.332   0.118   4.804  0.5282  0.8476 -0.1578
   99MOL    C1523731   5.249   0.042   4.694  0.5980 -0.6963  0.0655
   99MOL    O1623732   5.112   0.086   4.699 -0.1431  0.4497  0.6625
   99MOL    C1723733   5.025   8.016   4.746  0.1199 -0.6153 -0.1215
   99MOL    C1823734   4.885   0.050   4.761  0.5734  0.0068  0.0772
   99MOL    O1923735   5.051   7.897   4.759  0.6271  0.1699  0.3642
   99MOL    H2023736   5.301   0.222   4.804 -0.6310  0.5094  1.4541
   99MOL    H2123737   5.439   0.108   4.782  0.1670  0.7375 -1.9993
   99MOL    H2223738   5.262   7.956   4.712 -0.0081 -1.1223 -1.8783
   99MOL    H2323739   4.817   7.987   4.777 -1.7980  2.0372  1.0408
   99MOL    H2423740   4.861   0.114   4.676  1.6743  1.2752  0.6983
   99MOL    H2523741   4.892   0.109   4.853  0.2910 -0.5450  0.4536
   99MOL    C2623742   5.305   0.079   4.560  0.2077  0.5916 -0.1524
   99MOL    C2723743   5.419   8.011   4.507 -0.0452  0.1799  0.2074
   99MOL    O2823744   5.385   7.872   4.519 -0.2497 -0.2436  0.0372
   99MOL    C2923745   5.447   7.797   4.607  0.1227  0.4217  0.1626
   99MOL    C3023746   5.430   7.647   4.585  0.1510 -0.2860 -0.0404
   99MOL    O3123747   5.524   7.835   4.701 -0.2164  0.1001  0.1883
   99MOL    H3223748   5.228   0.099   4.486  1.5061 -0.9329 -1.9839
   99MOL    H3323749   5.348   0.180   4.561 -0.2986  0.8122 -0.7203
   99MOL    H3423750   5.509   0.015   4.564  0.1504  1.1526 -0.5383
   99MOL    H3523751   5.435   7.613   4.481  1.5542  0.1770 -0.1300
   99MOL    H3623752   5.336   7.607   4.624  1.3409 -1.9474  1.1996
   99MOL    H3723753   5.510   7.595   4.638  1.0453 -0.0069 -1.1106
   99MOL    C3823754   5.445   0.017   4.361 -0.0821 -0.2784 -0.1243
   99MOL    C3923755   5.560   7.956   4.299 -0.3193  0.0557 -0.3081
   99MOL    O4023756   5.557   7.951   4.159  0.2539  0.7575 -0.3971
   99MOL    C4123757   5.496   7.852   4.088 -0.5032 -0.1660  0.1461
   99MOL    C4223758   5.540   7.846   3.945 -0.1802 -0.1545 -0.4829
   99MOL    O4323759   5.424   7.769   4.144 -0.1522 -0.3628  0.2280
   99MOL    H4423760   5.353   8.014   4.309 -0.3241  1.2569 -0.4162
   99MOL    H4523761   5.466   0.121   4.337  2.3083 -0.2384  1.9264
   99MOL    H4623762   5.542   7.854   4.333 -2.0410  0.5748  0.3549
   99MOL    H4723763   5.597   7.933   3.912 -2.4755  1.4140 -0.4077
   99MOL    H4823764   5.450   7.840   3.884  0.1052  0.5130 -0.9773
   99MOL    H4923765   5.600   7.758   3.921  0.1650 -1.0428  3.4152
   99MOL    C5023766   5.701   8.008   4.342 -0.2394  0.2415  0.5273
   99MOL    C5123767   5.816   7.942   4.254 -0.2171 -0.9593 -0.1786
   99MOL    O5223768   5.932   8.021   4.275 -0.2801 -0.5467  0.1263
   99MOL    C5323769   5.958   0.099   4.188 -0.4888 -0.3649 -0.2430
   99MOL    C5423770   6.058   0.200   4.239  0.9355 -1.1311 -0.0178
   99MOL    O5523771   5.901   0.120   4.079  0.9570 -0.3423  0.3779
   99MOL    H5623772   5.702   0.095   4.331 -0.1177  0.0697 -1.2560
   99MOL    H5723773   5.741   7.988   4.441 -0.0855 -0.7759  0.2692
   99MOL    H5823774   5.792   7.942   4.147  2.0280  5.0619 -0.8743
   99MOL    H5923775   6.070   0.287   4.175 -0.2868  0.0211  1.2955
   99MOL    H6023776   6.159   0.159   4.250  0.8762 -1.7077 -1.4688
   99MOL    H6123777   6.038   0.234   4.340 -4.5154  0.1368 -1.3719
   99MOL    C6223778   5.856   7.797   4.299 -0.2599 -0.7019  0.2778
   99MOL    C6323779   5.950   7.721   4.214 -0.3035  0.4737 -0.3139
   99MOL    O6423780   6.007   7.608   4.289 -0.4708 -0.2929 -0.0015
   99MOL    C6523781   6.137   7.603   4.314  0.4990 -0.3320  0.3490
   99MOL    C6623782   6.173   7.476   4.388  0.0591  0.0234  0.3063
   99MOL    O6723783   6.221   7.686   4.278  0.3735  0.1352  0.0721
   99MOL    H6823784   5.889   7.798   4.403  2.0472  3.0740 -0.4130
   99MOL    H6923785   5.765   7.738   4.315 -0.2872 -0.5188  0.8227
   99MOL    H7023786   6.035   7.784   4.188 -0.7067  0.8254 -0.8001
   99MOL    H7123787   6.084   7.421   4.418 -0.1937  0.5035  0.4373
   99MOL    H7223788   6.229   7.506   4.476  1.1589 -0.0288 -0.3601
   99MOL    H7323789   6.245   7.404   4.348  1.1096  1.6127 -0.7516
   99MOL    C7423790   5.871   7.659   4.100  0.3795  0.0222 -0.2928
   99MOL    C7523791   5.958   7.585   3.997 -0.6696  0.6045  0.3557
   99MOL    O7623792   5.881   7.482   3.940 -0.0508 -0.3319 -0.2646
   99MOL    C7723793   5.864   7.365   4.010  0.2759  0.1078  0.3683
   99MOL    C7823794   5.790   7.269   3.923 -0.6937 -0.2990  0.4871
   99MOL    O7923795   5.914   7.336   4.116 -0.2670 -0.0035 -0.2006
   99MOL    H8023796   5.786   7.605   4.142 -0.9679  3.0725  1.0262
   99MOL    H8123797   5.813   7.733   4.045  0.9326  0.9510  0.3475
   99MOL    H8223798   6.041   7.536   4.048 -0.6030  0.7751  0.4094
   99MOL    H8323799   5.744   7.193   3.985 -0.1468 -0.4522  0.7147
   99MOL    H8423800   5.852   7.222   3.846 -0.1185  1.0841  0.0930
   99MOL    H8523801   5.713   7.316   3.863  0.1592 -0.4168 -0.7377
   99MOL    C8623802   6.016   7.670   3.883 -1.1254 -0.3566 -0.0321
   99MOL    C8723803   6.106   7.588   3.793 -0.0036 -0.4214 -0.3874
   99MOL    O8823804   6.040   7.565   3.673 -0.4416 -0.2571 -1.1152
   99MOL    C8923805   6.020   7.435   3.638  0.0742 -0.5829  0.0861
   99MOL    C9023806   5.939   7.427   3.510  0.0134 -0.1076  0.4142
   99MOL    O9123807   6.047   7.335   3.705  0.0756 -0.1990  0.2425
   99MOL    H9223808   5.937   7.722   3.829 -0.7543  1.0881  0.8028
   99MOL    H9323809   6.077   7.752   3.919  3.2975 -2.9930 -1.1582
   99MOL    H9423810   6.142   7.501   3.848  1.7252  1.0484  0.8623
   99MOL    H9523811   5.882   7.334   3.507 -2.3466  1.3804 -1.8490
   99MOL    H9623812   5.998   7.430   3.419 -0.8459 -1.5682 -0.1981
   99MOL    H9723813   5.866   7.507   3.520  0.6775  0.9309 -2.7394
   99MOL    C9823814   6.230   7.672   3.754 -0.2643 -0.5930  0.5207
   99MOL    C9923815   6.322   7.602   3.646 -0.3617 -0.1967 -0.3902
   99MOL   O10023816   6.327   7.705   3.543  0.2769  0.1595  0.0080
   99MOL   C10123817   6.267   7.690   3.424  0.6064 -0.3274  0.2290
   99MOL   C10223818   6.261   7.815   3.342 -0.0557 -0.4799  0.1551
   99MOL   O10323819   6.209   7.589   3.392  1.2325 -0.6167 -0.2120
   99MOL   H10423820   6.204   7.775   3.730 -1.0157 -0.8867  0.0795
   99MOL   H10523821   6.296   7.681   3.840  0.4103 -0.8034  0.0278
   99MOL   H10623822   6.277   7.510   3.609 -0.1757 -1.2192  1.8410
   99MOL   H10723823   6.274   7.909   3.395  0.6419 -0.3245 -0.2939
   99MOL   H10823824   6.170   7.823   3.283 -0.4219 -0.5277  0.7021
   99MOL   H10923825   6.333   7.809   3.261 -0.9361  1.9268 -0.8374
   99MOL   C11023826   6.469   7.572   3.692 -0.2091  0.2739  0.2841
   99MOL   C11123827   6.551   7.469   3.614  0.0099  0.1583  0.6008
   99MOL   O11223828   6.458   7.361   3.592 -0.4040  0.0564 -0.1783
   99MOL   C11323829   6.464   7.254   3.672 -0.0371  0.0018 -0.4990
   99MOL   C11423830   6.342   7.166   3.641 -0.2924 -0.0691  0.5328
   99MOL   O11523831   6.532   7.237   3.771 -0.3995 -0.3528  0.0360
   99MOL   H11623832   6.529   7.661   3.706  0.2735  0.1809 -1.1761
   99MOL   H11723833   6.464   7.533   3.794 -0.2551 -0.8532 -0.1373
   99MOL   H11823834   6.634   7.439   3.679 -0.5642  1.0465  1.7617
   99MOL   H11923835   6.385   7.079   3.590  0.6616  0.1751  0.9113
   99MOL   H12023836   6.263   7.207   3.579 -1.1304 -0.5500  1.2853
   99MOL   H12123837   6.312   7.129   3.739  1.2314  1.9822  1.8126
   99MOL   C12223838   6.596   7.512   3.474 -0.3356  0.4033  1.1850
   99MOL   C12323839   6.733   7.595   3.471  0.1766 -0.3828 -0.5748
   99MOL   O12423840   6.825   7.514   3.535 -0.0826 -0.5243  0.3087
   99MOL   C12523841   6.860   7.537   3.660 -0.5547  0.1850 -0.1140
   99MOL   C12623842   6.978   7.448   3.706 -0.4831 -0.2844 -0.2092
   99MOL   O12723843   6.817   7.631   3.729 -0.6454 -0.7148  0.2344
   99MOL   H12823844   6.599   7.428   3.405  0.4560  0.7137  0.8360
   99MOL   H12923845   6.516   7.578   3.440 -0.4630 -0.2016  0.3073
   99MOL   H13023846   6.718   7.692   3.519  1.6701 -0.3985 -0.0475
   99MOL   H13123847   7.066   7.502   3.741  1.3616 -3.9540  1.0986
   99MOL   H13223848   7.006   7.362   3.646 -1.1325  0.7834 -2.0806
   99MOL   H13323849   6.947   7.403   3.800  0.9454 -1.1776 -0.1547
   99MOL   C13423850   6.779   7.613   3.323 -0.1927  0.3361 -0.8236
   99MOL   C13523851   6.702   7.720   3.247 -0.1868  0.1444  0.1753
   99MOL   O13623852   6.743   7.856   3.290 -0.3932 -0.2297  0.6057
   99MOL   C13723853   6.655   7.948   3.295  0.2009 -0.7395  0.8262
   99MOL   C13823854   6.702   0.063   3.339 -0.4477  0.9811  0.3643
   99MOL   O13923855   6.534   7.932   3.276 -0.8555  0.7534 -0.5127
   99MOL   H14023856   6.885   7.639   3.320  0.0876 -0.5453  0.7474
   99MOL   H14123857   6.774   7.516   3.273  1.6962  0.6243 -1.6200
   99MOL   H14223858   6.593   7.718   3.256  0.0015  0.2276  3.2063
   99MOL   H14323859   6.739   0.061   3.441 -0.8814  2.2061  0.5518
   99MOL   H14423860   6.627   0.139   3.319 -0.3273  1.0518  0.1842
   99MOL   H14523861   6.791   0.088   3.281 -0.3618  0.7023  0.3727
   99MOL   C14623862   6.751   7.708   3.097 -0.3953  0.5746  0.7368
   99MOL   C14723863   6.678   7.808   2.998 -0.6560 -0.0125 -0.5742
   99MOL   O14823864   6.765   7.822   2.886 -0.1408 -0.4730  0.0700
   99MOL   C14923865   6.860   7.924   2.894 -0.4974 -0.1660  0.6299
   99MOL   C15023866   6.949   7.911   2.772  0.7397 -0.6440 -0.3723
   99MOL   O15123867   6.874   8.012   2.982 -0.4925  0.7423  0.2238
   99MOL   H15223868   6.857   7.732   3.096 -0.1248 -0.6447 -0.5905
   99MOL   H15323869   6.767   7.603   3.075  0.5699  1.2562 -1.9439
   99MOL   H15423870   6.665   7.907   3.041  3.4604  0.1993  0.3845
   99MOL   H15523871   7.007   8.002   2.759  0.8753 -0.5793  0.6297
   99MOL   H15623872   6.883   7.896   2.687 -1.1243  1.8451  0.5769
   99MOL   H15723873   7.031   7.839   2.766  1.1453 -0.0998 -1.3907
   99MOL   C15823874   6.538   7.756   2.960  0.3004 -0.7935  0.1107
   99MOL   C15923875   6.461   7.861   2.891  0.5204  0.0957 -0.9830
   99MOL   O16023876   6.342   7.783   2.859  0.0064  0.2292  0.1135
   99MOL   C16123877   6.297   7.773   2.727 -0.6441  0.6665  0.5541
   99MOL   C16223878   6.181   7.676   2.713 -0.2264  0.3984 -0.1433
   99MOL   O16323879   6.350   7.831   2.628  0.2433 -1.0760 -0.8864
   99MOL   H16423880   6.560   7.677   2.888 -1.3630  0.5259 -1.9055
   99MOL   H16523881   6.484   7.713   3.044 -0.2814  0.5776  0.4562
   99MOL   H16623882   6.517   7.904   2.807  0.8520  1.4315 -0.0892
   99MOL   H16723883   6.208   7.604   2.636 -0.4608  0.9157 -0.7199
   99MOL   H16823884   6.084   7.718   2.685  0.5531  1.3389 -1.5019
   99MOL   H16923885   6.166   7.620   2.805 -0.0444  0.2922 -0.1800
   99MOL   C17023886   6.401   7.974   2.970 -0.7663  0.1284  0.0228
   99MOL   C17123887   6.313   0.056   2.892  0.0461  0.3499  0.7261
   99MOL   O17223888   6.258   0.141   2.992 -0.0068 -0.2742  0.0271
   99MOL   C17323889   6.131   0.192   2.988  0.5703 -0.1069 -0.5800
   99MOL   C17423890   6.107   0.300   3.090  0.0595  0.1307  0.6487
   99MOL   O17523891   6.051   0.177   2.894 -0.5007  0.4819 -0.1471
   99MOL   H17623892   6.331   7.921   3.034  1.0378  0.2345  2.1429
   99MOL   H17723893   6.476   0.007   3.029 -1.4727  1.6894 -0.4897
   99MOL   H17823894   6.233   0.001   2.842 -1.4152  2.7461  0.3745
   99MOL   H17923895   6.122   0.257   3.189  0.2098  0.7332  0.8942
   99MOL   H18023896   6.010   0.349   3.094 -0.1011 -0.1380  0.0094
   99MOL   H18123897   6.189   0.370   3.073  1.6265 -2.0580 -1.1915
   99MOL   C18223898   6.380   0.152   2.798  0.3556 -0.5350 -0.4437
   99MOL   C18323899   6.513   0.214   2.850  0.1375 -0.1116  0.3053
   99MOL   O18423900   6.561   0.296   2.743  0.0727 -0.0085  0.0361
   99MOL   C18523901   6.672   0.266   2.677 -0.1019  0.2542  0.1176
   99MOL   C18623902   6.699   0.360   2.561  0.0493 -0.1009 -0.6948
   99MOL   O18723903   6.745   0.167   2.708  0.1060 -0.0306  0.7453
   99MOL   H18823904   6.392   0.094   2.707  1.0368 -1.8971  0.5083
   99MOL   H18923905   6.309   0.232   2.774  1.4487  1.1465  1.7994
   99MOL   H19023906   6.578   0.131   2.877  1.8721  1.0496 -0.1596
   99MOL   H19123907   6.707   0.456   2.612 -2.8021  0.0806 -0.5529
   99MOL   H19223908   6.620   0.370   2.487 -0.1227  1.6936 -0.2876
   99MOL   H19323909   6.793   0.334   2.511  1.0548  2.8422 -0.4542
   99MOL   C19423910   6.495   0.306   2.972  0.2504 -0.2363 -0.4853
   99MOL   C19523911   6.616   0.385   3.026 -0.7405  0.2097  0.9078
   99MOL   O19623912   6.586   0.469   3.141  0.0531 -0.6756  0.0235
   99MOL   C19723913   6.537   0.597   3.120  0.1055 -0.0157  0.0322
   99MOL   C19823914   6.521   0.687   3.242  0.2629 -0.3132 -0.1853
   99MOL   O19923915   6.508   0.647   3.010  0.5534 -0.1957 -0.3018
   99MOL   H20023916   6.413   0.371   2.944 -1.2028 -0.9524  2.0413
   99MOL   H20123917   6.458   0.250   3.058  0.3897 -2.4238 -1.7904
   99MOL   H20223918   6.645   0.446   2.941  2.2767 -2.7231 -0.2426
   99MOL   H20323919   6.463   0.640   3.321 -1.0443 -0.7412 -1.3886
   99MOL   H20423920   6.468   0.777   3.211 -0.5507 -0.0959  1.7875
   99MOL   H20523921   6.618   0.719   3.281 -0.7653  0.0306  2.1996
   99MOL   C20623922   6.737   0.290   3.057 -0.6977 -0.0480 -0.5491
   99MOL   C20723923   6.866   0.360   3.103 -0.0213 -0.9495 -0.4594
   99MOL   O20823924   6.889   0.330   3.242 -0.1232  0.6402 -0.6945
   99MOL   C20923925   6.875   0.422   3.339  0.8992 -0.1400 -0.1374
   99MOL   C21023926   6.886   0.355   3.471 -0.2476  0.3446  0.6462
   99MOL   O21123927   6.856   0.542   3.331 -0.4865 -0.2450  0.4979
   99MOL   H21223928   6.712   0.207   3.123  0.0430  0.4118  0.3377
   99MOL   H21323929   6.767   0.243   2.964 -1.3894 -0.8088 -0.3927
   99MOL   H21423930   6.841   0.466   3.103 -0.6336 -1.0905 -0.8266
   99MOL   H21523931   6.861   0.420   3.556  1.2792  2.2401 -0.3303
   99MOL   H21623932   6.981   0.303   3.485 -1.7236 -3.4918 -2.7313
   99MOL   H21723933   6.817   0.271   3.465 -0.7328  0.8660 -1.3997
   99MOL   C21823934   6.990   0.330   3.024 -0.6836  0.5109 -0.2625
   99MOL   C21923935   7.001   0.398   2.890 -0.2031  0.2104 -0.1140
   99MOL   O22023936   7.006   0.534   2.899  0.2825 -0.1655  0.2551
   99MOL   C22123937   6.901   0.605   2.842 -0.2530 -0.7143 -0.2700
   99MOL   C22223938   6.907   0.753   2.874  0.0028 -0.2065 -0.1115
   99MOL   O22323939   6.798   0.561   2.782 -0.5236 -0.0490 -0.2041
   99MOL   H22423940   7.085   0.349   3.073  0.0106 -0.7240 -1.1126
   99MOL   H22523941   6.993   0.222   3.014  3.1513  0.8227 -3.9745
   99MOL   H22623942   6.917   0.357   2.835  0.4652 -0.7007 -0.4649
   99MOL   H22723943   6.813   0.788   2.916  0.6454  0.5013  0.7781
   99MOL   H22823944   6.928   0.817   2.788  0.0742 -0.3404 -0.1940
   99MOL   H22923945   6.991   0.762   2.943  0.7400  1.5874 -1.1980
   99MOL   C23023946   7.115   0.350   2.807  0.8455 -0.0074  0.2111
   99MOL   C23123947   7.095   0.360   2.654 -0.2286  0.6889 -0.1919
   99MOL   O23223948   7.119   0.488   2.614  0.1513  0.1725  0.0234
   99MOL   C23323949   7.111   0.517   2.483 -0.1037  0.1874  0.0354
   99MOL   C23423950   7.175   0.647   2.441  0.9576 -0.5403  0.1209
   99MOL   O23523951   7.069   0.439   2.392  0.3045  0.0956 -0.9344
   99MOL   H23623952   7.203   0.403   2.842 -2.0791  3.9993  1.8055
   99MOL   H23723953   7.140   0.246   2.828  1.2459  0.1167  0.3564
   99MOL   H23823954   6.989   0.339   2.639 -0.3344  0.3108  1.0120
   99MOL   H23923955   7.174   0.726   2.516 -1.3440 -1.2344  0.8609
   99MOL   H24023956   7.128   0.702   2.359  1.1769  0.7672  0.8485
   99MOL   H24123957   7.280   0.627   2.421  1.3285  1.6310 -0.2103
   99MOL   H24223958   7.162   0.294   2.599 -0.5012  0.6402 -0.4702
  100MOL     C123959   2.440   1.954   6.913  0.4664 -0.2026  0.4413
  100MOL     C223960   2.419   2.004   6.770 -0.2514 -0.7362  0.4799
  100MOL     O323961   2.396   1.896   6.686  0.4985 -0.0684 -0.6988
  100MOL     C423962   2.423   1.901   6.561 -0.3494 -0.2104 -0.6015
  100MOL     C523963   2.390   1.771   6.489  0.6901  0.2240  0.0623
  100MOL     O623964   2.466   2.002   6.505 -0.2277 -0.1148  0.1273
  100MOL     H723965   2.375   1.875   6.951  0.8206 -0.6363  0.1674
  100MOL     H823966   2.438   2.034   6.986  2.7285 -1.4409  1.9263
  100MOL     H923967   2.508   2.050   6.728 -0.7483  0.4246  0.6814
  100MOL    H1023968   2.296   1.740   6.536  0.7903  1.8266  1.3525
  100MOL    H1123969   2.466   1.695   6.501 -0.6640 -0.8402  2.1722
  100MOL    H1223970   2.359   1.786   6.385 -0.3572 -0.8783  0.2077
  100MOL    H1323971   2.544   1.921   6.915  0.5974  0.2653  1.3746
  100MOL    C1423972   2.300   2.102   6.765 -0.5209  0.9775  0.7232
  100MOL    C1523973   2.160   2.049   6.802 -0.0944 -0.2999  0.5642
  100MOL    O1623974   2.148   2.032   6.942 -0.7077  0.3549 -0.0213
  100MOL    C1723975   2.065   1.949   6.993  0.0744 -0.5814 -0.5142
  100MOL    C1823976   2.077   1.947   7.144  0.2492  0.1908  0.3281
  100MOL    O1923977   1.983   1.883   6.929  0.3441 -0.4501 -0.2101
  100MOL    H2023978   2.323   2.185   6.832 -0.0105  0.0437  1.7236
  100MOL    H2123979   2.288   2.153   6.670 -0.1325 -0.2971 -0.0114
  100MOL    H2223980   2.142   1.952   6.756 -0.7226 -1.0980  2.4531
  100MOL    H2323981   2.008   1.872   7.181  1.3632  0.9043  4.0747
  100MOL    H2423982   2.053   2.047   7.182  2.6898 -0.2683  3.3470
  100MOL    H2523983   2.183   1.931   7.164  0.6573 -1.0260 -2.5889
  100MOL    C2623984   2.049   2.156   6.762  0.4130 -0.4833 -0.0720
  100MOL    C2723985   2.019   2.174   6.608 -0.0652  0.1390  0.1228
  100MOL    O2823986   1.946   2.063   6.561 -0.4579 -0.0603 -0.1844
  100MOL    C2923987   2.009   1.976   6.470 -0.6230 -0.6401 -0.0453
  100MOL    C3023988   1.914   1.868   6.427 -0.5222  0.7273 -0.0994
  100MOL    O3123989   2.126   1.976   6.439 -0.0117  0.1047  0.1409
  100MOL    H3223990   1.952   2.132   6.803 -1.2223  4.4670 -0.6900
  100MOL    H3323991   2.077   2.245   6.819 -0.5873 -1.7626  2.4929
  100MOL    H3423992   2.117   2.167   6.559  0.5019  0.6451  1.1627
  100MOL    H3523993   1.936   1.854   6.321  0.5158  2.7429 -0.1814
  100MOL    H3623994   1.814   1.905   6.447 -0.5784  0.7696 -0.4412
  100MOL    H3723995   1.943   1.771   6.466 -1.4056  1.0867  1.4604
  100MOL    C3823996   1.939   2.291   6.569  0.7312  0.1586 -0.6439
  100MOL    C3923997   2.015   2.426   6.567 -0.1826  0.6210  0.3883
  100MOL    O4023998   2.112   2.427   6.459 -0.6022 -0.6597 -0.2270
  100MOL    C4123999   2.245   2.439   6.494 -0.0939 -0.1965  1.2877
  100MOL    C4224000   2.328   2.466   6.367  0.3329 -0.1092  0.0651
  100MOL    O4324001   2.296   2.451   6.606  0.0308 -0.5969 -0.1344
  100MOL    H4424002   1.897   2.275   6.470 -0.8941 -0.0381  0.0743
  100MOL    H4524003   1.847   2.296   6.627  0.3859  1.9270 -1.3220
  100MOL    H4624004   2.069   2.449   6.659  1.9635  2.5239 -1.3111
  100MOL    H4724005   2.425   2.507   6.395 -0.2539 -0.0703  2.1128
  100MOL    H4824006   2.276   2.542   6.307  1.8261 -1.5305 -3.1110
  100MOL    H4924007   2.340   2.379   6.303  2.3270 -0.0880  0.3996
  100MOL    C5024008   1.925   2.548   6.556 -0.5264  0.3379 -0.4754
  100MOL    C5124009   1.845   2.583   6.683 -0.4486 -0.4109 -0.1948
  100MOL    O5224010   1.939   2.638   6.777  0.1441  0.0277  0.4885
  100MOL    C5324011   1.970   2.576   6.889 -0.1111 -0.0024 -0.3328
  100MOL    C5424012   2.048   2.660   6.993  0.4112 -0.1790 -0.2574
  100MOL    O5524013   1.949   2.458   6.909 -0.3287 -0.0886  0.0086
  100MOL    H5624014   1.977   2.643   6.539 -1.8209  2.0708  4.2709
  100MOL    H5724015   1.866   2.520   6.469  0.0407 -1.0374 -0.4237
  100MOL    H5824016   1.794   2.503   6.736  1.2710 -0.0710  2.0298
  100MOL    H5924017   2.138   2.717   6.972  0.8374 -0.4394  0.8109
  100MOL    H6024018   2.059   2.611   7.090  0.6837 -1.7754 -1.0827
  100MOL    H6124019   1.966   2.729   7.017  0.6431  0.5682 -1.5654
  100MOL    C6224020   1.750   2.706   6.662  0.1064 -0.3679 -0.1147
  100MOL    C6324021   1.624   2.674   6.594  0.9131 -0.5271 -0.1606
  100MOL    O6424022   1.521   2.648   6.694 -0.6790  0.0520 -0.0517
  100MOL    C6524023   1.485   2.532   6.739 -0.5579 -0.0897 -0.1957
  100MOL    C6624024   1.386   2.529   6.853 -0.0747  0.1844 -0.3570
  100MOL    O6724025   1.525   2.424   6.697 -0.1813 -0.1482  0.3048
  100MOL    H6824026   1.724   2.747   6.760 -2.3733  3.4498 -2.2761
  100MOL    H6924027   1.802   2.795   6.627 -0.5513  0.2280  0.4145
  100MOL    H7024028   1.647   2.585   6.536  0.5342 -0.3067 -0.6486
  100MOL    H7124029   1.288   2.551   6.813 -0.0034  1.0131 -0.0837
  100MOL    H7224030   1.400   2.605   6.930 -2.1395  0.6574 -0.4259
  100MOL    H7324031   1.391   2.431   6.900  0.1776  0.8806  1.1123
  100MOL    C7424032   1.576   2.796   6.506 -0.1174  0.2207  0.4038
  100MOL    C7524033   1.637   2.793   6.361 -0.1934 -0.4709 -0.0508
  100MOL    O7624034   1.564   2.698   6.279  0.2774  0.1793  0.4728
  100MOL    C7724035   1.601   2.572   6.246 -0.1175 -0.1450  0.1095
  100MOL    C7824036   1.488   2.489   6.194  0.1109 -0.2671 -0.6593
  100MOL    O7924037   1.711   2.524   6.267 -0.1340  0.0086  0.2155
  100MOL    H8024038   1.468   2.787   6.488  0.0402  2.8226 -2.2347
  100MOL    H8124039   1.587   2.891   6.558 -1.8940  0.6109  0.1045
  100MOL    H8224040   1.741   2.761   6.363 -0.5438 -1.6062  0.4600
  100MOL    H8324041   1.391   2.522   6.231 -0.1835 -1.3101 -0.4949
  100MOL    H8424042   1.501   2.385   6.225 -0.5083 -0.3254 -0.5943
  100MOL    H8524043   1.504   2.483   6.087 -2.0542  1.5561 -1.1268
  100MOL    C8624044   1.626   2.920   6.282  0.2950 -0.2032  0.0307
  100MOL    C8724045   1.704   2.934   6.141  0.2331  0.5590  0.4910
  100MOL    O8824046   1.626   2.887   6.030  0.3091  0.0767  0.0853
  100MOL    C8924047   1.656   2.778   5.953 -0.1610 -0.8425 -0.0003
  100MOL    C9024048   1.562   2.773   5.836  0.8245 -0.1564  0.2152
  100MOL    O9124049   1.748   2.699   5.979  0.0745 -0.3797  0.3552
  100MOL    H9224050   1.520   2.941   6.267  0.4482 -0.5955 -1.6717
  100MOL    H9324051   1.658   2.999   6.351  1.0811 -1.3761  1.0270
  100MOL    H9424052   1.802   2.888   6.128  0.6138  0.9647  1.8579
  100MOL    H9524053   1.517   2.675   5.821  1.6198 -0.8427  2.2494
  100MOL    H9624054   1.607   2.794   5.738  2.0327  1.4615  1.0959
  100MOL    H9724055   1.478   2.841   5.851  1.9864  1.4375 -0.3730
  100MOL    C9824056   1.736   3.082   6.108  0.1726  0.0376  0.5756
  100MOL    C9924057   1.856   3.142   6.181  0.2236  0.3474 -0.2944
  100MOL   O10024058   1.855   3.108   6.321  0.1222  0.1836 -0.0187
  100MOL   C10124059   1.864   3.200   6.410  0.4218 -0.2353  0.5487
  100MOL   C10224060   1.864   3.145   6.553  0.2233  0.1551 -0.0213
  100MOL   O10324061   1.888   3.317   6.383 -0.1762  0.6322  0.1770
  100MOL   H10424062   1.747   3.093   6.000 -0.0785 -0.3420  0.5098
  100MOL   H10524063   1.645   3.122   6.152 -0.7094 -1.3305  0.0254
  100MOL   H10624064   1.839   3.247   6.158 -1.6151 -0.1156 -1.1858
  100MOL   H10724065   1.801   3.200   6.622  2.2569  1.0987  1.1374
  100MOL   H10824066   1.959   3.147   6.607 -0.5144  2.7604  1.2541
  100MOL   H10924067   1.841   3.040   6.570  2.9769 -0.5383 -0.2609
  100MOL   C11024068   1.993   3.119   6.117 -0.3885 -0.4484  0.1118
  100MOL   C11124069   2.017   3.211   6.003  0.3782 -1.0579 -0.5782
  100MOL   O11224070   2.042   3.346   6.047  0.4234  0.2271  0.6630
  100MOL   C11324071   1.958   3.445   6.007  0.7316 -0.4250  0.0203
  100MOL   C11424072   2.011   3.566   6.068  0.1642 -0.2612 -0.9023
  100MOL   O11524073   1.858   3.442   5.942  0.6271 -0.3082 -0.1293
  100MOL   H11624074   2.068   3.134   6.194 -0.3560  0.8140 -0.1559
  100MOL   H11724075   2.006   3.014   6.091  2.3165 -0.3898  1.1173
  100MOL   H11824076   1.942   3.219   5.925 -0.2779  2.0419  0.3164
  100MOL   H11924077   1.962   3.652   6.022  1.5029  1.6088  1.0873
  100MOL   H12024078   2.119   3.570   6.053  0.1327  1.5656 -0.7445
  100MOL   H12124079   1.993   3.569   6.175  1.3264  0.6483 -0.7208
  100MOL   C12224080   2.149   3.185   5.936 -0.2505 -0.1790 -0.2849
  100MOL   C12324081   2.151   3.059   5.844 -0.1284 -0.3595 -0.2349
  100MOL   O12424082   2.064   3.075   5.738 -0.4714 -0.3181  0.3579
  100MOL   C12524083   1.952   3.004   5.737 -0.1388 -0.0541 -0.3072
  100MOL   C12624084   1.879   3.003   5.605  0.1311  0.5543  0.4816
  100MOL   O12724085   1.911   2.930   5.825 -0.5444  0.0978 -0.2669
  100MOL   H12824086   2.178   3.271   5.875  3.5653 -1.6427 -0.6451
  100MOL   H12924087   2.222   3.172   6.016  0.7211  1.1763 -0.9200
  100MOL   H13024088   2.151   2.967   5.903 -0.7567  1.4163  2.5970
  100MOL   H13124089   1.771   2.995   5.608  0.0102  0.7989 -2.1335
  100MOL   H13224090   1.907   2.916   5.544  0.7130  1.1270 -0.0804
  100MOL   H13324091   1.909   3.087   5.542  0.2297  0.5415  0.5116
  100MOL   C13424092   2.296   3.046   5.790  0.2056 -0.4495  0.1227
  100MOL   C13524093   2.341   2.900   5.773 -0.0713 -0.7908  0.3389
  100MOL   O13624094   2.258   2.844   5.667  0.1695 -0.2114  0.3252
  100MOL   C13724095   2.257   2.892   5.540 -0.0331  0.1885  0.0845
  100MOL   C13824096   2.160   2.832   5.439  0.2795 -0.5882 -0.3490
  100MOL   O13924097   2.329   2.989   5.501 -0.0267  0.1793  0.1179
  100MOL   H14024098   2.308   3.109   5.702 -0.3266 -1.4165 -0.6544
  100MOL   H14124099   2.367   3.084   5.862 -1.0800  1.8461  0.2302
  100MOL   H14224100   2.331   2.858   5.873  0.3250  2.0039  1.5986
  100MOL   H14324101   2.117   2.906   5.371  1.2963 -1.3890 -1.9102
  100MOL   H14424102   2.081   2.791   5.502 -1.7240  0.6115 -1.9950
  100MOL   H14524103   2.207   2.748   5.388 -1.7403 -0.3599 -2.6964
  100MOL   C14624104   2.499   2.896   5.745  0.0659  0.8059  0.0410
  100MOL   C14724105   2.565   2.766   5.785 -0.5192 -0.0048  0.0031
  100MOL   O14824106   2.510   2.665   5.702 -0.0821  0.5187  0.4089
  100MOL   C14924107   2.457   2.557   5.759 -0.5836  0.8687  0.6093
  100MOL   C15024108   2.462   2.430   5.674  0.1574  0.3431  0.6315
  100MOL   O15124109   2.413   2.544   5.872  0.4424 -0.1680  0.1194
  100MOL   H15224110   2.523   2.919   5.641  2.5682  1.9099  0.8156
  100MOL   H15324111   2.553   2.968   5.806  2.1223  0.6424 -1.5415
  100MOL   H15424112   2.538   2.748   5.890  0.1403 -1.0238  0.0058
  100MOL   H15524113   2.534   2.436   5.592  0.4180  0.2388  0.8547
  100MOL   H15624114   2.363   2.427   5.628  0.9728  1.6025 -1.2744
  100MOL   H15724115   2.478   2.342   5.736  0.5021 -0.0600 -0.0253
  100MOL   C15824116   2.721   2.776   5.773  0.7129 -0.4668 -0.7370
  100MOL   C15924117   2.801   2.683   5.864 -0.5878  0.2279 -0.1283
  100MOL   O16024118   2.898   2.623   5.790 -0.2818 -0.8788 -0.1883
  100MOL   C16124119   2.885   2.513   5.716  0.1277 -0.5149 -0.5544
  100MOL   C16224120   3.018   2.445   5.669 -0.8433 -0.1519  0.4893
  100MOL   O16324121   2.775   2.459   5.695  0.4896 -0.3696 -0.2261
  100MOL   H16424122   2.738   2.759   5.666  0.6436  0.6538 -0.9295
  100MOL   H16524123   2.767   2.874   5.782  2.1623 -1.3951  2.3090
  100MOL   H16624124   2.731   2.607   5.899 -2.6542  0.8994 -2.5544
  100MOL   H16724125   3.086   2.508   5.611 -2.4408 -0.7024 -2.0559
  100MOL   H16824126   2.999   2.361   5.602  0.8328 -0.3893  0.2976
  100MOL   H16924127   3.070   2.404   5.755 -3.0847 -0.5261  1.6867
  100MOL   C17024128   2.878   2.756   5.980  0.0607  0.5795  0.3084
  100MOL   C17124129   2.806   2.846   6.086 -0.2462  0.6407  0.5592
  100MOL   O17224130   2.712   2.759   6.154  0.2195 -0.1863 -0.0072
  100MOL   C17324131   2.581   2.780   6.139  0.1673  0.0082  0.2916
  100MOL   C17424132   2.494   2.673   6.201  0.2221  0.1864 -0.5701
  100MOL   O17524133   2.529   2.882   6.079  0.1555 -0.2947 -0.0325
  100MOL   H17624134   2.940   2.680   6.028 -0.6391  0.6707  1.3735
  100MOL   H17724135   2.943   2.826   5.928 -0.3001  0.8204  0.1806
  100MOL   H17824136   2.771   2.937   6.036  1.5699  1.0356 -0.0412
  100MOL   H17924137   2.397   2.706   6.165  0.7118  0.3566 -1.7916
  100MOL   H18024138   2.502   2.689   6.308 -0.2683  1.4310 -0.7075
  100MOL   H18124139   2.523   2.575   6.163  0.2649  0.0983 -0.3075
  100MOL   C18224140   2.906   2.910   6.181  0.4104 -0.2947  0.3888
  100MOL   C18324141   2.858   2.974   6.312 -1.0852 -0.1835  0.1343
  100MOL   O18424142   2.967   3.017   6.394  0.0217 -0.1796  0.4605
  100MOL   C18524143   3.028   2.941   6.482 -0.5080  0.4371  0.3361
  100MOL   C18624144   3.144   3.008   6.538  0.4414 -0.1148 -0.5838
  100MOL   O18724145   3.002   2.825   6.507  0.3750 -0.8442 -0.3417
  100MOL   H18824146   2.973   2.827   6.206  1.8546  0.1456 -1.8699
  100MOL   H18924147   2.972   2.979   6.128 -2.6841  2.5445  0.1078
  100MOL   H19024148   2.806   2.898   6.371  0.0754 -1.2013 -0.1114
  100MOL   H19124149   3.235   2.984   6.484  0.0196 -0.5979 -1.0846
  100MOL   H19224150   3.146   2.975   6.642 -2.4019  0.6220 -0.2336
  100MOL   H19324151   3.124   3.115   6.529  1.1591 -0.1325 -2.3931
  100MOL   C19424152   2.756   3.090   6.292  0.4039 -0.5422 -0.2213
  100MOL   C19524153   2.797   3.201   6.196 -0.0400  0.5251  0.1750
  100MOL   O19624154   2.675   3.274   6.162 -0.3115 -0.0805 -0.1831
  100MOL   C19724155   2.604   3.246   6.045 -0.0188 -0.2639 -0.5330
  100MOL   C19824156   2.477   3.331   6.031 -0.2825  0.6094  0.0378
  100MOL   O19924157   2.642   3.171   5.957  0.2712  0.1560  0.3744
  100MOL   H20024158   2.663   3.046   6.257  0.3238 -0.7070  0.1951
  100MOL   H20124159   2.724   3.132   6.388  0.1599 -1.3992  0.0804
  100MOL   H20224160   2.841   3.159   6.106 -0.8345  0.1535 -0.0460
  100MOL   H20324161   2.508   3.435   6.017 -3.4768  1.4255 -1.4445
  100MOL   H20424162   2.421   3.317   6.123  0.0471  0.5917  0.2340
  100MOL   H20524163   2.419   3.296   5.945 -0.2827  2.6469 -0.8216
  100MOL   C20624164   2.894   3.306   6.248 -0.2231  0.7305 -0.3532
  100MOL   C20724165   2.948   3.402   6.140 -0.2858  0.9023 -0.7684
  100MOL   O20824166   2.854   3.500   6.105  0.1080 -0.1216  0.2085
  100MOL   C20924167   2.821   3.530   5.978  0.1100  0.1141  0.0412
  100MOL   C21024168   2.706   3.621   5.971  0.2081 -0.3344 -0.1092
  100MOL   O21124169   2.889   3.512   5.873 -0.4925 -0.2932  0.3848
  100MOL   H21224170   2.849   3.357   6.333  0.2879 -0.4311  0.6298
  100MOL   H21324171   2.975   3.244   6.285 -0.3927 -1.1157 -2.8568
  100MOL   H21424172   2.967   3.348   6.047 -1.4008 -1.3313  0.2479
  100MOL   H21524173   2.749   3.721   5.984 -0.0398 -0.1908 -0.3969
  100MOL   H21624174   2.646   3.592   6.058 -0.1475  0.0372 -0.2243
  100MOL   H21724175   2.648   3.613   5.879  0.7780  2.3716 -0.7641
  100MOL   C21824176   3.077   3.469   6.195 -0.1679  0.6577 -0.3986
  100MOL   C21924177   3.203   3.381   6.180 -0.0980 -0.2372  1.1767
  100MOL   O22024178   3.233   3.354   6.039 -0.0124  0.0442 -0.8546
  100MOL   C22124179   3.194   3.235   5.982  0.3329 -0.1127 -0.1989
  100MOL   C22224180   3.231   3.226   5.835  0.2950  0.7442  0.0070
  100MOL   O22324181   3.145   3.146   6.047  0.1641 -0.1585 -0.1431
  100MOL   H22424182   3.116   3.554   6.138  2.9306 -0.5657 -0.2098
  100MOL   H22524183   3.068   3.524   6.289  0.4367  1.7466 -0.9636
  100MOL   H22624184   3.192   3.283   6.228  1.4154  0.0539  2.1535
  100MOL   H22724185   3.203   3.310   5.772 -3.0854  0.5878  1.1790
  100MOL   H22824186   3.170   3.144   5.797  1.1016 -0.5087  1.3541
  100MOL   H22924187   3.336   3.209   5.812  0.1495  0.9884 -0.8390
  100MOL   C23024188   3.324   3.456   6.238  0.3409  0.4427  0.2675
  100MOL   C23124189   3.447   3.377   6.215  0.0860  0.6874 -0.3018
  100MOL   O23224190   3.557   3.467   6.210 -0.4742 -0.0282  0.0178
  100MOL   C23324191   3.651   3.438   6.301 -0.3289 -0.0915  0.6350
  100MOL   C23424192   3.774   3.529   6.300 -0.3700 -0.1047  0.9394
  100MOL   O23524193   3.637   3.362   6.398 -0.2253  0.3068 -0.0671
  100MOL   H23624194   3.332   3.554   6.193 -0.7900  0.2572 -0.3734
  100MOL   H23724195   3.306   3.473   6.344  1.9230 -2.3973  1.0586
  100MOL   H23824196   3.448   3.327   6.118 -2.5330 -0.5103  0.2482
  100MOL   H23924197   3.780   3.581   6.396  1.5633 -1.1097  1.3689
  100MOL   H24024198   3.760   3.611   6.230  0.3431  0.0212  0.9391
  100MOL   H24124199   3.867   3.477   6.278 -1.3221 -0.8004 -1.7538
  100MOL   H24224200   3.445   3.295   6.287  1.6744 -1.1059 -2.2421
  101MOL     C124201   7.857   1.250   5.375 -0.1449 -0.5400  0.3224
  101MOL     C224202   7.774   1.227   5.238  1.4214 -0.4633 -0.6520
  101MOL     O324203   7.854   1.255   5.123 -0.2446 -0.5285 -0.0296
  101MOL     C424204   7.813   1.347   5.033 -0.9805  0.0142  0.0569
  101MOL     C524205   7.910   1.365   4.919  0.0943  0.4465  0.1797
  101MOL     O624206   7.701   1.403   5.035 -0.2287 -0.2507  0.0578
  101MOL     H724207   7.908   1.346   5.387  1.3124 -1.2403 -0.1024
  101MOL     H824208   7.928   1.168   5.382  1.4889  0.8506  0.3806
  101MOL     H924209   7.689   1.295   5.242  1.7758 -0.0373 -0.3370
  101MOL    H1024210   7.897   1.286   4.845 -0.8023  0.4142  0.3724
  101MOL    H1124211   8.013   1.386   4.950 -0.0335 -0.4923  1.2665
  101MOL    H1224212   7.878   1.457   4.870 -1.4523  0.2979  0.9026
  101MOL    H1324213   7.788   1.230   5.457  0.3674 -1.1399  0.6124
  101MOL    C1424214   7.712   1.086   5.219 -0.0872 -0.3319  0.1271
  101MOL    C1524215   7.629   1.049   5.089 -0.4110  0.1503  0.4138
  101MOL    O1624216   7.724   1.017   4.988 -0.3161 -0.5783  0.2775
  101MOL    C1724217   7.704   1.050   4.862  0.4397 -0.3439 -0.0265
  101MOL    C1824218   7.805   0.992   4.767  0.1636 -0.0634 -1.1479
  101MOL    O1924219   7.613   1.119   4.813  0.5390 -0.6238 -0.4282
  101MOL    H2024220   7.791   1.011   5.220 -0.6949 -0.9825 -0.2486
  101MOL    H2124221   7.658   1.079   5.313 -0.2891 -2.1449 -0.1058
  101MOL    H2224222   7.568   1.133   5.053  0.6427  0.3534 -0.9206
  101MOL    H2324223   7.879   1.072   4.767  1.3277 -1.0755  1.8004
  101MOL    H2424224   7.761   0.970   4.669 -0.7291 -1.6178 -0.4117
  101MOL    H2524225   7.848   0.899   4.803 -0.3510 -0.0552 -0.4960
  101MOL    C2624226   7.536   0.932   5.112 -0.0846  0.1878 -0.4978
  101MOL    C2724227   7.424   0.951   5.219 -0.2120 -0.1312  0.2357
  101MOL    O2824228   7.362   1.075   5.177  0.6076  0.1970  0.3231
  101MOL    C2924229   7.361   1.192   5.252  0.3680  0.2238  0.2760
  101MOL    C3024230   7.315   1.319   5.178  0.1886 -0.2182  0.3361
  101MOL    O3124231   7.406   1.197   5.371 -0.0257 -0.0781  0.1021
  101MOL    H3224232   7.493   0.915   5.013  0.9822 -0.8434 -0.7975
  101MOL    H3324233   7.586   0.840   5.142 -1.8781 -1.0555 -1.1773
  101MOL    H3424234   7.468   0.963   5.318  0.1936  0.2039  0.0183
  101MOL    H3524235   7.357   1.403   5.233 -1.0812 -0.2030  1.3161
  101MOL    H3624236   7.206   1.326   5.181  0.2018 -0.2345  0.9503
  101MOL    H3724237   7.344   1.304   5.074  0.7235  0.8570  0.3235
  101MOL    C3824238   7.318   0.831   5.223 -0.0971  0.6699  0.4267
  101MOL    C3924239   7.256   0.823   5.363 -0.9771  0.5015 -0.0716
  101MOL    O4024240   7.170   0.938   5.366 -0.5589  0.2210  0.5197
  101MOL    C4124241   7.148   0.990   5.487  0.2352  0.3837 -0.8470
  101MOL    C4224242   7.065   1.119   5.480 -0.6877 -0.1562  0.2296
  101MOL    O4324243   7.184   0.934   5.594  0.6241 -0.5222 -0.6284
  101MOL    H4424244   7.241   0.845   5.147  1.2661  0.8026 -0.9672
  101MOL    H4524245   7.371   0.737   5.206 -3.1838 -1.0814  0.2608
  101MOL    H4624246   7.328   0.835   5.444  0.4925 -2.8686 -0.8216
  101MOL    H4724247   7.012   1.113   5.385 -0.1235 -1.3337 -0.0217
  101MOL    H4824248   7.132   1.204   5.489  0.0799 -0.3739 -2.8432
  101MOL    H4924249   6.988   1.100   5.555 -0.3737  2.4700  1.2546
  101MOL    C5024250   7.176   0.689   5.381  0.3612 -0.2095  0.4725
  101MOL    C5124251   7.280   0.578   5.428 -0.1037 -0.1219  0.3528
  101MOL    O5224252   7.256   0.581   5.567  0.3947 -0.1621 -0.0556
  101MOL    C5324253   7.356   0.630   5.647  0.8855  0.5653 -0.4159
  101MOL    C5424254   7.301   0.641   5.791 -0.5014  0.2826  1.3381
  101MOL    O5524255   7.465   0.678   5.615  0.1584 -0.2652  0.4741
  101MOL    H5624256   7.086   0.713   5.437 -0.0127  0.8435 -0.5673
  101MOL    H5724257   7.129   0.655   5.289 -0.5431  0.5591  0.6408
  101MOL    H5824258   7.383   0.604   5.405 -0.4461  0.8592 -0.0910
  101MOL    H5924259   7.195   0.621   5.801 -0.5474  1.4356  3.3695
  101MOL    H6024260   7.338   0.736   5.830 -0.3503  1.1687 -0.9054
  101MOL    H6124261   7.349   0.566   5.854  1.4925  0.5316  0.1736
  101MOL    C6224262   7.252   0.443   5.366 -0.7989  0.5339  1.1078
  101MOL    C6324263   7.352   0.326   5.407 -0.0995 -0.0438 -0.2837
  101MOL    O6424264   7.480   0.364   5.358 -0.3555  0.7132 -0.1131
  101MOL    C6524265   7.570   0.277   5.317 -0.2736 -0.3272 -0.2092
  101MOL    C6624266   7.682   0.343   5.242 -0.0779  0.5231 -0.0084
  101MOL    O6724267   7.573   0.153   5.328  0.5549 -0.1462  0.7782
  101MOL    H6824268   7.149   0.410   5.380 -0.6349 -0.4463  0.1060
  101MOL    H6924269   7.263   0.454   5.258  1.5121  2.4715  1.5058
  101MOL    H7024270   7.323   0.236   5.353  0.1626 -0.9392  1.0387
  101MOL    H7124271   7.709   0.277   5.160 -0.4637  0.1771  0.1433
  101MOL    H7224272   7.766   0.362   5.308  1.0131 -0.0755 -1.2024
  101MOL    H7324273   7.667   0.445   5.206  0.5485  0.6386  0.0620
  101MOL    C7424274   7.356   0.277   5.554  0.2331  0.5304  0.8336
  101MOL    C7524275   7.235   0.187   5.591  0.0625 -0.0801  0.2317
  101MOL    O7624276   7.114   0.265   5.602 -0.1578 -0.0440  0.1945
  101MOL    C7724277   7.029   0.250   5.713 -0.2763  0.0346 -0.2655
  101MOL    C7824278   6.896   0.317   5.701 -0.1534  0.3734  0.1579
  101MOL    O7924279   7.070   0.203   5.817 -0.4640  0.2848 -0.3975
  101MOL    H8024280   7.443   0.215   5.577  0.2531  1.0802  2.2877
  101MOL    H8124281   7.366   0.363   5.620  0.3389  1.6905 -0.6534
  101MOL    H8224282   7.262   0.164   5.694  3.4344 -3.4300 -1.2957
  101MOL    H8324283   6.856   0.266   5.614 -1.0050 -1.9629  1.8634
  101MOL    H8424284   6.918   0.419   5.667 -0.0655  0.3347  0.0986
  101MOL    H8524285   6.838   0.312   5.793 -1.6583 -1.8677 -0.8616
  101MOL    C8624286   7.214   0.063   5.503 -0.0084 -0.2008 -0.3097
  101MOL    C8724287   7.144   7.969   5.578 -0.0478 -0.5405  0.0545
  101MOL    O8824288   7.127   7.869   5.480 -0.1580  0.2498  0.9193
  101MOL    C8924289   7.021   7.866   5.398  0.1592 -0.2301 -0.0387
  101MOL    C9024290   7.020   7.739   5.315 -0.1502 -0.3744  0.2017
  101MOL    O9124291   6.933   7.952   5.392 -0.4452 -0.2048 -0.2588
  101MOL    H9224292   7.159   0.101   5.417 -0.7513 -0.1203  0.1977
  101MOL    H9324293   7.310   0.030   5.462 -0.7226 -0.0413 -2.1875
  101MOL    H9424294   7.045   8.006   5.607 -0.2442  0.0335 -1.3208
  101MOL    H9524295   7.039   7.649   5.375  1.9653 -0.4679 -0.5796
  101MOL    H9624296   7.084   7.753   5.229 -0.0698  1.5998  0.5734
  101MOL    H9724297   6.920   7.728   5.273  0.7052 -1.9292 -1.4897
  101MOL    C9824298   7.220   7.908   5.694 -0.4709 -0.7423  0.3692
  101MOL    C9924299   7.141   7.814   5.785  0.3314 -0.2718  0.2491
  101MOL   O10024300   7.244   7.747   5.860  0.0072 -1.1185 -0.2826
  101MOL   C10124301   7.305   7.637   5.815 -0.2313 -0.0136 -0.2440
  101MOL   C10224302   7.429   7.594   5.896  0.2871  0.4783 -0.1029
  101MOL   O10324303   7.281   7.590   5.706 -0.2907 -0.7027  0.0530
  101MOL   H10424304   7.296   7.848   5.644 -1.2224 -2.2948  1.0445
  101MOL   H10524305   7.278   7.988   5.740 -0.5299  1.2860 -2.8993
  101MOL   H10624306   7.081   7.747   5.724 -0.6925  0.6644  0.2121
  101MOL   H10724307   7.426   7.623   6.001  0.2582 -0.7162  0.2323
  101MOL   H10824308   7.519   7.634   5.848  1.1035  0.0463  1.0610
  101MOL   H10924309   7.435   7.486   5.895  0.1829  0.4666  0.5785
  101MOL   C11024310   7.035   7.883   5.878  0.1773 -0.0021  0.5183
  101MOL   C11124311   6.954   7.788   5.967  0.3202 -0.4995  0.1236
  101MOL   O11224312   6.874   7.699   5.880  0.6843  0.4751  0.1737
  101MOL   C11324313   6.746   7.669   5.909 -0.5289  0.6369  0.2757
  101MOL   C11424314   6.688   7.579   5.795  0.1435  0.5628 -0.0559
  101MOL   O11524315   6.686   7.716   6.008  0.4343 -0.0633 -0.6200
  101MOL   H11624316   7.092   7.960   5.931 -0.5842  0.9569 -0.0479
  101MOL   H11724317   6.966   7.935   5.812  0.8128  0.2257  0.0244
  101MOL   H11824318   6.882   7.855   6.013 -0.7941 -1.3651 -0.3252
  101MOL   H11924319   6.582   7.573   5.819 -0.2063  1.1983 -1.3638
  101MOL   H12024320   6.742   7.485   5.805 -2.3209 -0.8979 -0.1138
  101MOL   H12124321   6.708   7.628   5.700  1.9877  0.4577  0.2623
  101MOL   C12224322   7.050   7.709   6.069  0.0995 -0.3260 -0.4766
  101MOL   C12324323   6.977   7.665   6.190 -0.5773  0.0181 -0.0503
  101MOL   O12424324   7.061   7.563   6.244 -0.0030 -0.1726 -0.4191
  101MOL   C12524325   7.003   7.451   6.305  0.4697  0.3357  0.2731
  101MOL   C12624326   7.104   7.337   6.338  0.3948 -0.1661 -1.1071
  101MOL   O12724327   6.879   7.439   6.325  0.1407  0.3813  0.4889
  101MOL   H12824328   7.090   7.624   6.014 -1.3605 -1.0599 -0.4208
  101MOL   H12924329   7.127   7.783   6.093 -1.7984  1.7334 -0.5599
  101MOL   H13024330   6.881   7.624   6.158  0.3143 -1.5045 -0.8733
  101MOL   H13124331   7.201   7.385   6.340 -0.3112  1.3001  2.1759
  101MOL   H13224332   7.087   7.264   6.259  0.3076 -3.2811  1.6475
  101MOL   H13324333   7.091   7.284   6.433 -1.7431  1.5824 -0.3815
  101MOL   C13424334   6.962   7.777   6.292 -0.7301 -0.6290  0.1741
  101MOL   C13524335   6.862   7.765   6.411  0.2213 -0.1112  0.4237
  101MOL   O13624336   6.898   7.857   6.512 -0.9472  0.4080  0.1592
  101MOL   C13724337   6.980   7.828   6.619  0.3757 -0.1442 -0.2820
  101MOL   C13824338   7.023   7.950   6.693  0.5535  0.2630 -0.3701
  101MOL   O13924339   7.025   7.717   6.654  0.1511  0.3436  0.2957
  101MOL   H14024340   7.064   7.792   6.327 -0.2261 -0.2760 -1.3972
  101MOL   H14124341   6.943   7.874   6.246 -2.9140  1.0506  4.3949
  101MOL   H14224342   6.878   7.667   6.457  3.1678 -0.5237 -1.3912
  101MOL   H14324343   7.131   7.959   6.707  0.3706  1.2432  0.4705
  101MOL   H14424344   6.984   7.966   6.793  0.2546 -2.1102 -0.0786
  101MOL   H14524345   7.012   0.016   6.628  0.7703  0.1216 -0.5968
  101MOL   C14624346   6.714   7.784   6.368 -0.3701  0.7056 -0.0205
  101MOL   C14724347   6.620   7.658   6.404 -0.5109 -0.4267  0.7926
  101MOL   O14824348   6.538   7.689   6.513  0.4975 -0.4290 -0.0239
  101MOL   C14924349   6.578   7.636   6.638 -0.3447  0.3500 -0.8372
  101MOL   C15024350   6.473   7.669   6.743  0.0064 -0.6519  0.6244
  101MOL   O15124351   6.677   7.581   6.672 -0.1084 -0.4591 -0.1901
  101MOL   H15224352   6.670   7.876   6.408 -0.2843  0.6432  0.2158
  101MOL   H15324353   6.710   7.793   6.260  0.3145 -0.5608 -0.1549
  101MOL   H15424354   6.675   7.567   6.429 -0.6589 -1.2789 -1.8036
  101MOL   H15524355   6.387   7.601   6.740 -1.6190  1.3695  0.5715
  101MOL   H15624356   6.431   7.769   6.732 -1.1460 -1.2146 -0.2305
  101MOL   H15724357   6.513   7.672   6.844 -2.4419  0.3034  1.5892
  101MOL   C15824358   6.521   7.616   6.291 -0.0573  0.3041  0.3304
  101MOL   C15924359   6.438   7.490   6.320  0.3821  0.6390 -0.0092
  101MOL   O16024360   6.346   7.476   6.212  0.2786 -0.7068  0.2021
  101MOL   C16124361   6.217   7.428   6.228  0.3966 -0.2020  0.4267
  101MOL   C16224362   6.147   7.409   6.089  0.1472 -0.2925 -0.7012
  101MOL   O16324363   6.160   7.398   6.335 -0.1705  0.4665  0.3371
  101MOL   H16424364   6.461   7.705   6.269  0.4468  0.5231 -0.1789
  101MOL   H16524365   6.582   7.599   6.202 -0.9296 -0.8561 -0.0630
  101MOL   H16624366   6.383   7.508   6.412 -1.0498 -0.0520 -0.7154
  101MOL   H16724367   6.053   7.358   6.109 -0.2484  1.1463  1.2707
  101MOL   H16824368   6.201   7.348   6.017 -0.8490 -3.3946  1.0912
  101MOL   H16924369   6.127   7.507   6.045  4.6854  0.7891 -0.5409
  101MOL   C17024370   6.531   7.363   6.321 -0.1445  0.6265 -0.2526
  101MOL   C17124371   6.559   7.300   6.463  0.1184 -0.5619  0.1808
  101MOL   O17224372   6.450   7.227   6.503  0.2004 -0.2793 -0.4332
  101MOL   C17324373   6.378   7.254   6.611 -0.2230  0.5720 -0.7736
  101MOL   C17424374   6.260   7.166   6.627  0.1279  0.3873 -0.6559
  101MOL   O17524375   6.394   7.355   6.681 -0.2571 -0.0186  0.2021
  101MOL   H17624376   6.493   7.281   6.260 -0.7651 -0.1687  1.1801
  101MOL   H17724377   6.623   7.392   6.270  1.2041 -1.9213  0.6787
  101MOL   H17824378   6.585   7.375   6.538 -0.3206 -0.3301  0.1050
  101MOL   H17924379   6.184   7.207   6.693  0.4629 -2.0665  1.3232
  101MOL   H18024380   6.279   7.067   6.667 -1.2796  1.0513  1.7290
  101MOL   H18124381   6.207   7.153   6.532  1.0415 -2.4503 -0.8339
  101MOL   C18224382   6.673   7.201   6.437  0.0303  0.1625  1.1275
  101MOL   C18324383   6.742   7.136   6.561 -0.3959  0.4329  0.1284
  101MOL   O18424384   6.826   7.036   6.499  0.1385  0.3421  0.3041
  101MOL   C18524385   6.848   6.914   6.546  0.0858  0.4189  0.4959
  101MOL   C18624386   6.959   6.842   6.471 -0.0323 -1.3960 -0.0887
  101MOL   O18724387   6.782   6.864   6.638 -0.3666  0.0150  0.0713
  101MOL   H18824388   6.636   7.112   6.385 -1.5736  0.9376  0.9022
  101MOL   H18924389   6.757   7.243   6.382 -0.1460  1.1073  1.5708
  101MOL   H19024390   6.681   7.077   6.629  2.0403 -1.8665  0.4301
  101MOL   H19124391   6.936   6.871   6.369 -0.3479 -2.1276 -0.2227
  101MOL   H19224392   6.926   6.741   6.491  2.7405 -2.1675  0.7998
  101MOL   H19324393   7.060   6.865   6.507 -1.1070  0.1796  2.0250
  101MOL   C19424394   6.820   7.242   6.643 -0.2523 -0.8700 -0.0254
  101MOL   C19524395   6.788   7.258   6.794  0.7300  0.0507  0.3161
  101MOL   O19624396   6.786   7.136   6.868 -0.2340  0.2915 -0.5451
  101MOL   C19724397   6.665   7.078   6.890  0.5335 -0.6273  0.0824
  101MOL   C19824398   6.682   6.945   6.961 -0.1290  0.0763 -0.0567
  101MOL   O19924399   6.552   7.119   6.861 -0.6106  0.3253 -0.2247
  101MOL   H20024400   6.926   7.215   6.640  1.0883  3.9628 -1.2126
  101MOL   H20124401   6.826   7.338   6.591  0.6807 -1.1033 -0.3673
  101MOL   H20224402   6.688   7.300   6.805  0.0372 -1.2760 -0.7362
  101MOL   H20324403   6.677   6.861   6.891 -1.1427 -1.1778  1.4691
  101MOL   H20424404   6.599   6.945   7.032  0.1469 -1.8674  0.3070
  101MOL   H20524405   6.774   6.932   7.018 -1.7401 -3.0220  2.0160
  101MOL   C20624406   6.890   7.358   6.855  0.4302  0.3634 -0.0751
  101MOL   C20724407   6.857   7.401   6.997 -0.1984 -0.4414  0.2667
  101MOL   O20824408   6.846   7.297   7.092 -0.0463 -0.4219 -0.2981
  101MOL   C20924409   6.740   7.286   7.179 -0.2344  0.0167  0.7535
  101MOL   C21024410   6.768   7.189   7.297  0.1058 -0.0542  0.0365
  101MOL   O21124411   6.632   7.328   7.162  0.5122  0.3801  0.2873
  101MOL   H21224412   6.992   7.318   6.845  0.8761  1.1312  1.2447
  101MOL   H21324413   6.895   7.448   6.794 -1.6347  0.0990 -0.6414
  101MOL   H21424414   6.762   7.453   6.984  0.4814  0.2058 -2.4060
  101MOL   H21524415   6.852   7.221   7.360 -0.5784 -1.8430  1.9009
  101MOL   H21624416   6.801   7.093   7.257 -0.9851 -1.2467  1.9269
  101MOL   H21724417   6.683   7.154   7.355  1.6455 -1.6000  1.4315
  101MOL   C21824418   6.951   7.508   7.050 -0.0366  0.0541 -0.3167
  101MOL   C21924419   6.918   7.659   7.016 -0.2765  0.3277  0.6045
  101MOL   O22024420   6.797   7.691   7.073 -0.3186 -0.3803  0.1809
  101MOL   C22124421   6.721   7.781   7.002  0.7384 -1.0291  0.1681
  101MOL   C22224422   6.590   7.817   7.064 -0.7953  0.4102 -0.8912
  101MOL   O22324423   6.748   7.840   6.897 -0.0824  0.4858  0.1845
  101MOL   H22424424   6.947   7.500   7.159 -0.1328  0.0107 -0.3226
  101MOL   H22524425   7.050   7.480   7.014  0.3815  1.2146 -0.0881
  101MOL   H22624426   6.902   7.675   6.909 -3.7058 -2.3451  0.6450
  101MOL   H22724427   6.515   7.739   7.051 -0.2968  0.0610 -1.7545
  101MOL   H22824428   6.547   7.901   7.010 -2.7731 -0.1791 -0.2738
  101MOL   H22924429   6.606   7.845   7.168  0.8868 -0.0393 -1.0215
  101MOL   C23024430   7.031   7.748   7.080  0.9498  0.1032 -0.2840
  101MOL   C23124431   7.172   7.729   7.025  0.1675 -0.4229  1.2658
  101MOL   O23224432   7.260   7.809   7.099 -0.0543  0.4763  0.0643
  101MOL   C23324433   7.286   7.941   7.046 -0.9226  0.1559 -0.6070
  101MOL   C23424434   7.359   8.010   7.150 -0.3364 -0.4094 -0.0384
  101MOL   O23524435   7.261   7.993   6.937 -0.2949  0.0385  0.1476
  101MOL   H23624436   7.003   7.853   7.068 -0.8160 -0.2822  0.4296
  101MOL   H23724437   7.041   7.741   7.188 -1.3974  0.7312 -0.0082
  101MOL   H23824438   7.171   7.747   6.918  0.0455  0.9843  1.4874
  101MOL   H23924439   7.306   8.001   7.245  0.7058 -1.6960  0.4337
  101MOL   H24024440   7.370   0.097   7.147 -1.6655 -0.2623 -0.0455
  101MOL   H24124441   7.460   7.971   7.144 -0.1509  0.1543 -0.5649
  101MOL   H24224442   7.207   7.628   7.047 -0.3406 -1.1328 -1.1422
  102MOL     C124443   2.268   0.670   7.780 -0.0609 -0.0376 -0.1215
  102MOL     C224444   2.136   0.645   7.696 -0.4390 -0.3091  0.1549
  102MOL     O324445   2.158   0.546   7.597  0.4078  0.0077  0.3386
  102MOL     C424446   2.223   0.577   7.480  0.7356 -0.4621  0.9720
  102MOL     C524447   2.270   0.466   7.400  0.7148  0.1734 -0.2297
  102MOL     O624448   2.254   0.693   7.444  0.2758  0.6488 -0.5885
  102MOL     H724449   2.341   0.713   7.712 -1.5640 -0.0439 -1.7834
  102MOL     H824450   2.310   0.582   7.829 -1.8213 -0.3348  0.9072
  102MOL     H924451   2.116   0.733   7.635 -0.5734 -0.8814 -0.6445
  102MOL    H1024452   2.228   0.474   7.300  1.1199  0.4701 -0.3789
  102MOL    H1124453   2.243   0.371   7.445 -2.6163  1.2666  0.1642
  102MOL    H1224454   2.377   0.487   7.387  0.5309  0.5654 -1.1295
  102MOL    H1324455   2.245   0.741   7.860  0.6594 -1.3138  1.2456
  102MOL    C1424456   2.020   0.614   7.790 -0.3134  0.2685 -0.0631
  102MOL    C1524457   1.894   0.554   7.713  0.3508  0.1931 -0.3610
  102MOL    O1624458   1.793   0.528   7.810 -0.8722 -0.3879 -0.2588
  102MOL    C1724459   1.814   0.419   7.892  0.9601 -0.0635  0.1493
  102MOL    C1824460   1.702   0.417   8.003 -0.6343 -0.5128  0.1442
  102MOL    O1924461   1.910   0.339   7.890  0.0554 -0.5367 -0.2227
  102MOL    H2024462   2.058   0.536   7.856 -1.6673  0.1742  0.6113
  102MOL    H2124463   2.001   0.698   7.856  0.1550  0.6780 -0.4385
  102MOL    H2224464   1.927   0.461   7.668  1.7594  0.5076 -0.0360
  102MOL    H2324465   1.608   0.466   7.978 -1.2829 -0.6557  2.2041
  102MOL    H2424466   1.753   0.454   0.071  0.8459 -1.9184 -0.1145
  102MOL    H2524467   1.674   0.314   8.021  0.3927 -0.8554 -0.2050
  102MOL    C2624468   1.841   0.655   7.601 -0.4386 -0.3931 -0.6935
  102MOL    C2724469   1.735   0.585   7.502 -0.0575 -0.2671 -0.2937
  102MOL    O2824470   1.704   0.679   7.405 -0.1478  0.9225 -0.2505
  102MOL    C2924471   1.631   0.793   7.437  0.2919  0.6190 -0.0283
  102MOL    C3024472   1.633   0.894   7.331 -0.4018 -0.8206  0.4521
  102MOL    O3124473   1.564   0.802   7.540  0.3244 -0.1360 -0.4007
  102MOL    H3224474   1.801   0.746   7.646  1.2709 -0.5905  1.2658
  102MOL    H3324475   1.922   0.696   7.542 -2.4284  0.8522 -2.6344
  102MOL    H3424476   1.640   0.556   7.545 -0.6488  0.9323 -0.7743
  102MOL    H3524477   1.732   0.881   7.288 -0.7186  0.7722 -0.7973
  102MOL    H3624478   1.627   0.998   7.363  0.0624 -0.0674 -1.8252
  102MOL    H3724479   1.553   0.879   7.259  0.2499 -1.6887 -0.0891
  102MOL    C3824480   1.791   0.462   7.432 -0.1069 -0.0529 -0.2443
  102MOL    C3924481   1.704   0.399   7.329 -0.2795  0.1523 -0.0680
  102MOL    O4024482   1.787   0.292   7.281  0.2788  0.3828 -0.2999
  102MOL    C4124483   1.856   0.306   7.164  0.7292  0.5384 -0.3875
  102MOL    C4224484   1.941   0.190   7.127 -0.3622  0.1958  0.3235
  102MOL    O4324485   1.841   0.399   7.089 -0.1000  0.0928  0.4168
  102MOL    H4424486   1.892   0.482   7.396 -0.7877  2.6376 -0.7218
  102MOL    H4524487   1.812   0.377   7.498  1.8696  0.8983  0.4041
  102MOL    H4624488   1.685   0.475   7.253 -2.4225  0.4785  0.7486
  102MOL    H4724489   1.943   0.192   7.018 -0.7960  0.4911  0.3215
  102MOL    H4824490   1.899   0.096   7.161  0.3274  0.0932  0.9080
  102MOL    H4924491   2.033   0.199   7.185 -0.4725  1.0888  0.3708
  102MOL    C5024492   1.570   0.344   7.379  0.1744 -0.1114 -0.4078
  102MOL    C5124493   1.446   0.437   7.368  0.1160  0.2540 -0.1432
  102MOL    O5224494   1.436   0.455   7.224  0.0866 -0.1181  0.6590
  102MOL    C5324495   1.423   0.574   7.176 -0.6325  0.5699 -0.5352
  102MOL    C5424496   1.400   0.573   7.027 -0.5229  0.4172  0.5367
  102MOL    O5524497   1.412   0.680   7.237 -0.1234  0.9529  0.0249
  102MOL    H5624498   1.539   0.255   7.324  0.1907 -1.2672  1.3852
  102MOL    H5724499   1.579   0.316   7.484  2.6062 -0.0202 -0.5589
  102MOL    H5824500   1.467   0.532   7.417  0.3209 -0.5527  1.3536
  102MOL    H5924501   1.310   0.524   6.991  0.4251 -0.1318 -1.1572
  102MOL    H6024502   1.485   0.536   6.969  0.0966  2.9266 -0.2120
  102MOL    H6124503   1.384   0.677   6.999  0.5119  0.2423 -0.7732
  102MOL    C6224504   1.313   0.382   7.420  1.0634 -0.1362 -0.7538
  102MOL    C6324505   1.311   0.348   7.569 -0.0210 -0.1651  0.0186
  102MOL    O6424506   1.333   0.471   7.643 -0.4683  0.1043 -0.3838
  102MOL    C6524507   1.444   0.483   7.719 -0.4710  0.6066 -0.3753
  102MOL    C6624508   1.454   0.617   7.794  0.8621  0.5521 -0.1970
  102MOL    O6724509   1.523   0.394   7.749  0.3200  0.2159 -0.3456
  102MOL    H6824510   1.233   0.450   7.392  1.2543  0.5796  0.4029
  102MOL    H6924511   1.290   0.289   7.368 -2.1894 -0.9354  1.9435
  102MOL    H7024512   1.399   0.287   7.585  0.6749  0.6948 -0.4440
  102MOL    H7124513   1.377   0.612   7.872 -0.3446 -1.6644 -1.4697
  102MOL    H7224514   1.421   0.697   7.727  0.7855  1.4522  0.8964
  102MOL    H7324515   1.554   0.638   7.832  1.7836 -1.7449 -1.2213
  102MOL    C7424516   1.192   0.277   7.621  0.2093  0.6714  0.4197
  102MOL    C7524517   1.209   0.213   7.765  0.2206 -1.0368  0.2658
  102MOL    O7624518   1.083   0.189   7.816 -0.0405 -0.5449  0.0997
  102MOL    C7724519   1.038   0.261   7.928  0.6011  0.4020  0.5527
  102MOL    C7824520   0.914   0.202   7.997  0.6430 -0.1329 -0.1967
  102MOL    O7924521   1.086   0.367   7.965  0.2156 -0.0061  0.0090
  102MOL    H8024522   1.114   0.353   7.624 -0.4390  0.0691 -0.7885
  102MOL    H8124523   1.168   0.210   7.538  1.1392 -0.5904  1.1470
  102MOL    H8224524   1.277   0.275   7.824  0.4968  0.6790 -1.7934
  102MOL    H8324525   0.924   0.094   8.013 -2.1656 -0.4664 -0.3645
  102MOL    H8424526   0.823   0.232   7.945 -0.0415 -3.4046 -0.9756
  102MOL    H8524527   0.904   0.241   0.077 -1.0941 -1.1925  0.0625
  102MOL    C8624528   1.281   0.081   7.762  0.9757 -0.0728 -0.0890
  102MOL    C8724529   1.366   0.047   7.884  0.1759  0.1309 -1.0052
  102MOL    O8824530   1.287   0.038   8.006  0.3533  0.3287 -0.2129
  102MOL    C8924531   1.309   0.111   0.095  0.0497  0.3461  0.3608
  102MOL    C9024532   1.201   0.084   0.200 -0.3292 -0.1406  0.2524
  102MOL    O9124533   1.408   0.174   0.119 -0.5818  0.3651 -0.2290
  102MOL    H9224534   1.209   0.003   7.736  0.0810  0.2717  1.2557
  102MOL    H9324535   1.350   0.074   7.679  0.2818 -1.4051 -0.5786
  102MOL    H9424536   1.450   0.116   7.895  0.9399 -0.3299 -3.7156
  102MOL    H9524537   1.139   8.020   0.173  1.5524 -1.9303  1.3919
  102MOL    H9624538   1.143   0.175   0.215 -0.2752 -0.1804  0.7259
  102MOL    H9724539   1.247   0.082   0.300  1.3396 -1.5027 -0.5071
  102MOL    C9824540   1.428   7.928   7.859  0.0627 -0.0813 -0.5806
  102MOL    C9924541   1.572   7.924   7.903  0.2650  0.6511  0.0191
  102MOL   O10024542   1.584   7.918   0.024 -0.4364  0.1522 -1.0211
  102MOL   C10124543   1.708   7.933   0.094  0.2295 -0.8525  0.0885
  102MOL   C10224544   1.695   7.954   0.246  0.5036 -0.6884 -0.4304
  102MOL   O10324545   1.818   7.944   0.042 -0.5995  0.1005  0.7072
  102MOL   H10424546   1.365   7.856   7.911 -1.0063  2.4627  1.7798
  102MOL   H10524547   1.416   7.901   7.754 -2.7710  0.2774 -0.3811
  102MOL   H10624548   1.620   8.018   7.877  1.8121 -0.6549 -1.9837
  102MOL   H10724549   1.786   7.975   0.303  0.8163 -0.6216 -0.9527
  102MOL   H10824550   1.643   7.871   0.293 -0.1640 -0.5256 -0.8812
  102MOL   H10924551   1.642   0.027   0.258  1.9398 -0.1589  2.3208
  102MOL   C11024552   1.642   7.802   7.842 -0.5707 -0.6306  0.5520
  102MOL   C11124553   1.683   7.825   7.692 -0.2544 -0.8388 -0.1610
  102MOL   O11224554   1.794   7.907   7.690  0.3877  1.1580 -0.3927
  102MOL   C11324555   1.791   0.020   7.670  0.3089 -0.2311  0.1829
  102MOL   C11424556   1.928   0.075   7.675  0.5220 -0.0014 -0.0644
  102MOL   O11524557   1.691   0.086   7.648  0.5772 -0.1917 -0.4549
  102MOL   H11624558   1.735   7.782   7.895 -0.7685  1.5864  1.8011
  102MOL   H11724559   1.574   7.717   7.852 -1.3528 -0.2092 -1.0305
  102MOL   H11824560   1.599   7.873   7.642  0.5037 -1.2253 -1.8843
  102MOL   H11924561   1.997   0.034   7.601  0.5972 -2.9473  1.5620
  102MOL   H12024562   1.968   0.069   7.776  1.3982 -0.8845 -0.4468
  102MOL   H12124563   1.925   0.181   7.653  1.1477 -0.2939 -1.6234
  102MOL   C12224564   1.711   7.698   7.606  0.3440 -0.6539  0.0570
  102MOL   C12324565   1.742   7.726   7.457 -0.2974 -0.1388 -0.2633
  102MOL   O12424566   1.886   7.740   7.445  0.1834  0.3775 -0.3199
  102MOL   C12524567   1.948   7.826   7.364 -0.0826 -0.1590  0.5675
  102MOL   C12624568   2.102   7.835   7.368  0.1007  0.3302 -0.0334
  102MOL   O12724569   1.895   7.910   7.288  0.4852 -0.0360 -0.4076
  102MOL   H12824570   1.791   7.635   7.646 -0.0340 -1.6772 -0.7790
  102MOL   H12924571   1.628   7.629   7.616 -2.1273  2.5164  2.5114
  102MOL   H13024572   1.700   7.821   7.424  0.5332  0.3229  0.0040
  102MOL   H13124573   2.150   7.761   7.304  2.4466  0.0264  1.9834
  102MOL   H13224574   2.118   7.814   7.474  0.7006  3.3316  0.5195
  102MOL   H13324575   2.147   7.926   7.328 -2.0680  1.0270 -0.9700
  102MOL   C13424576   1.690   7.612   7.364 -0.4148  0.2323 -0.0403
  102MOL   C13524577   1.540   7.636   7.319  0.0183 -0.2227 -1.0814
  102MOL   O13624578   1.517   7.768   7.272  0.3334 -0.7230  0.1940
  102MOL   C13724579   1.450   7.860   7.344 -0.8696 -0.9330 -0.4312
  102MOL   C13824580   1.449   7.991   7.269  0.3190 -0.3282 -0.4623
  102MOL   O13924581   1.411   7.838   7.459 -0.7532 -0.2592  0.2368
  102MOL   H14024582   1.752   7.603   7.276  0.9613 -0.5819  0.9892
  102MOL   H14124583   1.706   7.517   7.416 -4.2273  0.9753  2.7419
  102MOL   H14224584   1.478   7.623   7.408  1.1319  4.0472  0.4629
  102MOL   H14324585   1.549   0.012   7.275 -0.9441  2.4170  2.7566
  102MOL   H14424586   1.376   0.030   7.323 -0.4451 -2.0529  0.5002
  102MOL   H14524587   1.403   7.975   7.172 -1.7984 -1.0950  0.6266
  102MOL   C14624588   1.482   7.538   7.217  1.1095  0.5770  0.8212
  102MOL   C14724589   1.470   7.404   7.282 -0.1315  0.2413 -0.3864
  102MOL   O14824590   1.346   7.408   7.341 -0.3899  0.2527 -0.6074
  102MOL   C14924591   1.331   7.411   7.473  0.1074 -0.0993  0.9653
  102MOL   C15024592   1.187   7.391   7.512  0.0204  0.0788 -0.1159
  102MOL   O15124593   1.422   7.402   7.548 -0.3690 -0.5706 -0.0305
  102MOL   H15224594   1.387   7.548   7.165  1.4011 -1.4978 -0.1637
  102MOL   H15324595   1.551   7.531   7.133 -0.5300  1.2206 -0.6132
  102MOL   H15424596   1.548   7.384   7.356 -0.1988  0.7347 -0.1827
  102MOL   H15524597   1.128   7.468   7.461  0.4937  1.3746  1.2603
  102MOL   H15624598   1.164   7.399   7.618  3.1464  0.8240  0.5758
  102MOL   H15724599   1.161   7.289   7.485  1.0762 -0.0804 -0.5552
  102MOL   C15824600   1.471   7.288   7.172 -0.6034 -0.0591 -0.2504
  102MOL   C15924601   1.613   7.252   7.112 -0.2027 -0.0947  0.2932
  102MOL   O16024602   1.721   7.263   7.208 -0.4817 -0.5440  0.4785
  102MOL   C16124603   1.738   7.174   7.309  0.0122 -0.4137  1.0676
  102MOL   C16224604   1.850   7.205   7.410 -0.1763  0.4713  0.7396
  102MOL   O16324605   1.660   7.078   7.332  0.4319  0.3091 -0.3058
  102MOL   H16424606   1.416   7.203   7.210 -0.0468 -0.3015  0.0214
  102MOL   H16524607   1.401   7.317   7.093 -1.1689  2.0325  0.9737
  102MOL   H16624608   1.633   7.332   7.041  1.8702  0.3936  1.3912
  102MOL   H16724609   1.825   7.294   7.467  1.3821  1.9541 -0.8102
  102MOL   H16824610   1.953   7.206   7.376  0.6439  0.7469  3.1699
  102MOL   H16924611   1.856   7.123   7.481 -1.4263  0.4575  0.8491
  102MOL   C17024612   1.599   7.121   7.036  0.3484 -0.4277 -0.0304
  102MOL   C17124613   1.729   7.055   6.980 -0.1642 -0.3593 -0.6328
  102MOL   O17224614   1.698   6.926   6.931  0.0893  0.2944 -0.2780
  102MOL   C17324615   1.636   6.912   6.805 -0.1368 -0.3240 -0.5533
  102MOL   C17424616   1.616   6.767   6.781 -0.2631 -0.0955  0.1301
  102MOL   O17524617   1.587   7.001   6.732  0.1869  0.0135 -0.6580
  102MOL   H17624618   1.561   7.047   7.106 -0.8115  0.4087  0.2416
  102MOL   H17724619   1.521   7.127   6.960  1.1982  0.0035 -0.8872
  102MOL   H17824620   1.773   7.024   7.075 -0.4481  1.4680  0.1160
  102MOL   H17924621   1.656   6.714   6.868  1.1910 -0.1163 -0.5331
  102MOL   H18024622   1.656   6.740   6.683  1.1581  0.3961  0.5580
  102MOL   H18124623   1.510   6.747   6.769  0.0580 -1.1401 -1.1302
  102MOL   C18224624   1.829   7.134   6.894  0.1132 -0.0305 -0.1609
  102MOL   C18324625   1.954   7.183   6.970 -0.1399  0.4285  0.1320
  102MOL   O18424626   2.048   7.074   6.983 -0.0466 -0.3948 -0.1152
  102MOL   C18524627   2.066   7.016   7.099 -0.4263 -0.1306  0.5309
  102MOL   C18624628   2.188   6.926   7.097  0.7602 -0.2868 -0.8764
  102MOL   O18724629   2.013   7.038   7.203  0.2394 -0.0107  0.4874
  102MOL   H18824630   1.868   7.078   6.810 -0.7267 -2.2117  0.8499
  102MOL   H18924631   1.767   7.213   6.850 -1.9262  0.5141  3.4302
  102MOL   H19024632   1.926   7.225   7.067 -0.0587  0.7328  0.0262
  102MOL   H19124633   2.171   6.827   7.139  1.5676  0.6416  1.7240
  102MOL   H19224634   2.269   6.961   7.160  1.8326 -1.8259 -1.3651
  102MOL   H19324635   2.221   6.918   6.993  1.9890 -2.2930 -0.3379
  102MOL   C19424636   2.021   7.303   6.896  0.3600 -0.2251 -0.3607
  102MOL   C19524637   2.086   7.396   7.005 -0.0643 -0.7447 -0.0495
  102MOL   O19624638   2.187   7.313   7.065  0.1944  0.3430  0.2992
  102MOL   C19724639   2.234   7.335   7.188 -0.7857 -0.3572 -0.3388
  102MOL   C19824640   2.343   7.252   7.241  0.2204 -0.2205  0.7492
  102MOL   O19924641   2.183   7.421   7.265  0.2408  0.3623  0.0971
  102MOL   H20024642   2.097   7.269   6.825  1.9314 -1.5333  1.9115
  102MOL   H20124643   1.946   7.366   6.847  0.7151  0.9150  0.5506
  102MOL   H20224644   2.003   7.409   7.074  1.2623 -0.0327  1.4656
  102MOL   H20324645   2.435   7.257   7.183 -0.5615 -1.0580 -0.5719
  102MOL   H20424646   2.319   7.146   7.249 -2.4755  0.4365  2.0921
  102MOL   H20524647   2.378   7.287   7.338  0.9212  1.8807 -0.2463
  102MOL   C20624648   2.148   7.529   6.963  0.2037 -0.3527 -0.3855
  102MOL   C20724649   2.064   7.625   6.874 -0.0849 -0.2154  0.3346
  102MOL   O20824650   1.961   7.690   6.951 -0.8036 -0.2488 -0.6034
  102MOL   C20924651   1.832   7.650   6.960  0.6168  0.3888 -0.7112
  102MOL   C21024652   1.742   7.761   7.007 -0.1694 -0.2534 -0.4201
  102MOL   O21124653   1.788   7.534   6.949 -0.1565  0.3387  0.4026
  102MOL   H21224654   2.174   7.580   7.056  1.9866  3.3547 -2.8000
  102MOL   H21324655   2.240   7.502   6.912  1.0073  2.9161 -0.7611
  102MOL   H21424656   2.011   7.571   6.796  1.4233 -0.8101 -0.2839
  102MOL   H21524657   1.645   7.719   7.035 -1.2146  1.3503 -1.5754
  102MOL   H21624658   1.724   7.825   6.921 -0.4797  0.0376 -0.1416
  102MOL   H21724659   1.781   7.825   7.086 -3.0036  0.6410  0.3130
  102MOL   C21824660   2.154   7.746   6.815  0.7643 -0.1542  0.0818
  102MOL   C21924661   2.105   7.824   6.689  0.2787 -0.0688 -0.3244
  102MOL   O22024662   2.179   7.949   6.685  0.1210 -0.1716  0.5384
  102MOL   C22124663   2.131   0.043   6.738  0.5607  0.5727 -0.4089
  102MOL   C22224664   2.225   0.152   6.706 -0.0222  0.1032 -0.3958
  102MOL   O22324665   2.027   0.057   6.805  0.1915  0.1534 -0.2635
  102MOL   H22424666   2.167   7.818   6.896  1.0619  0.7617 -0.7730
  102MOL   H22524667   2.257   7.716   6.792  0.1461 -0.6012 -2.2247
  102MOL   H22624668   1.999   7.839   6.708  0.6032  2.1939 -0.1715
  102MOL   H22724669   2.188   0.203   6.618 -1.1801 -1.0707 -0.6027
  102MOL   H22824670   2.323   0.108   6.686 -0.8153 -1.7291 -0.3451
  102MOL   H22924671   2.244   0.229   6.782 -1.4919 -0.8551  0.9706
  102MOL   C23024672   2.118   7.757   6.550  0.4451  0.0211  0.0611
  102MOL   C23124673   2.261   7.754   6.500 -0.0602  0.0760  0.9228
  102MOL   O23224674   2.281   7.648   6.403  1.0601  0.1796 -0.3256
  102MOL   C23324675   2.396   7.649   6.333 -0.1851 -0.5414  0.2971
  102MOL   C23424676   2.418   7.548   6.227  0.6202  0.0960  0.0919
  102MOL   O23524677   2.494   7.713   6.371 -0.3795  0.0193  0.3801
  102MOL   H23624678   2.080   7.654   6.555  1.9892 -0.4641  2.5187
  102MOL   H23724679   2.059   7.815   6.479 -0.1583 -0.7079 -0.0495
  102MOL   H23824680   2.329   7.735   6.583  1.8381  0.3422 -0.5396
  102MOL   H23924681   2.347   7.469   6.251  1.2444 -0.5005 -0.0080
  102MOL   H24024682   2.520   7.508   6.228  0.8217  0.5872  2.6331
  102MOL   H24124683   2.393   7.582   6.127 -0.2265 -0.6668  0.0405
  102MOL   H24224684   2.283   7.843   6.442  0.9432  1.0062  2.6659
  103MOL     C124685   3.559   7.597   4.666 -0.0058 -0.4801  0.0798
  103MOL     C224686   3.576   7.681   4.544  0.1742  0.0251  0.4770
  103MOL     O324687   3.717   7.698   4.519 -0.4481  0.2376  0.1603
  103MOL     C424688   3.767   7.822   4.537  0.3818  0.2023 -0.1513
  103MOL     C524689   3.919   7.831   4.512 -0.4442 -0.2881  0.0827
  103MOL     O624690   3.705   7.919   4.567  0.2043 -0.0096  0.1565
  103MOL     H724691   3.611   7.503   4.655 -1.6225 -1.3077 -0.6487
  103MOL     H824692   3.456   7.579   4.699  0.3280 -0.5540  1.0862
  103MOL     H924693   3.530   7.778   4.563 -0.3788  0.1070 -1.1826
  103MOL    H1024694   3.963   7.795   4.605 -1.3087  0.3624  0.7511
  103MOL    H1124695   3.953   7.932   4.493 -1.5365  0.2631  1.0000
  103MOL    H1224696   3.943   7.764   4.430 -0.5636 -1.8397  1.2804
  103MOL    H1324697   3.616   7.648   4.744  1.6481 -0.3620 -1.2009
  103MOL    C1424698   3.495   7.631   4.424 -0.5202 -0.4578 -0.6527
  103MOL    C1524699   3.512   7.722   4.301 -0.0864  0.2204  0.4274
  103MOL    O1624700   3.633   7.695   4.226  0.2686  0.3643  0.2590
  103MOL    C1724701   3.729   7.795   4.198 -0.7746  1.2436  0.3925
  103MOL    C1824702   3.847   7.747   4.128  0.1450  0.2467 -0.3059
  103MOL    O1924703   3.711   7.910   4.222  0.1683  0.4734  0.1256
  103MOL    H2024704   3.516   7.526   4.401  1.9410 -0.1777  0.2125
  103MOL    H2124705   3.391   7.633   4.457  0.2052  1.7988  1.6817
  103MOL    H2224706   3.526   7.827   4.327 -0.9036  0.6110 -0.6982
  103MOL    H2324707   3.832   7.722   4.023 -1.0775 -1.9640  0.3715
  103MOL    H2424708   3.883   7.656   4.175  1.6602  0.7391 -0.4433
  103MOL    H2524709   3.930   7.819   4.122 -0.4382  1.0330  0.7984
  103MOL    C2624710   3.398   7.702   4.194  0.1421 -0.5047 -0.1528
  103MOL    C2724711   3.397   7.816   4.089  0.8066 -0.7643  0.4521
  103MOL    O2824712   3.303   7.789   3.987 -0.0543 -0.1072 -0.0467
  103MOL    C2924713   3.172   7.763   4.007  0.6084 -0.4779 -0.2074
  103MOL    C3024714   3.108   7.756   3.876 -0.0474  0.5688 -0.2312
  103MOL    O3124715   3.108   7.764   4.114  0.3037 -0.4478  0.3516
  103MOL    H3224716   3.413   7.611   4.136  2.0076  0.0150 -0.5137
  103MOL    H3324717   3.306   7.697   4.252  0.5886  1.0708  0.7465
  103MOL    H3424718   3.493   7.820   4.038  1.6516 -2.6455  1.8326
  103MOL    H3524719   3.105   7.653   3.838  2.1056  0.2864  0.2871
  103MOL    H3624720   3.150   7.819   3.798 -0.3735 -0.8544 -1.5969
  103MOL    H3724721   3.002   7.781   3.881 -0.4444 -1.3235  1.4089
  103MOL    C3824722   3.359   7.956   4.136  0.0525  0.1481 -0.1739
  103MOL    C3924723   3.418   0.038   4.038 -0.2757  0.5393 -0.6266
  103MOL    O4024724   3.377   0.021   3.900 -0.1542  0.2812 -0.4197
  103MOL    C4124725   3.459   0.019   3.801 -0.3448 -0.7065  0.4678
  103MOL    C4224726   3.389   8.015   3.664  0.6714 -0.2895 -0.2885
  103MOL    O4324727   3.580   0.032   3.802 -0.2699  0.4421 -0.1510
  103MOL    H4424728   3.251   7.973   4.142 -0.3493 -2.0968 -0.3664
  103MOL    H4524729   3.394   7.963   4.239 -2.5932 -1.9964  0.9318
  103MOL    H4624730   3.526   0.037   4.050 -0.2768  2.5341 -0.2447
  103MOL    H4724731   3.442   7.940   3.605  0.4837  0.7922 -1.8476
  103MOL    H4824732   3.379   0.086   3.609  2.0330  0.7045  1.0884
  103MOL    H4924733   3.285   7.987   3.683  0.9850 -1.2329  0.0859
  103MOL    C5024734   3.383   0.175   4.080  0.6821  0.0985  0.6247
  103MOL    C5124735   3.451   0.228   4.202 -0.0368 -0.4903  0.1674
  103MOL    O5224736   3.589   0.253   4.165  0.3272 -0.1368 -0.7483
  103MOL    C5324737   3.689   0.244   4.260 -0.3112 -0.0970 -0.5883
  103MOL    C5424738   3.823   0.266   4.194 -0.0072  0.2294 -0.4667
  103MOL    O5524739   3.677   0.217   4.378 -0.3019 -0.6749 -0.7635
  103MOL    H5624740   3.413   0.239   3.997 -1.4423 -0.3255 -0.4912
  103MOL    H5724741   3.277   0.189   4.099  0.7127  0.6971  0.3873
  103MOL    H5824742   3.443   0.150   4.278 -0.1661 -1.4642 -0.8325
  103MOL    H5924743   3.859   0.165   4.171  0.3569 -0.0031  1.0545
  103MOL    H6024744   3.887   0.312   4.269 -0.1623  1.9831 -1.3964
  103MOL    H6124745   3.828   0.323   4.102  0.1100 -1.0149 -1.2416
  103MOL    C6224746   3.390   0.358   4.266 -0.1643 -0.1318  0.7293
  103MOL    C6324747   3.253   0.341   4.330  0.3341  0.1938  0.1784
  103MOL    O6424748   3.253   0.231   4.422  0.2065 -0.4536  0.1563
  103MOL    C6524749   3.182   0.124   4.402 -0.8695 -0.1772  0.4359
  103MOL    C6624750   3.212   0.015   4.504  0.5210  0.2597 -0.5377
  103MOL    O6724751   3.096   0.110   4.319 -0.1727  0.4647 -0.0762
  103MOL    H6824752   3.458   0.395   4.344  0.6121 -1.3546  0.6505
  103MOL    H6924753   3.378   0.437   4.193 -0.6738 -1.5913 -0.7802
  103MOL    H7024754   3.181   0.326   4.249  2.5235 -0.8294 -1.6151
  103MOL    H7124755   3.306   0.030   4.557  1.0776 -2.1504 -0.8082
  103MOL    H7224756   3.227   7.945   4.447  0.5339 -0.6050  0.8355
  103MOL    H7324757   3.118   0.001   4.558  1.1071  1.9038  0.9836
  103MOL    C7424758   3.203   0.465   4.391 -0.3042 -0.3346 -0.4982
  103MOL    C7524759   3.059   0.472   4.427  0.5588 -0.0772  0.1813
  103MOL    O7624760   3.046   0.410   4.553  0.5169  0.1562 -0.5268
  103MOL    C7724761   2.951   0.314   4.574 -0.6137 -0.7705 -0.2056
  103MOL    C7824762   2.955   0.259   4.717 -0.0048 -0.0947  0.3464
  103MOL    O7924763   2.872   0.274   4.490  0.2203  0.0895 -0.4254
  103MOL    H8024764   3.278   0.505   4.459  0.8216 -2.9964 -0.1235
  103MOL    H8124765   3.211   0.542   4.314 -0.3959 -0.4052 -0.5779
  103MOL    H8224766   3.006   0.422   4.346 -1.5832  1.8829  0.3124
  103MOL    H8324767   3.044   0.297   4.766 -0.0178  0.2485  0.0955
  103MOL    H8424768   2.961   0.150   4.713 -0.4066 -0.2138  2.1193
  103MOL    H8524769   2.862   0.297   4.760 -0.7891  1.6472 -2.7972
  103MOL    C8624770   2.994   0.617   4.427  0.5927  0.1319 -0.1620
  103MOL    C8724771   2.840   0.608   4.445  0.5952  0.0280 -0.4004
  103MOL    O8824772   2.793   0.741   4.477  0.3669  0.2405  0.1217
  103MOL    C8924773   2.708   0.760   4.588 -0.1918 -0.0242  0.4323
  103MOL    C9024774   2.640   0.898   4.578  0.3524 -0.4861 -0.7190
  103MOL    O9124775   2.669   0.673   4.664  0.0016  0.4144 -0.2684
  103MOL    H9224776   3.048   0.680   4.498  1.5281 -0.3747 -0.4049
  103MOL    H9324777   3.014   0.663   4.330  0.2290 -1.7907 -1.1722
  103MOL    H9424778   2.828   0.541   4.529 -2.8873 -1.2042 -1.7833
  103MOL    H9524779   2.597   0.903   4.478  0.0639  2.0407 -0.4914
  103MOL    H9624780   2.714   0.974   4.602 -1.7319  1.9150 -1.7340
  103MOL    H9724781   2.556   0.906   4.648  0.2507 -1.3481 -0.7364
  103MOL    C9824782   2.771   0.539   4.323  0.4137  0.0963 -0.5228
  103MOL    C9924783   2.619   0.545   4.336  0.0724 -0.5019 -0.3102
  103MOL   O10024784   2.565   0.516   4.209 -0.7482  0.3576  0.4302
  103MOL   C10124785   2.511   0.611   4.134 -0.1210 -0.4911  0.1407
  103MOL   C10224786   2.514   0.578   3.984  0.8133  0.3839 -0.2115
  103MOL   O10324787   2.473   0.721   4.171  0.3912 -0.3946  0.2459
  103MOL   H10424788   2.800   0.583   4.227  2.3837 -0.2213 -0.1093
  103MOL   H10524789   2.798   0.433   4.328 -0.0929  0.0311  0.9316
  103MOL   H10624790   2.588   0.644   4.368  1.5094 -0.5682  1.3543
  103MOL   H10724791   2.499   0.472   3.963 -0.1765  0.6051 -0.6406
  103MOL   H10824792   2.617   0.600   3.955  0.9730 -0.8856 -0.6517
  103MOL   H10924793   2.436   0.635   3.934  1.5975  0.2051 -1.6788
  103MOL   C11024794   2.553   0.443   4.436 -0.5317  0.3633 -0.4721
  103MOL   C11124795   2.395   0.455   4.438  0.5617  0.0639 -0.1324
  103MOL   O11224796   2.344   0.331   4.486 -0.0021 -0.2096  0.0145
  103MOL   C11324797   2.259   0.264   4.405 -0.2372 -0.0971 -0.4670
  103MOL   C11424798   2.237   0.124   4.462  0.3609 -0.2915 -0.5748
  103MOL   O11524799   2.211   0.299   4.296  0.0802 -0.3874  0.5329
  103MOL   H11624800   2.578   0.344   4.398 -0.2641  0.2194  0.0731
  103MOL   H11724801   2.597   0.448   4.536  1.4478 -1.8210 -1.1880
  103MOL   H11824802   2.372   0.491   4.338 -0.1132 -0.6269 -0.2217
  103MOL   H11924803   2.333   0.075   4.480 -0.5151 -1.8730 -0.0842
  103MOL   H12024804   2.180   0.062   4.393  0.7201  0.1229 -1.2409
  103MOL   H12124805   2.189   0.136   4.559 -3.3559 -0.7541 -2.2944
  103MOL   C12224806   2.350   0.572   4.537  0.2925  0.6345 -0.5224
  103MOL   C12324807   2.196   0.595   4.527  0.0346  0.8276 -0.0522
  103MOL   O12424808   2.178   0.700   4.619 -0.8495  0.1137  0.0282
  103MOL   C12524809   2.108   0.679   4.732 -0.6571  0.1945 -0.2909
  103MOL   C12624810   2.116   0.800   4.827 -0.6394 -0.3252 -0.3900
  103MOL   O12724811   2.043   0.580   4.770  0.9674 -0.3915 -0.6680
  103MOL   H12824812   2.379   0.566   4.642 -2.3379 -1.2705  0.1540
  103MOL   H12924813   2.396   0.666   4.508  0.8411  0.8157  0.9332
  103MOL   H13024814   2.136   0.510   4.559 -1.7195  1.9955 -0.1361
  103MOL   H13124815   2.011   0.821   4.851 -0.2273  0.6816  0.5998
  103MOL   H13224816   2.159   0.891   4.787 -0.1154 -0.5082 -0.2371
  103MOL   H13324817   2.159   0.772   4.924 -0.7706 -2.4689 -0.9182
  103MOL   C13424818   2.142   0.658   4.388 -0.3084 -0.0813  0.4635
  103MOL   C13524819   1.990   0.676   4.374  0.0541 -0.3903 -0.2543
  103MOL   O13624820   1.971   0.756   4.255  0.2151 -0.6610 -0.2416
  103MOL   C13724821   1.954   0.890   4.253 -0.0933  0.2640  0.3101
  103MOL   C13824822   1.973   0.933   4.109 -0.4634  0.0877  1.0572
  103MOL   O13924823   1.947   0.961   4.352 -0.2660 -0.3928  0.4065
  103MOL   H14024824   2.180   0.758   4.369  0.0541  0.0163  1.6251
  103MOL   H14124825   2.173   0.597   4.304 -0.1295  0.8218 -0.1315
  103MOL   H14224826   1.953   0.737   4.457 -1.6815 -1.1015 -0.4907
  103MOL   H14324827   2.071   0.981   4.107 -1.1030  1.4042  1.0314
  103MOL   H14424828   1.901   1.005   4.071 -0.8707 -1.5756 -1.3984
  103MOL   H14524829   1.958   0.845   4.047  1.4009  1.0080 -0.7738
  103MOL   C14624830   1.925   0.536   4.363  0.1712  0.0171  0.2632
  103MOL   C14724831   1.769   0.544   4.394  0.1867  0.9798  0.3669
  103MOL   O14824832   1.702   0.448   4.313  0.2129 -0.1295  0.2327
  103MOL   C14924833   1.674   0.474   4.181  0.2679 -0.0025  0.1217
  103MOL   C15024834   1.576   0.361   4.128  0.4435 -0.5830  1.0131
  103MOL   O15124835   1.710   0.570   4.113  0.0308 -0.2207  0.0753
  103MOL   H15224836   1.944   0.507   4.260  2.3407 -1.0798  0.9255
  103MOL   H15324837   1.969   0.462   4.430 -0.3084 -0.6546 -0.1566
  103MOL   H15424838   1.734   0.637   4.350 -2.5921 -0.5844 -0.8800
  103MOL   H15524839   1.599   0.268   4.180  1.7240 -0.0087  1.4930
  103MOL   H15624840   1.583   0.348   4.020 -1.1839  0.3242  0.7835
  103MOL   H15724841   1.482   0.403   4.163 -0.0190 -0.9680  0.2575
  103MOL   C15824842   1.734   0.533   4.540 -0.2521  0.5591 -0.1384
  103MOL   C15924843   1.643   0.644   4.597  0.5591 -0.2645  0.5184
  103MOL   O16024844   1.711   0.767   4.580  0.6414  0.4328  0.1235
  103MOL   C16124845   1.680   0.864   4.675 -0.1031  0.2386 -0.5218
  103MOL   C16224846   1.744   0.990   4.645 -0.2522  0.0487  0.1564
  103MOL   O16324847   1.607   0.846   4.772 -0.0705 -0.1519  0.0666
  103MOL   H16424848   1.692   0.436   4.566  2.4538 -0.9142 -0.9982
  103MOL   H16524849   1.827   0.523   4.595  0.8075 -0.5935 -2.1051
  103MOL   H16624850   1.633   0.612   4.701  0.5987 -3.5940 -0.4432
  103MOL   H16724851   1.839   0.976   4.594 -1.6022 -2.2999 -1.7815
  103MOL   H16824852   1.763   1.042   4.739 -2.2454 -0.3724  0.8262
  103MOL   H16924853   1.664   1.040   4.589  0.7882  0.4681 -0.9780
  103MOL   C17024854   1.509   0.655   4.522 -0.6741 -0.1707 -0.4670
  103MOL   C17124855   1.417   0.528   4.538 -0.2303 -0.3284  0.0565
  103MOL   O17224856   1.324   0.543   4.639  0.5718 -0.5356  0.0581
  103MOL   C17324857   1.291   0.445   4.720  0.6068 -0.8417  0.4514
  103MOL   C17424858   1.170   0.474   4.807 -0.3384  0.1040  0.5260
  103MOL   O17524859   1.350   0.338   4.725  0.0093 -0.0521 -0.4547
  103MOL   H17624860   1.455   0.739   4.567  0.9587 -0.3253  1.8778
  103MOL   H17724861   1.534   0.673   4.417 -2.5770 -0.5004 -0.9816
  103MOL   H17824862   1.474   0.435   4.551 -2.1784 -1.5345  0.1964
  103MOL   H17924863   1.146   0.374   4.844 -0.1438  0.6121  2.0527
  103MOL   H18024864   1.100   0.505   4.729  2.0536 -0.0002 -1.7382
  103MOL   H18124865   1.181   0.544   4.890  1.2466  3.0124 -2.0366
  103MOL   C18224866   1.338   0.488   4.403 -0.0486 -0.4728 -0.1670
  103MOL   C18324867   1.265   0.602   4.320  0.0763 -0.1582  0.2117
  103MOL   O18424868   1.217   0.545   4.205  0.0445 -0.1024 -0.3167
  103MOL   C18524869   1.281   0.554   4.092  0.4510  0.5355 -0.5146
  103MOL   C18624870   1.197   0.491   3.978  0.1697 -0.0780 -0.4704
  103MOL   O18724871   1.387   0.609   4.074 -0.0273  0.3471  0.2177
  103MOL   H18824872   1.420   0.442   4.346  2.7534 -0.2819  3.5324
  103MOL   H18924873   1.266   0.408   4.414 -1.2134  0.6852  0.7103
  103MOL   H19024874   1.328   0.689   4.300 -0.2587  0.1851  0.6381
  103MOL   H19124875   1.163   0.390   4.000  0.1695 -0.1105 -0.6245
  103MOL   H19224876   1.261   0.500   3.890  0.0944 -0.9356 -0.6214
  103MOL   H19324877   1.110   0.554   3.960 -1.0030 -0.8668  2.1877
  103MOL   C19424878   1.148   0.649   4.405  0.5916  0.0796 -0.7301
  103MOL   C19524879   1.058   0.752   4.334 -0.0227 -0.2428  0.0897
  103MOL   O19624880   0.979   0.685   4.245 -0.3104 -0.8408  0.5758
  103MOL   C19724881   0.945   0.744   4.133 -0.7967 -0.2133 -0.2472
  103MOL   C19824882   0.855   0.651   4.047 -0.7905  0.1325  0.2714
  103MOL   O19924883   0.956   0.863   4.099 -0.3607 -0.0030  0.6688
  103MOL   H20024884   1.083   0.563   4.417  0.7791  0.2976  2.2241
  103MOL   H20124885   1.183   0.681   4.503  0.0836 -2.7164  0.4031
  103MOL   H20224886   1.124   0.822   4.283 -0.7324  0.6079  0.3252
  103MOL   H20324887   0.848   0.560   4.107  0.0514 -0.4528 -0.5035
  103MOL   H20424888   0.896   0.626   3.949  0.4748  2.2128  0.2485
  103MOL   H20524889   0.750   0.677   4.032 -0.7753 -0.1519 -0.3503
  103MOL   C20624890   0.975   0.824   4.435 -0.0103  0.1162  0.0882
  103MOL   C20724891   0.901   0.755   4.547 -0.1552 -0.9965  0.7095
  103MOL   O20824892   0.872   0.866   4.635  0.6083  0.4988 -0.0877
  103MOL   C20924893   0.911   0.859   4.762 -0.1349 -0.3490 -0.0103
  103MOL   C21024894   0.920   1.002   4.817 -0.4842  0.7676  0.5995
  103MOL   O21124895   0.958   0.765   4.829 -0.0525  0.2728  0.0299
  103MOL   H21224896   1.049   0.890   4.480  2.3881 -1.3338 -1.6174
  103MOL   H21324897   0.913   0.896   4.382  0.2948  1.1849  1.1533
  103MOL   H21424898   0.960   0.682   4.602  1.8388 -0.6846 -0.9537
  103MOL   H21524899   1.021   1.042   4.819 -0.0425 -0.0738 -2.2886
  103MOL   H21624900   0.880   1.003   4.918  2.6010  1.3457  1.8588
  103MOL   H21724901   0.854   1.067   4.760 -0.9152  0.4811  0.7663
  103MOL   C21824902   0.777   0.677   4.515 -0.1120  0.3447  0.0257
  103MOL   C21924903   0.711   0.605   4.635  0.3116 -0.1292  0.5986
  103MOL   O22024904   0.576   0.566   4.598 -0.2090  0.3367  0.2532
  103MOL   C22124905   0.475   0.656   4.625  0.2142  0.2015  0.2900
  103MOL   C22224906   0.336   0.603   4.599 -0.1973  0.1774  0.0422
  103MOL   O22324907   0.496   0.769   4.669 -0.1777  0.3592  0.0662
  103MOL   H22424908   0.701   0.746   4.479 -1.0879  0.5421  2.3901
  103MOL   H22524909   0.805   0.610   4.434  0.5959  0.3870  0.2318
  103MOL   H22624910   0.705   0.669   4.724 -0.9138  1.6987 -0.7639
  103MOL   H22724911   0.310   0.530   4.676 -0.2409  0.0885 -0.0569
  103MOL   H22824912   0.323   0.567   4.497 -0.8589 -0.0040  0.1837
  103MOL   H22924913   0.265   0.684   4.617  0.1326  0.8508 -1.6332
  103MOL   C23024914   0.789   0.479   4.680 -0.5223  0.3691  0.2358
  103MOL   C23124915   0.820   0.367   4.576  0.1071  0.2749  0.6209
  103MOL   O23224916   0.919   0.275   4.625 -0.3196  0.4137  0.0636
  103MOL   C23324917   0.981   0.204   4.533  0.5181  0.3292 -0.0111
  103MOL   C23424918   1.059   0.094   4.592 -0.1324 -0.4468 -0.1636
  103MOL   O23524919   0.977   0.221   4.409  0.2108 -0.2544 -0.4076
  103MOL   H23624920   0.878   0.508   4.736  0.0415 -1.0993  0.1075
  103MOL   H23724921   0.729   0.422   4.751  0.8444 -0.8327  0.4276
  103MOL   H23824922   0.870   0.424   4.497 -2.0484 -0.4212 -1.2954
  103MOL   H23924923   1.090   0.014   4.524 -1.2128 -1.0115 -0.0066
  103MOL   H24024924   1.007   0.052   4.677  0.7804  2.1709  1.7507
  103MOL   H24124925   1.151   0.142   4.625  0.4011  1.0040 -3.4779
  103MOL   H24224926   0.721   0.329   4.552 -0.9049  3.1808 -0.0347
  104MOL     C124927   7.395   7.315   2.170 -1.2931  0.2326  0.1141
  104MOL     C224928   7.310   7.376   2.278 -0.2694  0.8197 -0.1702
  104MOL     O324929   7.396   7.445   2.361  0.4337 -0.7118 -0.1363
  104MOL     C424930   7.388   7.430   2.498 -0.4190 -0.7093  0.4643
  104MOL     C524931   7.478   7.523   2.572 -0.3687 -0.3116  0.1311
  104MOL     O624932   7.313   7.355   2.559 -0.0732 -0.0320  0.3587
  104MOL     H724933   7.340   7.257   2.096  0.5152  2.2652 -2.9024
  104MOL     H824934   7.462   7.236   2.205 -0.5221  0.1339 -1.5646
  104MOL     H924935   7.263   7.295   2.334  3.5294 -1.3597  0.0185
  104MOL    H1024936   7.565   7.527   2.507 -0.2159 -1.0906  0.2869
  104MOL    H1124937   7.516   7.491   2.669  1.1834  1.4139  0.1173
  104MOL    H1224938   7.435   7.623   2.577 -2.3236 -0.9776 -2.4033
  104MOL    H1324939   7.452   7.393   2.121  2.1880 -2.2417  0.0171
  104MOL    C1424940   7.203   7.463   2.214  0.4123  0.5213 -0.0519
  104MOL    C1524941   7.086   7.488   2.311 -0.3409 -0.7135  0.4816
  104MOL    O1624942   7.009   7.589   2.245 -0.1888 -0.1350 -0.1799
  104MOL    C1724943   7.015   7.715   2.290  0.4700 -1.0742 -0.0669
  104MOL    C1824944   6.997   7.815   2.173  0.0119  1.2150 -0.9635
  104MOL    O1924945   7.051   7.756   2.398  0.7268  0.6046  0.3809
  104MOL    H2024946   7.243   7.558   2.180  1.0555  1.0205  2.0148
  104MOL    H2124947   7.165   7.414   2.124  1.2699 -2.6816  1.2534
  104MOL    H2224948   7.139   7.526   2.398  0.7192 -2.1680  0.4989
  104MOL    H2324949   7.083   7.880   2.153  2.1308 -0.6522  1.7035
  104MOL    H2424950   6.910   7.876   2.197 -0.3156  0.7457 -0.9601
  104MOL    H2524951   6.966   7.764   2.082  0.2382 -1.1558  0.2506
  104MOL    C2624952   6.994   7.365   2.333  0.8061 -0.1244 -0.1484
  104MOL    C2724953   6.971   7.319   2.480 -0.9090 -0.5517 -0.1369
  104MOL    O2824954   6.914   7.426   2.552 -0.2761 -0.0361 -0.3429
  104MOL    C2924955   6.920   7.438   2.684  0.0996  0.0781 -0.5144
  104MOL    C3024956   6.868   7.574   2.729 -0.1017 -0.4176 -0.2884
  104MOL    O3124957   6.972   7.361   2.764  0.1450 -0.6340 -0.0324
  104MOL    H3224958   6.897   7.391   2.290  0.4801  2.1092  1.8064
  104MOL    H3324959   7.026   7.292   2.259  2.5132  0.1243  0.3278
  104MOL    H3424960   7.068   7.300   2.527  0.5008  2.3900 -1.6768
  104MOL    H3524961   6.785   7.611   2.668  0.0338  1.4499  0.6291
  104MOL    H3624962   6.942   7.650   2.703  0.4874 -1.3579 -1.4223
  104MOL    H3724963   6.843   7.578   2.835  1.3432  0.8598  0.0260
  104MOL    C3824964   6.883   7.189   2.486 -0.7409 -0.0770 -0.1975
  104MOL    C3924965   6.933   7.070   2.399 -0.3274 -0.0587  0.2127
  104MOL    O4024966   7.066   7.050   2.439  0.6385  0.0378  0.2356
  104MOL    C4124967   7.160   7.028   2.347 -0.7483  0.3294  0.6525
  104MOL    C4224968   7.291   6.988   2.406 -0.3494  0.5949  0.5600
  104MOL    O4324969   7.135   7.035   2.225 -0.5666 -0.5765 -0.0213
  104MOL    H4424970   6.881   7.170   2.593 -0.4011 -0.3241 -0.2350
  104MOL    H4524971   6.779   7.208   2.458 -0.9897 -0.3142  0.5615
  104MOL    H4624972   6.923   7.100   2.295 -0.4986  0.0261  0.2517
  104MOL    H4724973   7.346   7.082   2.409  1.7092 -0.6005  1.6525
  104MOL    H4824974   7.341   6.909   2.348 -3.0653 -0.5366 -0.3010
  104MOL    H4924975   7.266   6.943   2.502  1.2385  0.8493  1.1147
  104MOL    C5024976   6.857   6.940   2.410  0.3047  0.1587  0.3310
  104MOL    C5124977   6.710   6.959   2.374 -0.6387 -0.6388 -0.0305
  104MOL    O5224978   6.698   6.955   2.229  0.7870  0.4835 -0.1410
  104MOL    C5324979   6.661   7.059   2.164  0.6174 -0.1104  0.1096
  104MOL    C5424980   6.664   7.025   2.010  0.4765  0.3201 -0.1949
  104MOL    O5524981   6.619   7.162   2.206 -0.5095  0.3322 -0.4320
  104MOL    H5624982   6.907   6.865   2.349  1.5028  0.1765  1.2570
  104MOL    H5724983   6.869   6.909   2.514 -1.6551  0.5552  0.6996
  104MOL    H5824984   6.671   7.054   2.411  1.1075  0.3558 -0.6961
  104MOL    H5924985   6.736   7.078   1.947  1.2026 -1.2375 -0.6974
  104MOL    H6024986   6.566   7.047   1.969  1.2465  2.0352 -1.2002
  104MOL    H6124987   6.682   6.918   2.000 -1.8870 -0.1963  0.8841
  104MOL    C6224988   6.619   6.849   2.438 -0.4896  0.8759 -0.3899
  104MOL    C6324989   6.471   6.876   2.434  0.0419  0.8509 -0.8068
  104MOL    O6424990   6.410   6.765   2.496 -0.5586 -0.2365 -0.4414
  104MOL    C6524991   6.312   6.685   2.448 -1.0823 -0.3201  0.0504
  104MOL    C6624992   6.276   6.574   2.549 -0.1673 -0.5052  0.1084
  104MOL    O6724993   6.266   6.683   2.337  0.1515 -0.1707 -0.2886
  104MOL    H6824994   6.644   6.755   2.390 -1.1792  0.7274 -0.4596
  104MOL    H6924995   6.642   6.840   2.544  1.6528 -2.4487 -1.0627
  104MOL    H7024996   6.435   6.877   2.331 -0.0137  2.2553 -0.7922
  104MOL    H7124997   6.368   6.538   2.596  0.2118  1.2214  0.7018
  104MOL    H7224998   6.228   6.497   2.488 -0.1567 -0.2097 -0.2779
  104MOL    H7324999   6.208   6.598   2.631 -1.3947  1.8276 -1.5599
  104MOL    C7425000   6.431   7.001   2.522 -0.4287  0.2928  0.3644
  104MOL    C7525001   6.281   7.010   2.561  0.4231 -0.6214  0.3312
  104MOL    O7625002   6.249   7.112   2.659 -0.0352 -0.2968 -0.0837
  104MOL    C7725003   6.177   7.081   2.773  0.0673  0.0454 -0.4295
  104MOL    C7825004   6.150   7.194   2.869  0.3594 -0.3402 -0.3116
  104MOL    O7925005   6.163   6.966   2.816  0.8098 -0.2489 -0.7243
  104MOL    H8025006   6.487   6.971   2.610  1.6813 -0.3747 -1.1501
  104MOL    H8125007   6.477   7.091   2.481  0.4302 -1.7382 -3.4384
  104MOL    H8225008   6.259   6.911   2.601 -3.0607  0.2885  0.8751
  104MOL    H8325009   6.238   7.251   2.897  0.6065  0.1263 -1.9661
  104MOL    H8425010   6.103   7.168   2.964  0.2136 -0.6221 -0.4596
  104MOL    H8525011   6.088   7.265   2.815  0.1938  1.5158  2.2670
  104MOL    C8625012   6.187   7.031   2.442 -0.1177 -0.7606 -0.0314
  104MOL    C8725013   6.230   7.150   2.352  0.3978  0.5279 -0.9655
  104MOL    O8825014   6.169   7.137   2.229 -0.1044  0.0812  0.2598
  104MOL    C8925015   6.229   7.072   2.124  0.4245 -0.8164  0.2177
  104MOL    C9025016   6.141   7.074   1.999  0.3894 -0.4303 -0.0715
  104MOL    O9125017   6.346   7.029   2.122 -0.0587 -0.0450  0.7905
  104MOL    H9225018   6.203   6.937   2.390 -0.0133 -1.1812  0.7690
  104MOL    H9325019   6.078   7.031   2.453 -0.1501 -1.2565 -0.3280
  104MOL    H9425020   6.337   7.139   2.336  0.2931 -2.4758  0.2642
  104MOL    H9525021   6.202   7.053   1.911  1.3014  1.1145  0.1632
  104MOL    H9625022   6.098   7.173   1.984 -1.3587 -1.3941 -1.6553
  104MOL    H9725023   6.058   7.004   1.999  0.0017  0.0244  0.2063
  104MOL    C9825024   6.204   7.296   2.407  0.2017  0.9653 -0.7151
  104MOL    C9925025   6.235   7.403   2.298 -0.7832  0.3083 -0.2870
  104MOL   O10025026   6.205   7.534   2.347 -0.5025 -0.0680 -0.4253
  104MOL   C10125027   6.164   7.631   2.272  0.3872  0.0679 -0.1284
  104MOL   C10225028   6.164   7.758   2.353 -0.1660  0.4024 -0.1212
  104MOL   O10325029   6.141   7.629   2.148  0.4669  0.2586 -0.1436
  104MOL   H10425030   6.096   7.287   2.425  0.0348 -0.9069 -2.4848
  104MOL   H10525031   6.260   7.311   2.499 -1.2422 -3.4849  1.0413
  104MOL   H10625032   6.174   7.399   2.208  1.1203 -3.6604 -1.4848
  104MOL   H10725033   6.180   7.736   2.459  1.3457  0.4451 -0.3349
  104MOL   H10825034   6.063   7.797   2.341 -1.0051 -1.5088  0.5754
  104MOL   H10925035   6.231   7.829   2.305  0.1217 -0.7551 -1.4585
  104MOL   C11025036   6.374   7.404   2.239 -0.6851 -0.4081 -0.4550
  104MOL   C11125037   6.494   7.457   2.320 -0.3329  0.4118 -0.0613
  104MOL   O11225038   6.531   7.379   2.432  0.0752 -0.3015 -0.0704
  104MOL   C11325039   6.527   7.427   2.559 -0.6273  0.5498 -0.4026
  104MOL   C11425040   6.563   7.320   2.661 -0.0964  0.1570 -0.1830
  104MOL   O11525041   6.525   7.546   2.597 -0.3147  0.7231 -0.2162
  104MOL   H11625042   6.400   7.309   2.194 -1.7335  0.1273 -2.2627
  104MOL   H11725043   6.356   7.455   2.144  0.9236 -0.6453 -0.9037
  104MOL   H11825044   6.456   7.555   2.350  1.1901  1.3217 -1.0442
  104MOL   H11925045   6.640   7.344   2.734  1.5741 -1.6757 -1.3003
  104MOL   H12025046   6.599   7.233   2.605 -0.3134  0.2113 -0.4069
  104MOL   H12125047   6.472   7.289   2.714 -1.0661  0.7562 -1.4645
  104MOL   C12225048   6.621   7.486   2.237  0.0069 -0.7939 -0.4049
  104MOL   C12325049   6.615   7.620   2.159  0.1440 -1.5590  0.3855
  104MOL   O12425050   6.663   7.721   2.246 -0.2096 -0.2442  0.1266
  104MOL   C12525051   6.586   7.817   2.287  0.1104  0.1799  0.0272
  104MOL   C12625052   6.658   7.913   2.384 -0.9593 -0.1812 -0.4994
  104MOL   O12725053   6.470   7.842   2.236  0.4548 -0.4332  0.1011
  104MOL   H12825054   6.719   7.490   2.283 -0.8796  0.0253  1.4896
  104MOL   H12925055   6.637   7.409   2.162 -0.3217 -0.7199 -0.5527
  104MOL   H13025056   6.510   7.645   2.142  0.6603  1.2434  1.0296
  104MOL   H13125057   6.766   7.917   2.370 -0.3431 -2.1726  3.1291
  104MOL   H13225058   6.642   7.883   2.487  2.8303 -1.3257 -0.1548
  104MOL   H13325059   6.619   8.014   2.371  3.3820  1.2746 -3.4246
  104MOL   C13425060   6.697   7.624   2.026  0.4437 -0.5259  0.4044
  104MOL   C13525061   6.657   7.523   1.918 -0.7351 -0.7032  0.2091
  104MOL   O13625062   6.517   7.543   1.894  0.0743  0.0498 -0.2380
  104MOL   C13725063   6.438   7.445   1.879 -0.1892 -0.1189  0.5931
  104MOL   C13825064   6.290   7.480   1.866 -0.7994 -0.2952 -0.6006
  104MOL   O13925065   6.482   7.333   1.857 -0.0018  0.3609 -0.2318
  104MOL   H14025066   6.718   7.726   1.995  1.8873 -1.0367 -0.3507
  104MOL   H14125067   6.797   7.601   2.063  0.5796  0.7415  0.8233
  104MOL   H14225068   6.677   7.418   1.938  0.1578 -0.7255 -0.7564
  104MOL   H14325069   6.285   7.583   1.832  1.5878  0.2682  0.6555
  104MOL   H14425070   6.251   7.465   1.966 -2.1650 -0.1883 -1.1110
  104MOL   H14525071   6.234   7.421   1.793 -2.6600  1.5052 -0.6737
  104MOL   C14625072   6.734   7.566   1.788 -0.4038 -0.5341  0.3691
  104MOL   C14725073   6.887   7.543   1.788 -0.1978 -0.5027 -0.2209
  104MOL   O14825074   6.917   7.403   1.803  0.4373  0.1480 -0.0138
  104MOL   C14925075   6.960   7.350   1.918  0.1026 -0.0097 -0.6289
  104MOL   C15025076   7.017   7.211   1.915  0.5528  0.1967  0.2350
  104MOL   O15125077   6.955   7.414   2.020 -0.1197  0.4687 -0.2524
  104MOL   H15225078   6.688   7.507   1.709 -1.1298  0.6011 -0.0781
  104MOL   H15325079   6.711   7.668   1.756  2.3878 -0.3058 -1.0605
  104MOL   H15425080   6.931   7.596   1.872  1.4464 -1.7596 -0.2650
  104MOL   H15525081   6.965   7.139   1.851  2.0534 -1.0233  0.3728
  104MOL   H15625082   7.017   7.165   2.013  2.1322 -1.2791 -0.4382
  104MOL   H15725083   7.123   7.210   1.890  0.3047 -3.3976 -0.8571
  104MOL   C15825084   6.946   7.592   1.658  0.0858  0.0284  0.5757
  104MOL   C15925085   7.095   7.555   1.640  0.5951 -0.6856 -0.3831
  104MOL   O16025086   7.104   7.429   1.579 -0.1942  0.1261  0.6194
  104MOL   C16125087   7.199   7.338   1.618  0.2818 -0.1794 -0.7105
  104MOL   C16225088   7.192   7.208   1.534 -0.8317 -0.4383 -0.2564
  104MOL   O16325089   7.296   7.354   1.696  0.0013 -0.3373 -0.3475
  104MOL   H16425090   6.886   7.556   1.574 -0.9621 -0.4538  1.5146
  104MOL   H16525091   6.926   7.699   1.663  0.0112  0.1066 -1.1479
  104MOL   H16625092   7.137   7.550   1.740 -0.9515  0.9741  0.3742
  104MOL   H16725093   7.278   7.200   1.468 -0.0389  1.8871  0.4497
  104MOL   H16825094   7.106   7.219   1.467 -1.0585 -0.3478  0.0464
  104MOL   H16925095   7.195   7.118   1.596  1.1941 -0.2922 -0.1038
  104MOL   C17025096   7.177   7.655   1.558 -0.2489  0.3687 -0.5614
  104MOL   C17125097   7.262   7.756   1.640 -0.4168  0.1438  0.0712
  104MOL   O17225098   7.200   7.802   1.759  0.1755  0.5961 -0.1694
  104MOL   C17325099   7.144   7.923   1.753 -0.2362 -0.0673 -0.2028
  104MOL   C17425100   7.043   7.960   1.860 -0.5943 -0.1898 -0.3300
  104MOL   O17525101   7.171   8.013   1.670  0.2872 -0.0233 -0.2176
  104MOL   H17625102   7.228   7.608   1.474  0.2294  0.4364 -0.3103
  104MOL   H17725103   7.108   7.714   1.499  2.0958  1.6242 -2.1409
  104MOL   H17825104   7.267   7.844   1.576  0.9359  0.6751  0.8812
  104MOL   H17925105   6.964   7.884   1.865 -1.3387  0.5480 -0.7685
  104MOL   H18025106   6.997   0.032   1.831  1.4236  0.8479 -0.2827
  104MOL   H18125107   7.085   7.985   1.957  2.0195 -0.7772 -1.2682
  104MOL   C18225108   7.406   7.709   1.678 -0.3535  0.2323 -0.0622
  104MOL   C18325109   7.511   7.703   1.560  0.3711 -0.3299 -0.3897
  104MOL   O18425110   7.524   7.825   1.489  0.5610  0.1255  1.1672
  104MOL   C18525111   7.451   7.859   1.378  0.2115 -0.5060 -0.0000
  104MOL   C18625112   7.496   7.981   1.309  0.7121  0.1750 -0.3578
  104MOL   O18725113   7.359   7.792   1.342  0.1723 -0.1640 -0.0361
  104MOL   H18825114   7.452   7.771   1.755  0.6841 -0.9184  0.2778
  104MOL   H18925115   7.385   7.609   1.716 -1.5294  0.6359  0.3401
  104MOL   H19025116   7.473   7.625   1.492 -0.9983 -0.7497  0.8262
  104MOL   H19125117   7.498   0.047   1.374 -2.9815 -1.6359  2.3435
  104MOL   H19225118   7.430   8.017   1.231  1.1909  0.5820 -0.5811
  104MOL   H19325119   7.593   7.982   1.258  1.3046  2.2609  0.7526
  104MOL   C19425120   7.655   7.677   1.604 -0.0543  0.0947  0.2102
  104MOL   C19525121   7.684   7.544   1.681 -0.5081  0.5708  0.1726
  104MOL   O19625122   7.642   7.426   1.613 -0.0989  0.3791  0.2881
  104MOL   C19725123   7.628   7.311   1.677 -0.0150 -0.2640  0.8696
  104MOL   C19825124   7.612   7.202   1.574  0.2758  0.1876 -0.1241
  104MOL   O19925125   7.633   7.293   1.796 -0.6894 -0.0976 -0.4613
  104MOL   H20025126   7.710   7.674   1.510 -2.2352  1.0758 -1.1298
  104MOL   H20125127   7.685   7.756   1.673  1.2709 -0.6919  0.5666
  104MOL   H20225128   7.627   7.533   1.773 -1.2099 -2.0473 -0.5306
  104MOL   H20325129   7.569   7.244   1.483 -0.7156  1.3839  0.8678
  104MOL   H20425130   7.538   7.126   1.601  0.1339  1.0485  1.9351
  104MOL   H20525131   7.706   7.148   1.564  1.2192  1.5651  1.1307
  104MOL   C20625132   7.837   7.533   1.704  0.5653 -0.1489 -0.0302
  104MOL   C20725133   7.889   7.634   1.810 -0.3635 -0.1081 -0.1434
  104MOL   O20825134   7.848   7.603   1.943  0.0855  0.8950  0.6361
  104MOL   C20925135   7.725   7.649   1.989  0.8335 -0.2159  0.0837
  104MOL   C21025136   7.691   7.574   2.118 -0.2845  0.0876  0.2621
  104MOL   O21125137   7.637   7.714   1.926  0.2058  0.2188  0.4628
  104MOL   H21225138   7.877   7.438   1.741 -0.1541 -1.2313 -1.9768
  104MOL   H21325139   7.883   7.563   1.611  2.2711 -0.1394  0.7975
  104MOL   H21425140   7.851   7.732   1.780 -0.3886  0.2095  0.9114
  104MOL   H21525141   7.650   7.635   2.198 -1.2007  2.1559 -1.6993
  104MOL   H21625142   7.791   7.545   2.149 -1.0538 -1.4868  1.3346
  104MOL   H21725143   7.634   7.482   2.106  2.1974 -1.7544  2.2540
  104MOL   C21825144   0.023   7.643   1.813 -0.6023 -0.0434 -0.5783
  104MOL   C21925145   0.067   7.787   1.845  0.3947 -0.3690 -0.1602
  104MOL   O22025146   0.021   7.823   1.975  0.6710  0.0063 -0.0558
  104MOL   C22125147   7.999   7.953   1.997 -0.1182  0.0503 -0.0228
  104MOL   C22225148   7.977   7.975   2.153  0.6547  0.4549  0.7858
  104MOL   O22325149   7.981   0.023   1.911 -0.3607  0.5572 -0.1826
  104MOL   H22425150   0.073   7.582   1.889 -0.4990  3.7552  2.5857
  104MOL   H22525151   0.062   7.607   1.718 -0.5414 -3.0597  0.5497
  104MOL   H22625152   0.021   7.849   1.768 -0.7622  0.0880  0.8684
  104MOL   H22725153   7.920   0.045   2.172  1.3233  1.2945 -1.1349
  104MOL   H22825154   0.051   7.999   2.197  0.4521 -1.1604  2.1514
  104MOL   H22925155   7.926   7.893   2.204  2.8878 -2.3665 -1.3285
  104MOL   C23025156   0.222   7.807   1.832  0.2327  0.1305 -0.6364
  104MOL   C23125157   0.285   7.799   1.690 -0.5248 -0.4646 -0.6776
  104MOL   O23225158   0.294   7.667   1.645  0.0342 -0.6055 -0.2143
  104MOL   C23325159   0.399   7.600   1.669 -0.8523  0.9777  0.1670
  104MOL   C23425160   0.380   7.456   1.624  0.8129  0.4946  0.4060
  104MOL   O23525161   0.492   7.638   1.734 -0.0678 -0.4907 -0.6827
  104MOL   H23625162   0.237   7.909   1.869  0.7521  0.2104 -1.0563
  104MOL   H23725163   0.277   7.757   1.912 -0.0414  2.5060  1.0948
  104MOL   H23825164   0.376   7.856   1.676 -0.5812  0.0019  0.7813
  104MOL   H23925165   0.309   7.405   1.690  0.2899  0.2382 -0.3419
  104MOL   H24025166   0.475   7.403   1.622  0.0306 -0.9299 -0.9169
  104MOL   H24125167   0.333   7.457   1.526  0.6973  0.7053  0.4638
  104MOL   H24225168   0.223   7.841   1.611  1.4342  0.7667 -1.5855
  105MOL     C125169   6.155   5.337   2.746 -0.4049  0.0274 -0.3220
  105MOL     C225170   6.176   5.211   2.668 -0.4029  0.9089  0.1111
  105MOL     O325171   6.050   5.168   2.627 -0.0878 -0.4156 -0.0104
  105MOL     C425172   6.016   5.027   2.618 -0.2237 -0.5545 -0.0441
  105MOL     C525173   5.874   5.008   2.576  0.0610 -0.0256 -0.4971
  105MOL     O625174   6.098   4.936   2.644  0.9809 -0.2913  0.2079
  105MOL     H725175   6.061   5.344   2.800 -0.0541  0.4819  0.2367
  105MOL     H825176   6.143   5.426   2.685  1.9774  0.0926 -0.7529
  105MOL     H925177   6.224   5.130   2.724 -2.1303 -2.1912 -2.7307
  105MOL    H1025178   5.829   5.105   2.556 -0.1873 -0.2900 -1.2373
  105MOL    H1125179   5.821   4.945   2.648  1.2403 -0.7079 -0.2056
  105MOL    H1225180   5.880   4.960   2.478  2.3923  0.5878 -0.6878
  105MOL    H1325181   6.221   5.358   2.831 -0.4785  1.6204 -0.6440
  105MOL    C1425182   6.254   5.214   2.535  0.4458  1.3016  0.2185
  105MOL    C1525183   6.407   5.243   2.542  0.1011  0.4151 -0.2726
  105MOL    O1625184   6.466   5.194   2.417 -0.2506  0.0163 -0.1255
  105MOL    C1725185   6.518   5.071   2.405 -0.5092  0.1807  0.1178
  105MOL    C1825186   6.595   5.073   2.275 -0.0536  0.5042 -0.3270
  105MOL    O1925187   6.491   4.968   2.469  0.6727 -0.3312 -0.4340
  105MOL    H2025188   6.239   5.112   2.500  0.4601  1.1069  0.7739
  105MOL    H2125189   6.207   5.280   2.462  0.1158  1.7011  0.7898
  105MOL    H2225190   6.442   5.185   2.628  1.4687 -0.5456 -1.4540
  105MOL    H2325191   6.652   4.980   2.266 -1.8852 -0.6261 -0.5034
  105MOL    H2425192   6.667   5.154   2.266 -0.4137  0.8325 -0.2291
  105MOL    H2525193   6.535   5.079   2.184  0.2745  1.1361 -0.5047
  105MOL    C2625194   6.450   5.387   2.558 -0.0883 -0.2885 -0.1683
  105MOL    C2725195   6.598   5.397   2.591 -0.0065 -0.0218 -0.6227
  105MOL    O2825196   6.655   5.501   2.502 -0.2287 -0.4318 -0.2826
  105MOL    C2925197   6.789   5.488   2.462  0.2398  0.0140  0.0011
  105MOL    C3025198   6.840   5.611   2.391  0.4744 -0.4081 -0.6312
  105MOL    O3125199   6.864   5.391   2.476  0.0435  0.0508 -0.1058
  105MOL    H3225200   6.419   5.433   2.464  1.0635  3.3926  1.1683
  105MOL    H3325201   6.394   5.448   2.629 -0.3527 -1.1818  0.3942
  105MOL    H3425202   6.646   5.304   2.560  0.9461 -0.2099  1.3998
  105MOL    H3525203   6.945   5.594   2.365  0.7555  1.3745 -0.7064
  105MOL    H3625204   6.837   5.690   2.466 -2.6490  1.0649 -2.1800
  105MOL    H3725205   6.780   5.634   2.303 -1.5961  1.2065  1.1614
  105MOL    C3825206   6.629   5.438   2.734  0.2852 -0.4627 -0.3739
  105MOL    C3925207   6.579   5.338   2.838 -0.2453  0.5950  0.3138
  105MOL    O4025208   6.638   5.212   2.817  0.0207  0.5772  0.0673
  105MOL    C4125209   6.583   5.088   2.859 -0.7636 -0.3490 -1.1842
  105MOL    C4225210   6.653   4.971   2.798 -0.8581 -0.0918 -0.2305
  105MOL    O4325211   6.484   5.074   2.936 -0.3629  0.0260 -0.0216
  105MOL    H4425212   6.737   5.449   2.741  0.0729  1.5206 -0.1440
  105MOL    H4525213   6.586   5.538   2.743 -0.5296 -0.9311  1.0228
  105MOL    H4625214   6.470   5.337   2.833 -0.2680  0.7270  0.7525
  105MOL    H4725215   6.738   4.945   2.860 -0.6339 -0.0883 -0.5368
  105MOL    H4825216   6.691   5.005   2.701 -1.2699 -1.2827 -0.8269
  105MOL    H4925217   6.581   4.890   2.780 -2.1348  0.9076  0.3237
  105MOL    C5025218   6.630   5.369   2.977  0.1695 -0.2096  0.0685
  105MOL    C5125219   6.588   5.503   3.032 -0.0542  0.2696 -0.3649
  105MOL    O5225220   6.449   5.487   3.067  0.8234 -0.0623 -0.8275
  105MOL    C5325221   6.354   5.577   3.020 -0.3402  0.3078 -0.2384
  105MOL    C5425222   6.216   5.549   3.069  0.1402  0.7828  1.1034
  105MOL    O5525223   6.378   5.682   2.954  0.0214 -0.4777 -0.1777
  105MOL    H5625224   6.600   5.290   3.046  1.6739 -0.9663 -0.1095
  105MOL    H5725225   6.739   5.363   2.969  0.3568  2.4004  0.1200
  105MOL    H5825226   6.597   5.572   2.949 -2.7865  0.4975 -0.5373
  105MOL    H5925227   6.140   5.618   3.031  0.1299  0.0607 -0.2205
  105MOL    H6025228   6.221   5.560   3.177  1.9333  1.1095  0.9961
  105MOL    H6125229   6.182   5.448   3.043 -2.3403  1.8859 -0.1774
  105MOL    C6225230   6.681   5.558   3.144  0.8308  0.3353 -0.1166
  105MOL    C6325231   6.824   5.606   3.102 -0.5689  0.4312 -0.1716
  105MOL    O6425232   6.819   5.730   3.041  0.0601  0.1263 -0.3735
  105MOL    C6525233   6.860   5.762   2.916 -0.3257  0.0384 -1.3022
  105MOL    C6625234   6.835   5.903   2.885 -0.4348  0.3599 -0.0058
  105MOL    O6725235   6.905   5.691   2.829 -0.5179 -0.0049  0.0064
  105MOL    H6825236   6.639   5.643   3.198  2.0167  0.9040 -0.0573
  105MOL    H6925237   6.670   5.482   3.221  0.6329  1.1498  0.6748
  105MOL    H7025238   6.866   5.534   3.031  0.0122 -0.8962  1.4583
  105MOL    H7125239   6.729   5.929   2.887 -0.5531 -0.2172  1.5882
  105MOL    H7225240   6.869   5.938   2.787  1.9021 -1.5995  0.0679
  105MOL    H7325241   6.893   5.961   2.957  0.9281 -0.4692 -0.4287
  105MOL    C7425242   6.904   5.608   3.235 -0.1300  0.0748 -0.4693
  105MOL    C7525243   7.048   5.643   3.207  0.0284 -0.1124 -0.4288
  105MOL    O7625244   7.066   5.781   3.249 -0.1014 -0.6293 -0.0782
  105MOL    C7725245   7.106   5.876   3.162 -0.2664  0.1178 -0.1409
  105MOL    C7825246   7.136   6.014   3.226  0.1422 -0.5481  0.2079
  105MOL    O7925247   7.128   5.860   3.041 -0.1263  0.4303 -0.0677
  105MOL    H8025248   6.850   5.660   3.314 -2.4730  0.3183 -2.1741
  105MOL    H8125249   6.899   5.503   3.264  0.2032  0.0854 -0.3790
  105MOL    H8225250   7.068   5.629   3.101  2.8488 -1.0068  0.1760
  105MOL    H8325251   7.043   6.065   3.252  0.5677 -0.4441  1.5515
  105MOL    H8425252   7.201   6.062   3.153 -0.2871 -1.7105 -0.9575
  105MOL    H8525253   7.207   6.005   3.308 -0.2409 -0.0552  0.6061
  105MOL    C8625254   7.158   5.558   3.276 -0.4781 -0.0834 -0.0454
  105MOL    C8725255   7.147   5.561   3.434  0.0984  0.4435  0.2195
  105MOL    O8825256   7.068   5.462   3.478 -0.1742 -0.1232  0.3809
  105MOL    C8925257   6.959   5.485   3.558  0.6155  0.2436  0.3349
  105MOL    C9025258   6.885   5.360   3.595 -0.1764  0.1302 -0.4972
  105MOL    O9125259   6.914   5.593   3.587 -0.3022 -0.5868 -0.4968
  105MOL    H9225260   7.156   5.458   3.233 -0.4579 -0.2517  0.3490
  105MOL    H9325261   7.260   5.593   3.256 -1.2477  0.6541 -2.9849
  105MOL    H9425262   7.103   5.658   3.459 -0.5031  0.6221 -1.5029
  105MOL    H9525263   6.811   5.391   3.668 -2.4638 -1.3879 -2.1104
  105MOL    H9625264   6.944   5.283   3.643 -0.0137 -0.3487 -1.4407
  105MOL    H9725265   6.825   5.322   3.512  0.6946  1.9072 -1.9873
  105MOL    C9825266   7.280   5.546   3.517 -0.5354  0.3481 -0.4836
  105MOL    C9925267   7.347   5.681   3.540 -0.0609  0.2445  0.1597
  105MOL   O10025268   7.261   5.748   3.634 -0.3737  0.2520 -0.4272
  105MOL   C10125269   7.237   5.882   3.629 -0.1857  0.1073 -0.1257
  105MOL   C10225270   7.145   5.934   3.735  0.4569  0.0936 -0.5098
  105MOL   O10325271   7.279   5.957   3.537 -0.3912 -0.0102 -0.3120
  105MOL   H10425272   7.262   5.504   3.616  0.1957 -0.2277 -0.5922
  105MOL   H10525273   7.340   5.470   3.468 -0.7009 -0.2924  0.3054
  105MOL   H10625274   7.359   5.732   3.445  1.1671 -2.5449 -1.2227
  105MOL   H10725275   7.195   6.019   3.781  0.6985 -0.3590  0.0675
  105MOL   H10825276   7.127   5.862   3.814  0.9893  1.6698  1.0726
  105MOL   H10925277   7.048   5.955   3.689  0.6956  0.7146 -0.7309
  105MOL   C11025278   7.493   5.675   3.596 -0.5456  0.2742 -0.1513
  105MOL   C11125279   7.588   5.611   3.488 -1.0005  0.2293  0.1259
  105MOL   O11225280   7.606   5.710   3.381  0.4790  0.1491  0.7825
  105MOL   C11325281   7.546   5.695   3.262  0.6881 -0.1571  0.0585
  105MOL   C11425282   7.530   5.820   3.177  0.1214  0.4753  0.0242
  105MOL   O11525283   7.502   5.593   3.215  0.2334  0.1151  0.0286
  105MOL   H11625284   7.530   5.773   3.624 -1.3577  1.1009 -1.8948
  105MOL   H11725285   7.482   5.603   3.677 -0.6784  0.0060 -0.4051
  105MOL   H11825286   7.546   5.518   3.451 -1.8988 -0.3600  2.4960
  105MOL   H11925287   7.437   5.872   3.198  0.0751  1.0185 -1.4754
  105MOL   H12025288   7.531   5.785   3.074 -0.5456 -2.5159  0.9618
  105MOL   H12125289   7.616   5.883   3.196  0.9595 -0.3078 -1.1121
  105MOL   C12225290   7.722   5.578   3.563  0.1704 -0.6128 -0.1424
  105MOL   C12325291   7.799   5.468   3.492 -0.6607  0.2280 -0.0153
  105MOL   O12425292   7.812   5.517   3.354 -0.0765  0.4091 -0.3868
  105MOL   C12525293   7.778   5.420   3.267 -0.3008 -0.3519 -0.4515
  105MOL   C12625294   7.782   5.475   3.125  0.0342  0.1766  1.0272
  105MOL   O12725295   7.778   5.299   3.289 -0.0576  0.0727 -0.1701
  105MOL   H12825296   7.778   5.672   3.570 -1.6987  0.6133 -1.1774
  105MOL   H12925297   7.701   5.547   3.665  0.2851  1.4122  0.5134
  105MOL   H13025298   7.755   5.368   3.503  0.8366 -0.8160 -2.9921
  105MOL   H13125299   7.692   5.452   3.067  0.9219  0.1868 -0.3839
  105MOL   H13225300   7.859   5.433   3.060 -2.3719 -1.9563 -0.5218
  105MOL   H13325301   7.805   5.581   3.136  0.5374  0.0675  1.0569
  105MOL   C13425302   7.938   5.474   3.555  0.1120  0.2647 -0.5027
  105MOL   C13525303   0.018   5.369   3.502  0.4744 -0.1820 -0.0436
  105MOL   O13625304   0.151   5.400   3.543  0.4782 -0.0741 -0.1857
  105MOL   C13725305   0.224   5.498   3.480  0.5928 -0.2231  0.4765
  105MOL   C13825306   0.372   5.505   3.512  0.5330 -0.9306  0.0541
  105MOL   O13925307   0.178   5.576   3.394  0.2038 -0.2633  0.5979
  105MOL   H14025308   7.984   5.573   3.548 -1.9317  1.5129  2.8109
  105MOL   H14125309   7.925   5.463   3.662  0.7101  1.1367 -0.3324
  105MOL   H14225310   0.017   5.371   3.393  0.1494  0.0950 -0.0364
  105MOL   H14325311   0.398   5.452   3.604  0.3981  2.5680  2.2082
  105MOL   H14425312   0.387   5.612   3.524 -1.7714 -0.5342 -0.3537
  105MOL   H14525313   0.422   5.477   3.420  0.7142  0.5407 -0.2908
  105MOL   C14625314   8.000   5.223   3.541 -0.0884 -0.9123  0.2691
  105MOL   C14725315   0.052   5.114   3.461  0.3366 -0.7108 -0.5438
  105MOL   O14825316   0.004   4.986   3.508  0.1008 -0.2277 -0.3795
  105MOL   C14925317   0.072   4.911   3.595  0.1125 -0.0486 -0.0406
  105MOL   C15025318   0.003   4.772   3.625  0.6664 -0.0038  0.1260
  105MOL   O15125319   0.172   4.948   3.657 -0.3630  0.6448  0.3790
  105MOL   H15225320   0.007   5.205   3.645 -0.6341  2.1031  0.9905
  105MOL   H15325321   7.895   5.196   3.534 -0.3889 -0.4823  2.5346
  105MOL   H15425322   0.159   5.121   3.478 -0.2424  1.6254  2.7670
  105MOL   H15525323   7.987   4.733   3.530 -0.7315 -2.7481  1.7551
  105MOL   H15625324   7.940   4.791   3.691  0.3436  0.4896 -0.4236
  105MOL   H15725325   0.081   4.700   3.648  1.1917  0.2972 -0.6786
  105MOL   C15825326   0.055   5.121   3.305  0.2156  0.4534  0.1194
  105MOL   C15925327   0.158   5.023   3.249  0.1417 -0.3379  0.6903
  105MOL   O16025328   0.109   4.893   3.240  0.3535 -0.0870  0.3270
  105MOL   C16125329   0.188   4.791   3.280  0.0094 -0.1000 -0.1118
  105MOL   C16225330   0.123   4.655   3.249 -0.9616 -0.2361  0.3785
  105MOL   O16325331   0.300   4.786   3.333  0.9012 -0.6517  0.8012
  105MOL   H16425332   7.981   5.121   3.252  1.1832 -2.1296 -1.7710
  105MOL   H16525333   0.100   5.218   3.289 -0.9133  0.8355 -0.8219
  105MOL   H16625334   0.247   5.020   3.312  0.6557 -0.9219 -0.0518
  105MOL   H16725335   0.015   4.666   3.260 -0.8043  1.4391  0.4531
  105MOL   H16825336   0.149   4.584   3.327 -0.1734 -0.5595 -0.1744
  105MOL   H16925337   0.142   4.614   3.150  0.7494  1.1557  0.0975
  105MOL   C17025338   0.209   5.056   3.106 -0.2276 -0.2156  0.5017
  105MOL   C17125339   0.289   5.195   3.091  0.1582  0.0945  0.3179
  105MOL   O17225340   0.428   5.168   3.108 -0.1843 -0.3169 -0.0976
  105MOL   C17325341   0.474   5.183   3.235 -0.1281 -0.0713 -0.5221
  105MOL   C17425342   0.621   5.168   3.254  0.7333 -0.5125  0.0966
  105MOL   O17525343   0.412   5.227   3.328 -0.4916 -0.3548 -0.2718
  105MOL   H17625344   0.271   4.981   3.055  1.7982  1.8858 -0.2285
  105MOL   H17725345   0.117   5.070   3.050  0.0210 -2.2376 -0.4730
  105MOL   H17825346   0.251   5.269   3.162 -3.7559  0.1102 -1.6095
  105MOL   H17925347   0.668   5.107   3.177  0.8280 -0.9897  0.5290
  105MOL   H18025348   0.655   5.129   3.350  0.9169  0.4170  0.4119
  105MOL   H18125349   0.666   5.268   3.250  1.7315 -0.8645  1.8653
  105MOL   C18225350   0.264   5.254   2.948 -0.6064  0.0719  0.1152
  105MOL   C18325351   0.313   5.397   2.914  0.3152 -0.2263  0.5403
  105MOL   O18425352   0.247   5.496   2.996 -0.1167 -0.4335 -0.2231
  105MOL   C18525353   0.115   5.518   2.991 -0.1348 -0.9396 -0.2978
  105MOL   C18625354   0.082   5.615   3.101 -0.2544  0.3268 -0.6718
  105MOL   O18725355   0.029   5.473   2.920  0.1626 -0.4966  0.1625
  105MOL   H18825356   0.315   5.185   2.880  1.8063  2.0805 -0.1807
  105MOL   H18925357   0.158   5.251   2.924 -0.6305 -1.9244  0.3408
  105MOL   H19025358   0.284   5.421   2.812  0.8808  0.6702  0.5888
  105MOL   H19125359   8.019   5.672   3.061  0.8291  2.3163 -0.1657
  105MOL   H19225360   0.163   5.686   3.111 -1.0351  1.2276 -0.7313
  105MOL   H19325361   0.058   5.578   3.201  0.4401 -1.5655 -1.1880
  105MOL   C19425362   0.469   5.410   2.924 -0.0566 -0.1883 -0.0334
  105MOL   C19525363   0.558   5.324   2.825  0.1102 -0.3563  0.0889
  105MOL   O19625364   0.561   5.367   2.691  0.5256  0.2414  0.5251
  105MOL   C19725365   0.466   5.321   2.606  0.3051 -0.2075 -0.4240
  105MOL   C19825366   0.484   5.391   2.473  0.1583 -0.8772 -0.1565
  105MOL   O19925367   0.376   5.238   2.625 -0.0390  0.2617  0.2984
  105MOL   H20025368   0.503   5.512   2.904  3.7261 -1.4034 -0.3461
  105MOL   H20125369   0.507   5.380   3.022  1.3373  0.2260 -0.4369
  105MOL   H20225370   0.522   5.221   2.825  0.0488 -0.3370  0.8511
  105MOL   H20325371   0.405   5.465   2.459  0.3379 -0.8717 -1.1724
  105MOL   H20425372   0.475   5.323   2.388  0.9502 -1.1019 -0.0654
  105MOL   H20525373   0.580   5.440   2.458 -1.5081  1.7134 -2.9885
  105MOL   C20625374   0.703   5.310   2.869 -0.7510 -0.3580  0.1036
  105MOL   C20725375   0.789   5.199   2.793 -0.5131  0.6602 -0.6692
  105MOL   O20825376   0.831   5.258   2.671  0.4049  0.3721  0.2063
  105MOL   C20925377   0.789   5.209   2.551  0.1368  0.3133 -0.2459
  105MOL   C21025378   0.847   5.297   2.441  0.2747 -0.4106  0.3097
  105MOL   O21125379   0.719   5.109   2.535 -1.0999 -0.0589  0.2961
  105MOL   H21225380   0.751   5.406   2.851 -2.7973  0.6815 -0.0235
  105MOL   H21325381   0.708   5.291   2.976  0.3197 -1.5620 -0.1475
  105MOL   H21425382   0.733   5.106   2.784 -0.2634  0.6252 -1.9757
  105MOL   H21525383   0.806   5.274   2.343  0.9168  0.0858 -0.0844
  105MOL   H21625384   0.955   5.290   2.458  0.3680 -0.2303 -0.1821
  105MOL   H21725385   0.834   5.403   2.461  1.0260 -0.1298 -0.6511
  105MOL   C21825386   0.910   5.165   2.871  0.4461  0.1402 -0.1255
  105MOL   C21925387   1.013   5.066   2.812  0.7856  0.8426 -0.1661
  105MOL   O22025388   0.941   4.960   2.747 -0.0071  0.2166 -0.2624
  105MOL   C22125389   0.912   4.841   2.821 -0.3882 -0.4768  0.3320
  105MOL   C22225390   0.833   4.737   2.740 -0.4864  0.1962  0.2154
  105MOL   O22325391   0.942   4.819   2.941  0.1368 -0.5290 -0.0003
  105MOL   H22425392   0.963   5.253   2.907  0.1145  1.0386 -1.7861
  105MOL   H22525393   0.872   5.134   2.968  1.7160  0.0470  0.3452
  105MOL   H22625394   1.063   5.031   2.903  0.8612  1.5336  0.0649
  105MOL   H22725395   0.847   4.632   2.766  1.9291  0.4131 -0.1532
  105MOL   H22825396   0.871   4.740   2.638  0.4685 -0.8936  0.5300
  105MOL   H22925397   0.725   4.753   2.743 -0.4562  0.3897  0.2890
  105MOL   C23025398   1.115   5.139   2.719  0.5163  0.3297 -0.0084
  105MOL   C23125399   1.247   5.061   2.699 -0.0154  0.0777  0.3009
  105MOL   O23225400   1.337   5.054   2.810 -0.2165  0.1001  0.1174
  105MOL   C23325401   1.465   5.094   2.805  0.2531 -0.5790 -0.2795
  105MOL   C23425402   1.541   5.071   2.930  0.0903 -0.8316  0.2561
  105MOL   O23525403   1.516   5.168   2.719  0.1884  0.1598 -0.8334
  105MOL   H23625404   1.078   5.172   2.622  0.1331  0.0541  0.0462
  105MOL   H23725405   1.143   5.227   2.777  3.5961 -0.3841 -0.3034
  105MOL   H23825406   1.289   5.122   2.618 -1.0265  1.1520  0.5735
  105MOL   H23925407   1.480   5.019   3.004  0.7743 -1.2381  0.5416
  105MOL   H24025408   1.559   5.170   2.970  0.2792 -0.1827 -1.4260
  105MOL   H24125409   1.623   5.007   2.896 -1.4091 -1.4181 -2.4180
  105MOL   H24225410   1.228   4.959   2.666 -1.4311  0.6267 -0.6123
  106MOL     C125411   0.831   1.341   0.295  0.4897  0.4732  0.1522
  106MOL     C225412   0.877   1.214   0.364 -1.3122 -1.1218  0.3132
  106MOL     O325413   0.769   1.154   0.438  0.6945  0.3540 -0.2148
  106MOL     C425414   0.777   1.101   0.558 -0.0406 -0.1057  0.3019
  106MOL     C525415   0.669   1.005   0.577 -0.1282 -0.1349 -0.0982
  106MOL     O625416   0.862   1.136   0.641 -0.0489  0.0503 -0.5065
  106MOL     H725417   0.912   1.381   0.234  2.4448 -0.8920  1.8090
  106MOL     H825418   0.798   1.426   0.354  2.0482 -0.0309  1.7899
  106MOL     H925419   0.953   1.247   0.436 -0.7362  0.4705 -0.9842
  106MOL    H1025420   0.696   0.913   0.525 -1.9650  0.2335 -1.7860
  106MOL    H1125421   0.569   1.038   0.548 -0.3630 -0.7574 -0.0121
  106MOL    H1225422   0.677   0.983   0.684  0.1208  1.6409  0.2709
  106MOL    H1325423   0.747   1.326   0.226 -1.6131  1.9783  2.2944
  106MOL    C1425424   0.963   1.114   0.278 -0.1067  0.5386 -0.5753
  106MOL    C1525425   1.093   1.175   0.212 -0.9763 -1.0232 -0.2894
  106MOL    O1625426   1.146   1.260   0.308 -0.4172 -0.0420 -0.1872
  106MOL    C1725427   1.225   1.362   0.274 -0.1887  0.3285 -0.2351
  106MOL    C1825428   1.253   1.446   0.393  0.3350  0.1382 -0.6123
  106MOL    O1925429   1.283   1.377   0.168  0.3168 -0.0549  0.9234
  106MOL    H2025430   0.991   1.037   0.350 -0.0982  2.5908  1.6989
  106MOL    H2125431   0.890   1.064   0.213 -1.3623 -0.7154  1.7272
  106MOL    H2225432   1.064   1.232   0.124  0.0368 -1.1826 -0.7403
  106MOL    H2325433   1.313   1.393   0.468 -1.0446 -0.3406  0.1573
  106MOL    H2425434   1.162   1.469   0.448  0.2778  2.4614 -1.6086
  106MOL    H2525435   1.287   1.540   0.349 -0.7464  0.4840 -0.7001
  106MOL    C2625436   1.188   1.060   0.179 -0.0164 -0.2921  0.3238
  106MOL    C2725437   1.154   0.970   0.059  0.9763 -0.1615 -0.5040
  106MOL    O2825438   1.170   1.047   7.959  0.3847 -0.6807  0.0300
  106MOL    C2925439   1.084   1.041   7.857 -0.3117  0.2845 -0.9125
  106MOL    C3025440   1.137   1.109   7.728 -0.2190  0.0048 -0.4926
  106MOL    O3125441   0.979   0.979   7.857  0.0473 -0.6123  0.2436
  106MOL    H3225442   1.285   1.104   0.158  0.5973 -2.5555 -1.8258
  106MOL    H3325443   1.199   0.998   0.268  1.1399  0.9617  1.0767
  106MOL    H3425444   1.049   0.942   0.059  0.5095  1.4647  0.6971
  106MOL    H3525445   1.062   1.115   7.648 -0.1085  0.7152 -0.5496
  106MOL    H3625446   1.214   1.044   7.685 -0.8431 -0.3084 -1.1599
  106MOL    H3725447   1.177   1.209   7.744 -2.7774  1.1054 -0.6689
  106MOL    C3825448   1.226   0.830   0.050  0.0640 -0.1086 -0.0237
  106MOL    C3925449   1.160   0.730   0.149 -0.1024 -0.0560 -0.4394
  106MOL    O4025450   1.043   0.702   0.085 -0.0764 -0.2287  0.1252
  106MOL    C4125451   0.922   0.738   0.136  0.1403 -0.0729  0.1602
  106MOL    C4225452   0.802   0.673   0.071  0.0496 -0.0850 -0.0694
  106MOL    O4325453   0.909   0.822   0.230  0.1176 -0.5194 -0.5990
  106MOL    H4425454   1.219   0.787   7.972 -0.0265  1.8588 -0.8791
  106MOL    H4525455   1.330   0.852   0.075 -0.4137  0.1997  1.7636
  106MOL    H4625456   1.149   0.776   0.247  2.2266 -0.1064 -0.1291
  106MOL    H4725457   0.837   0.587   0.015  0.9857  1.6212 -2.1932
  106MOL    H4825458   0.744   0.740   0.007 -0.2617 -0.8889 -0.6358
  106MOL    H4925459   0.731   0.629   0.141  0.5422  0.1100  0.5590
  106MOL    C5025460   1.246   0.606   0.176 -0.1379  0.0163 -0.4448
  106MOL    C5125461   1.206   0.524   0.302  1.1069 -0.1777  0.4285
  106MOL    O5225462   1.076   0.461   0.299 -0.0222 -0.2961 -0.3916
  106MOL    C5325463   0.995   0.473   0.404  0.0422  0.2427  0.2088
  106MOL    C5425464   0.852   0.419   0.379  0.2671  0.2019  0.0509
  106MOL    O5525465   1.022   0.521   0.513  0.4202 -0.2650 -0.3128
  106MOL    H5625466   1.268   0.543   0.090 -0.5812  0.1684 -0.6722
  106MOL    H5725467   1.340   0.649   0.210 -0.6515 -0.3603  1.5257
  106MOL    H5825468   1.219   0.593   0.385 -0.8956 -0.0217  0.6233
  106MOL    H5925469   0.818   0.372   0.472 -1.0687  0.7793 -0.1377
  106MOL    H6025470   0.846   0.349   0.296 -3.3092 -0.2306  0.5693
  106MOL    H6125471   0.776   0.490   0.348 -1.1941 -1.7692 -1.0195
  106MOL    C6225472   1.306   0.407   0.322  0.3150  1.0374  0.3629
  106MOL    C6325473   1.427   0.441   0.409  0.1343  1.1835 -0.2150
  106MOL    O6425474   1.370   0.456   0.540  0.3865 -0.5811  0.0764
  106MOL    C6525475   1.403   0.563   0.608  0.4099 -0.4040  0.1239
  106MOL    C6625476   1.362   0.571   0.751  0.1224  0.3791  0.9836
  106MOL    O6725477   1.473   0.650   0.564 -0.7510  0.1579 -0.4661
  106MOL    H6825478   1.256   0.321   0.367  0.1052 -0.5511 -2.7699
  106MOL    H6925479   1.335   0.369   0.224 -1.0631 -0.5733  0.5453
  106MOL    H7025480   1.462   0.535   0.366  1.5277  0.9882  0.4312
  106MOL    H7125481   1.405   0.492   0.813 -4.0693 -2.6501  0.1903
  106MOL    H7225482   1.256   0.578   0.777 -0.3696 -2.2212 -0.1737
  106MOL    H7325483   1.398   0.670   0.781  2.9396 -0.8437  1.8334
  106MOL    C7425484   1.529   0.324   0.412 -0.1520 -0.3080 -0.5352
  106MOL    C7525485   1.646   0.356   0.510  0.2855 -0.5242  0.1316
  106MOL    O7625486   1.720   0.238   0.519 -0.1231  0.1195 -0.7409
  106MOL    C7725487   1.722   0.178   0.642  0.1119 -0.0914  0.0877
  106MOL    C7825488   1.836   0.080   0.655 -0.2143 -0.2087 -0.3275
  106MOL    O7925489   1.654   0.213   0.739 -0.6182  0.2342 -0.7638
  106MOL    H8025490   1.475   0.241   0.458 -0.1082 -1.2855 -2.2181
  106MOL    H8125491   1.573   0.288   0.319 -0.5439  0.3258 -0.9675
  106MOL    H8225492   1.609   0.395   0.605 -1.0698 -0.9247 -0.2142
  106MOL    H8325493   1.795   8.018   0.711 -1.7803  0.2804 -0.7118
  106MOL    H8425494   1.924   0.121   0.704 -0.1371  0.1048 -0.7181
  106MOL    H8525495   1.874   0.037   0.562  2.8159  0.2601  0.6366
  106MOL    C8625496   1.746   0.453   0.449 -0.8261  1.0426 -0.5307
  106MOL    C8725497   1.845   0.516   0.551 -0.6185 -0.2278  1.0423
  106MOL    O8825498   1.958   0.418   0.573  0.2942  0.2556 -0.0945
  106MOL    C8925499   2.025   0.413   0.687 -0.2730  0.1815 -0.0108
  106MOL    C9025500   2.158   0.336   0.671 -1.0004 -0.1974  0.6773
  106MOL    O9125501   1.992   0.466   0.792  0.3779 -0.4428  0.7081
  106MOL    H9225502   1.794   0.406   0.363  1.6357  0.4911  1.0695
  106MOL    H9325503   1.698   0.540   0.405 -1.5342  0.1104 -1.6492
  106MOL    H9425504   1.806   0.536   0.650  0.8825  0.0100  1.5971
  106MOL    H9525505   2.137   0.229   0.662 -1.8787 -0.1279  1.7472
  106MOL    H9625506   2.238   0.332   0.744  1.8719 -0.8012 -2.4174
  106MOL    H9725507   2.213   0.357   0.580  0.4484 -0.8404  1.3929
  106MOL    C9825508   1.900   0.649   0.489 -0.1061 -0.4645 -0.3177
  106MOL    C9925509   1.853   0.779   0.564  0.7303 -0.0309 -0.6061
  106MOL   O10025510   1.921   0.793   0.687  0.2886  0.8482  0.1939
  106MOL   C10125511   1.854   0.810   0.799  0.4484 -1.1762  0.7646
  106MOL   C10225512   1.945   0.803   0.913  0.9087 -0.0403  0.6684
  106MOL   O10325513   1.733   0.847   0.815  0.4185  0.3539 -0.0623
  106MOL   H10425514   2.008   0.642   0.489 -0.2154 -2.4169 -1.3306
  106MOL   H10525515   1.876   0.654   0.382  2.5589  1.0442 -0.8950
  106MOL   H10625516   1.745   0.779   0.577  0.6723  0.3037 -1.0990
  106MOL   H10725517   2.033   0.752   0.874  0.5936  1.4806 -2.0955
  106MOL   H10825518   1.894   0.742   0.988  0.0266 -1.5018 -1.0661
  106MOL   H10925519   1.970   0.904   0.944 -0.1906  1.5913 -3.4685
  106MOL   C11025520   1.891   0.905   0.479 -0.2940  0.3182 -0.1144
  106MOL   C11125521   1.812   0.919   0.340  0.3612  0.5607 -0.2186
  106MOL   O11225522   1.676   0.958   0.362  0.4431  0.0671 -0.0952
  106MOL   C11325523   1.581   0.864   0.352  0.0026 -0.4152 -0.1026
  106MOL   C11425524   1.454   0.929   0.389 -0.3326  0.2272  0.4693
  106MOL   O11525525   1.591   0.748   0.316  0.7343  0.5984 -0.3089
  106MOL   H11625526   1.892   1.004   0.524  0.8146  0.0740  0.4158
  106MOL   H11725527   1.994   0.880   0.454 -0.1818  1.8661 -1.2983
  106MOL   H11825528   1.824   0.824   0.287  2.3825  0.6556  0.0403
  106MOL   H11925529   1.379   0.850   0.396 -0.3389  0.4114  2.9995
  106MOL   H12025530   1.427   1.017   0.331 -1.4276 -2.3398 -3.0881
  106MOL   H12125531   1.470   0.981   0.483  0.8416  0.8473 -0.0544
  106MOL   C12225532   1.895   1.020   0.254 -0.1043 -0.0364  0.7211
  106MOL   C12325533   1.880   1.003   0.103  0.5099 -0.3226 -0.2276
  106MOL   O12425534   1.753   1.053   0.061  1.1269 -0.1534  0.0750
  106MOL   C12525535   1.655   0.974   0.013  0.3492 -0.0915  0.0606
  106MOL   C12625536   1.535   1.050   7.997 -0.0745 -0.1864  0.3940
  106MOL   O12725537   1.652   0.850   0.021  0.6093  0.2380 -0.2024
  106MOL   H12825538   1.855   1.117   0.283  2.4850  1.2436  0.1361
  106MOL   H12925539   2.001   1.011   0.277 -0.2993 -0.1321  1.5942
  106MOL   H13025540   1.883   0.896   0.081 -0.9212 -0.0413 -1.9272
  106MOL   H13125541   1.554   1.124   7.919  1.6651 -1.3194 -0.2838
  106MOL   H13225542   1.492   1.094   0.066 -2.2883 -0.9078 -0.2919
  106MOL   H13325543   1.463   0.975   7.964  1.2321 -1.4608  0.3866
  106MOL   C13425544   1.987   1.064   0.001 -0.1844  0.5915 -0.2769
  106MOL   C13525545   2.131   1.014   0.012  0.3874 -0.4189  0.2075
  106MOL   O13625546   2.132   0.871   0.015 -0.4307  0.1570 -0.6419
  106MOL   C13725547   2.175   0.810   0.136  0.3522  0.2190  0.9294
  106MOL   C13825548   2.172   0.652   0.124  0.7799  0.2729 -1.1010
  106MOL   O13925549   2.213   0.870   0.238  0.2029 -0.1146  0.0021
  106MOL   H14025550   1.968   1.030   7.921  3.8499 -1.4223 -0.4737
  106MOL   H14125551   2.002   1.172   0.012  2.0795  0.1625  1.2947
  106MOL   H14225552   2.168   1.066   0.100 -2.7336 -1.6521  2.2843
  106MOL   H14325553   2.247   0.610   0.190  1.7875  0.4587 -2.1065
  106MOL   H14425554   2.180   0.614   0.022  2.0775  1.6961 -1.5374
  106MOL   H14525555   2.080   0.609   0.164  1.2236  0.6488  0.3313
  106MOL   C14625556   2.214   1.067   7.912  0.6186  0.5269 -0.0261
  106MOL   C14725557   2.370   1.062   7.924 -0.3809 -0.3098  0.1551
  106MOL   O14825558   2.413   1.090   7.789 -0.6057  0.7794  0.1144
  106MOL   C14925559   2.486   0.999   7.720  0.2057  0.1443 -0.5252
  106MOL   C15025560   2.539   1.052   7.587 -0.8006  0.7068 -0.3896
  106MOL   O15125561   2.526   0.889   7.762 -0.3361  0.6862 -0.3820
  106MOL   H15225562   2.180   1.002   7.831  0.0568  3.6945 -2.4083
  106MOL   H15325563   2.186   1.171   7.893  1.8940  0.7342 -0.8754
  106MOL   H15425564   2.400   0.961   7.952  0.5901 -0.4076 -1.1542
  106MOL   H15525565   2.615   0.983   7.550  0.7190  1.9634  0.3492
  106MOL   H15625566   2.576   1.154   7.584 -1.7603  1.1377  1.5931
  106MOL   H15725567   2.463   1.048   7.509 -0.8209  0.7035 -0.3694
  106MOL   C15825568   2.426   1.170   0.000  0.3768 -0.1237 -1.0234
  106MOL   C15925569   2.536   1.131   0.099 -0.1815 -0.2924 -0.3104
  106MOL   O16025570   2.493   1.026   0.186  0.1110  0.1191  0.8400
  106MOL   C16125571   2.547   1.020   0.310 -0.5678 -0.0811  0.0890
  106MOL   C16225572   2.523   0.886   0.384  0.1831 -0.3487  0.7476
  106MOL   O16325573   2.596   1.111   0.376  0.1715  0.4627  0.8019
  106MOL   H16425574   2.449   1.255   7.958  0.0524  0.6917 -0.0536
  106MOL   H16525575   2.339   1.203   0.056  2.0389  0.7080  1.1969
  106MOL   H16625576   2.563   1.223   0.150 -0.0748  0.7848 -2.2553
  106MOL   H16725577   2.430   0.875   0.440  0.6593 -1.0320  1.4043
  106MOL   H16825578   2.601   0.873   0.459  2.4375 -0.7647 -1.5958
  106MOL   H16925579   2.520   0.805   0.312 -0.2654 -0.9051  1.3916
  106MOL   C17025580   2.655   1.085   0.019  0.0260 -0.0985  0.5216
  106MOL   C17125581   2.796   1.095   0.079  0.0807  0.5048  1.0170
  106MOL   O17225582   2.895   1.039   8.013 -0.8509  0.4175  0.3002
  106MOL   C17325583   2.947   0.908   0.014  0.0531 -0.2257 -0.6079
  106MOL   C17425584   3.018   0.850   7.915 -0.0437 -0.7862 -0.4933
  106MOL   O17525585   2.915   0.837   0.112  0.4481 -0.4002  0.4026
  106MOL   H17625586   2.647   0.981   8.008 -2.3972  0.2298 -0.0362
  106MOL   H17725587   2.655   1.143   7.948 -0.0549  1.7719  1.6690
  106MOL   H17825588   2.791   1.036   0.171  0.9739  0.4138  1.0116
  106MOL   H17925589   3.089   0.773   7.945 -0.2891 -0.3216  1.3896
  106MOL   H18025590   3.068   0.924   7.853  1.2680 -1.6537 -0.4766
  106MOL   H18125591   2.935   0.805   7.860 -1.8112  0.3480  1.1600
  106MOL   C18225592   2.840   1.237   0.123  0.8426  0.7422  0.2089
  106MOL   C18325593   2.984   1.260   0.182  0.5549  0.0307 -0.1199
  106MOL   O18425594   2.969   1.393   0.239 -0.3974 -0.1216  0.4769
  106MOL   C18525595   3.036   1.497   0.183  0.5892  0.3764  0.3029
  106MOL   C18625596   3.007   1.631   0.247  0.3429  0.5233 -0.5727
  106MOL   O18725597   3.120   1.485   0.095  0.2508  0.2972  0.3110
  106MOL   H18825598   2.836   1.288   0.027  4.3552  2.7181  1.0137
  106MOL   H18925599   2.768   1.278   0.194  2.5584 -0.9987  3.0812
  106MOL   H19025600   3.059   1.261   0.103  1.4300  1.2358  0.7115
  106MOL   H19125601   2.974   1.623   0.351  0.8848  1.4732 -0.3230
  106MOL   H19225602   2.917   1.671   0.201 -0.1176  2.8164  2.1859
  106MOL   H19325603   3.093   1.698   0.244 -1.1640  2.6406  1.4318
  106MOL   C19425604   3.022   1.174   0.297 -0.2783  0.7922  0.3621
  106MOL   C19525605   3.173   1.185   0.349  0.3026 -0.3539 -0.0042
  106MOL   O19625606   3.178   1.305   0.426 -0.2150  0.1173  0.7497
  106MOL   C19725607   3.298   1.371   0.449 -0.6364  0.2805 -0.4093
  106MOL   C19825608   3.280   1.474   0.557  0.2538  0.5974  0.2324
  106MOL   O19925609   3.407   1.332   0.407  0.2390 -0.3339  0.1052
  106MOL   H20025610   2.942   1.188   0.370 -0.4880  3.6634 -0.3392
  106MOL   H20125611   3.020   1.069   0.270  2.6248  1.2487 -1.8465
  106MOL   H20225612   3.234   1.199   0.261  0.0421 -0.3082 -0.1781
  106MOL   H20325613   3.267   1.566   0.499 -3.3742 -0.8735 -1.4167
  106MOL   H20425614   3.359   1.479   0.632 -0.2650  3.7200  0.6474
  106MOL   H20525615   3.188   1.451   0.611  0.4084  0.4690  0.4418
  106MOL   C20625616   3.211   1.066   0.435  0.2534 -0.4347 -0.5225
  106MOL   C20725617   3.235   0.931   0.357 -0.0686  0.0330 -0.0886
  106MOL   O20825618   3.355   0.954   0.276 -0.4811  0.3466  0.2121
  106MOL   C20925619   3.357   0.920   0.144  0.2161  0.1498  0.1693
  106MOL   C21025620   3.485   0.960   0.068  0.5381 -0.7556  0.1337
  106MOL   O21125621   3.263   0.889   0.078  0.3573 -1.1343 -0.7248
  106MOL   H21225622   3.293   1.094   0.500  0.5104  1.0261 -1.4484
  106MOL   H21325623   3.124   1.055   0.500  0.0724 -0.7467 -0.8113
  106MOL   H21425624   3.152   0.896   0.296 -1.4226  1.3980  0.9198
  106MOL   H21525625   3.504   1.067   0.075  2.9149 -1.0264 -1.6586
  106MOL   H21625626   3.482   0.926   7.986  2.4336 -0.3348 -0.0750
  106MOL   H21725627   3.574   0.914   0.111  1.3582  0.7130  0.0671
  106MOL   C21825628   3.257   0.814   0.456 -0.3222  0.3271 -0.3900
  106MOL   C21925629   3.140   0.776   0.550 -0.7396 -0.1769 -0.3024
  106MOL   O22025630   3.044   0.708   0.471  0.3522  0.2361  0.2048
  106MOL   C22125631   2.937   0.763   0.424 -0.7657 -0.2994 -0.2285
  106MOL   C22225632   2.843   0.663   0.349  0.3421  0.0323  0.6181
  106MOL   O22325633   2.906   0.886   0.442 -0.1583 -0.2513 -0.3026
  106MOL   H22425634   3.283   0.719   0.409 -1.1487 -0.0592 -0.0729
  106MOL   H22525635   3.342   0.837   0.521 -1.7979 -0.7103  1.9722
  106MOL   H22625636   3.086   0.859   0.597 -2.0019 -1.4688  0.5618
  106MOL   H22725637   2.838   0.673   0.241 -1.6583 -0.6891  0.6375
  106MOL   H22825638   2.738   0.672   0.375 -0.0726 -0.9294 -0.6838
  106MOL   H22925639   2.874   0.560   0.365 -0.0023 -0.2458 -0.4589
  106MOL   C23025640   3.164   0.676   0.666  0.1325  0.7200  0.1070
  106MOL   C23125641   3.273   0.714   0.767 -0.4307  0.0688 -0.4544
  106MOL   O23225642   3.276   0.615   0.870  0.2270 -0.0021 -0.7136
  106MOL   C23325643   3.220   0.646   0.991  0.9046  0.2350  0.0618
  106MOL   C23425644   3.215   0.517   1.084  0.3394  0.5122  0.3350
  106MOL   O23525645   3.182   0.753   1.032  0.1863  0.0348 -0.2207
  106MOL   H23625646   3.075   0.658   0.726 -0.7625 -3.3249 -2.2584
  106MOL   H23725647   3.191   0.583   0.615 -1.2557  0.5841 -0.3790
  106MOL   H23825648   3.262   0.813   0.811 -1.2735  0.6572 -1.9580
  106MOL   H23925649   3.144   0.533   1.164 -2.4221 -2.7113 -1.3657
  106MOL   H24025650   3.316   0.496   1.120  0.5668 -0.6933 -0.9300
  106MOL   H24125651   3.161   0.440   1.029  1.1741 -0.9306  1.5329
  106MOL   H24225652   3.379   0.714   0.740 -0.1807  0.6594  0.5054
  107MOL     C125653   2.899   0.086   6.660  0.4497 -0.4781  0.4011
  107MOL     C225654   2.980   0.037   6.541  0.2226 -0.9729  0.7346
  107MOL     O325655   2.916   7.947   6.478  0.2110  0.5503  0.2688
  107MOL     C425656   2.974   7.869   6.381 -0.3440  0.1069 -0.8779
  107MOL     C525657   2.885   7.739   6.356 -0.2954 -0.0062  0.3601
  107MOL     O625658   3.081   7.890   6.321 -0.5749  0.1695 -0.2471
  107MOL     H725659   2.893   8.020   6.725 -1.1498 -2.2410 -2.0130
  107MOL     H825660   2.799   0.120   6.632  1.1982  1.7948  0.3330
  107MOL     H925661   3.083   0.019   6.570  1.0116  1.2503 -0.5203
  107MOL    H1025662   2.778   7.752   6.373 -0.8654  1.9065 -4.0553
  107MOL    H1125663   2.923   7.663   6.425  0.1843 -0.2380 -0.1556
  107MOL    H1225664   2.890   7.689   6.260 -2.7970  0.9364 -0.2976
  107MOL    H1325665   2.941   0.175   6.706 -0.9058  0.2227  0.3172
  107MOL    C1425666   2.985   0.154   6.434 -0.2811  0.1867  0.8224
  107MOL    C1525667   3.088   0.265   6.468 -0.2553  0.1194  0.4232
  107MOL    O1625668   3.216   0.209   6.438  0.3143  0.4448  0.1494
  107MOL    C1725669   3.333   0.261   6.474 -0.7869 -0.1002  0.1569
  107MOL    C1825670   3.447   0.167   6.437 -0.0593  0.4827  0.2440
  107MOL    O1925671   3.350   0.376   6.523  0.3775 -0.1643  0.6315
  107MOL    H2025672   3.013   0.099   6.345  2.4120  2.3277  0.2688
  107MOL    H2125673   2.886   0.196   6.419 -0.0569  1.8720  3.6655
  107MOL    H2225674   3.079   0.293   6.573 -0.4627 -0.0869  0.4603
  107MOL    H2325675   3.513   0.152   6.522  1.4072  0.6006 -0.8503
  107MOL    H2425676   3.500   0.214   6.354 -0.8758  1.9795  0.5554
  107MOL    H2525677   3.410   0.073   6.395  0.7961 -0.3763  1.3573
  107MOL    C2625678   3.063   0.393   6.378 -0.1687  0.1341 -0.0281
  107MOL    C2725679   2.943   0.468   6.422  0.0004 -0.5483  0.2796
  107MOL    O2825680   2.982   0.541   6.538 -0.5661  0.6425  0.7787
  107MOL    C2925681   2.913   0.546   6.647 -0.5598  0.6556  0.2500
  107MOL    C3025682   2.981   0.620   6.763  0.1670 -0.1572 -0.1063
  107MOL    O3125683   2.804   0.496   6.662 -0.5295 -0.8527 -0.2018
  107MOL    H3225684   3.149   0.460   6.387 -0.4946  0.4019  1.2597
  107MOL    H3325685   3.051   0.364   6.274 -2.8697 -0.7795  0.5173
  107MOL    H3425686   2.860   0.402   6.447 -1.6751  1.3466 -0.0491
  107MOL    H3525687   2.913   0.614   6.848  1.3228 -0.6600  0.7864
  107MOL    H3625688   2.997   0.724   6.735  0.0476 -0.0596  0.1930
  107MOL    H3725689   3.077   0.576   6.790  0.1217 -0.6635 -0.7515
  107MOL    C3825690   2.909   0.576   6.322 -0.7041 -0.0132  0.7731
  107MOL    C3925691   2.783   0.655   6.345  0.7410 -0.3854  0.0683
  107MOL    O4025692   2.800   0.797   6.321  0.1410  0.2876 -0.1488
  107MOL    C4125693   2.867   0.883   6.403  0.6481 -0.1395 -0.0764
  107MOL    C4225694   2.852   1.031   6.357  0.3739 -0.0908 -0.1354
  107MOL    O4325695   2.930   0.851   6.505 -0.1811 -0.4947  0.2775
  107MOL    H4425696   2.992   0.646   6.321  0.3402 -1.2496  0.3624
  107MOL    H4525697   2.918   0.535   6.221  1.2883 -0.0526  0.9532
  107MOL    H4625698   2.749   0.648   6.448  0.2320 -0.9872 -0.1388
  107MOL    H4725699   2.945   1.070   6.314  0.2404 -0.3123 -0.6398
  107MOL    H4825700   2.817   1.098   6.435  0.2960  1.8799 -1.8333
  107MOL    H4925701   2.783   1.033   6.273 -0.2451 -0.2794  0.3696
  107MOL    C5025702   2.660   0.603   6.264 -0.2040  0.3912 -0.1624
  107MOL    C5125703   2.621   0.452   6.285 -0.6681 -0.1348  1.0933
  107MOL    O5225704   2.539   0.445   6.403  0.2695  0.0979  0.6465
  107MOL    C5325705   2.549   0.337   6.481  0.1722  0.8139  0.2760
  107MOL    C5425706   2.443   0.339   6.589 -0.4810 -1.3205 -0.0877
  107MOL    O5525707   2.625   0.242   6.461  0.4116 -0.0849 -0.5488
  107MOL    H5625708   2.567   0.654   6.286 -0.3195  0.4399 -0.7637
  107MOL    H5725709   2.680   0.614   6.158  0.6492  1.4377  0.0925
  107MOL    H5825710   2.708   0.391   6.309 -0.5565 -0.6002 -0.4495
  107MOL    H5925711   2.443   0.437   6.637  1.0250 -1.9035  1.1237
  107MOL    H6025712   2.455   0.252   6.652  1.1434  0.1624  1.7203
  107MOL    H6125713   2.349   0.333   6.534 -0.6771  2.5444 -0.3492
  107MOL    C6225714   2.544   0.386   6.175  0.1589  0.2455  0.4936
  107MOL    C6325715   2.618   0.359   6.049 -0.0058 -0.0079  0.9411
  107MOL    O6425716   2.709   0.250   6.069 -0.0102  0.3226  0.9361
  107MOL    C6525717   2.845   0.244   6.046  0.1827  0.6016  1.4104
  107MOL    C6625718   2.910   0.109   6.056  0.2628 -0.1530 -0.2805
  107MOL    O6725719   2.908   0.346   6.023  0.3832  0.2008  0.5751
  107MOL    H6825720   2.503   0.293   6.213  0.3582 -0.8816 -1.9998
  107MOL    H6925721   2.452   0.442   6.157  0.1784  0.6539  1.6251
  107MOL    H7025722   2.674   0.448   6.022 -0.1427  0.1663  1.2308
  107MOL    H7125723   2.847   0.048   5.991  0.8599 -0.1251 -0.8944
  107MOL    H7225724   2.905   0.072   6.159  1.1541  0.0289 -0.1712
  107MOL    H7325725   3.013   0.117   6.022  0.1331 -1.0692 -0.8913
  107MOL    C7425726   2.513   0.319   5.945 -0.1112  0.0296 -0.5195
  107MOL    C7525727   2.551   0.323   5.798  0.0479  0.3830 -0.0237
  107MOL    O7625728   2.633   0.214   5.772 -0.0958  0.4248  0.2412
  107MOL    C7725729   2.742   0.222   5.706  0.3866  0.3853 -0.2198
  107MOL    C7825730   2.823   0.097   5.689 -0.0744 -0.1994  0.0997
  107MOL    O7925731   2.791   0.328   5.664  0.0487 -0.5930  0.1816
  107MOL    H8025732   2.478   0.222   5.981  2.8171 -0.4011  1.3415
  107MOL    H8125733   2.425   0.383   5.951  0.3145  0.6073 -0.4851
  107MOL    H8225734   2.607   0.415   5.779 -2.1009  1.5910 -0.6472
  107MOL    H8325735   2.741   0.028   5.666 -1.9446  1.7886  0.5787
  107MOL    H8425736   2.882   0.068   5.776  0.0218  0.2988  0.2036
  107MOL    H8525737   2.885   0.113   5.600 -1.2638  1.4437 -0.4613
  107MOL    C8625738   2.423   0.316   5.705  0.0540 -0.3990 -0.7474
  107MOL    C8725739   2.451   0.312   5.548  0.7902  0.1038 -0.3644
  107MOL    O8825740   2.334   0.261   5.481  0.2124  0.6691 -0.1822
  107MOL    C8925741   2.349   0.136   5.412 -0.4991  0.6613  0.2657
  107MOL    C9025742   2.232   0.113   5.325  0.5203 -0.4224 -0.0173
  107MOL    O9125743   2.436   0.054   5.422  0.0456  0.1354 -0.7639
  107MOL    H9225744   2.373   0.222   5.729  1.6228 -0.9002  0.7395
  107MOL    H9325745   2.361   0.403   5.724  2.2575  1.1563 -0.3922
  107MOL    H9425746   2.527   0.239   5.519 -1.1982 -1.9422 -0.5329
  107MOL    H9525747   2.171   0.203   5.318  2.6083  0.8126 -3.1478
  107MOL    H9625748   2.181   0.023   5.360  2.3852 -0.9964  1.2858
  107MOL    H9725749   2.262   0.082   5.225 -1.1156 -0.2035 -0.5890
  107MOL    C9825750   2.486   0.450   5.492 -0.1374  0.2521 -0.8686
  107MOL    C9925751   2.559   0.451   5.354 -0.3547  0.2418  0.3000
  107MOL   O10025752   2.631   0.570   5.352  0.3514 -0.1683 -0.0641
  107MOL   C10125753   2.590   0.682   5.293  0.1700  1.1791 -0.0851
  107MOL   C10225754   2.663   0.803   5.345  0.1691  0.1588 -0.5543
  107MOL   O10325755   2.502   0.691   5.204  0.1330  0.2725 -0.7571
  107MOL   H10425756   2.407   0.525   5.494 -0.0523  0.3724 -1.6784
  107MOL   H10525757   2.567   0.491   5.552  0.4195  0.0197 -1.4489
  107MOL   H10625758   2.479   0.445   5.281 -1.5385  2.5780  1.3376
  107MOL   H10725759   2.763   0.783   5.384  0.4482  0.2642 -1.2050
  107MOL   H10825760   2.606   0.844   5.429 -1.8282  1.7366 -2.5838
  107MOL   H10925761   2.673   0.877   5.265 -2.6353  0.9370 -0.2421
  107MOL   C11025762   2.673   0.343   5.323  0.9358 -0.0592 -0.2166
  107MOL   C11125763   2.652   0.248   5.204  0.0573 -0.0037 -0.1260
  107MOL   O11225764   2.655   0.320   5.093 -0.0521 -0.7433  0.2656
  107MOL   C11325765   2.551   0.347   5.020 -0.5759 -0.1275 -0.2396
  107MOL   C11425766   2.581   0.436   4.899  0.3825  0.1520 -0.4848
  107MOL   O11525767   2.438   0.302   5.041  0.3709 -0.1696  0.2842
  107MOL   H11625768   2.774   0.383   5.309  0.5429  0.9233 -0.2547
  107MOL   H11725769   2.691   0.281   5.410  1.2401  0.4310  0.0697
  107MOL   H11825770   2.554   0.205   5.225  0.0769 -0.8349 -1.7088
  107MOL   H11925771   2.690   0.443   4.894  0.4592  0.0512  0.8201
  107MOL   H12025772   2.535   0.535   4.899  0.7109  0.3056  0.2047
  107MOL   H12125773   2.538   0.380   4.816 -0.8371  1.5214 -0.7936
  107MOL   C12225774   2.757   0.138   5.176 -0.0943 -0.3470  0.8169
  107MOL   C12325775   2.710   0.025   5.077  0.2439  0.4200  0.4346
  107MOL   O12425776   2.824   7.953   5.084  0.2379  0.1132 -0.8674
  107MOL   C12525777   2.902   7.917   4.983  0.5157 -0.3599 -0.2957
  107MOL   C12625778   2.987   7.794   5.018  0.6650  0.4499  0.4327
  107MOL   O12725779   2.886   7.957   4.868  0.2569  0.1029 -0.6111
  107MOL   H12825780   2.852   0.179   5.144  0.1660 -1.2627  0.4077
  107MOL   H12925781   2.767   0.090   5.274 -1.3335  1.5947  1.9269
  107MOL   H13025782   2.687   0.062   4.978 -1.7337 -2.3037 -0.1977
  107MOL   H13125783   2.994   7.789   5.127 -0.2203  0.8872  0.5188
  107MOL   H13225784   3.086   7.801   4.974  1.0827 -1.0169  1.1058
  107MOL   H13325785   2.944   7.701   4.980 -0.2319  1.0553 -0.0415
  107MOL   C13425786   2.585   7.972   5.135 -0.2085 -0.0430 -0.2694
  107MOL   C13525787   2.530   7.842   5.077 -0.1857 -0.2540 -0.0571
  107MOL   O13625788   2.402   7.820   5.129  0.3260  0.0113  0.0285
  107MOL   C13725789   2.378   7.753   5.244 -0.1235  0.6809  0.5722
  107MOL   C13825790   2.231   7.757   5.271  0.5841 -0.1806 -0.0817
  107MOL   O13925791   2.449   7.692   5.319 -0.0876  0.2184 -0.6383
  107MOL   H14025792   2.610   7.958   5.241 -4.4145 -0.7163  0.7296
  107MOL   H14125793   2.499   0.018   5.130  1.1793  1.5906 -4.3292
  107MOL   H14225794   2.583   7.754   5.112 -3.3748 -1.4549  2.0288
  107MOL   H14325795   2.191   7.833   5.338  0.1592  0.3199 -0.8935
  107MOL   H14425796   2.203   7.661   5.316 -0.1569  1.1151  2.3016
  107MOL   H14525797   2.188   7.764   5.171  0.3194 -0.9936 -0.0276
  107MOL   C14625798   2.521   7.861   4.921 -0.4313 -0.2052 -0.6325
  107MOL   C14725799   2.488   7.741   4.834  0.0828  0.6844 -0.6656
  107MOL   O14825800   2.395   7.774   4.728  0.5606 -0.0901 -0.3991
  107MOL   C14925801   2.267   7.789   4.748 -0.7485 -0.6095  0.1923
  107MOL   C15025802   2.200   7.824   4.617  0.0743  0.1694  0.4018
  107MOL   O15125803   2.208   7.782   4.858  0.2257 -0.3215 -0.4819
  107MOL   H15225804   2.445   7.938   4.912 -1.6693 -1.1750  1.1767
  107MOL   H15325805   2.604   7.908   4.870 -1.0680  0.8206 -0.7311
  107MOL   H15425806   2.442   7.659   4.890  1.2072  1.2548  1.1481
  107MOL   H15525807   2.115   7.758   4.602  1.0990 -0.7447 -1.4830
  107MOL   H15625808   2.276   7.813   4.539 -0.5221  0.8119 -0.2725
  107MOL   H15725809   2.154   7.921   4.598  3.2393  1.2499 -2.2020
  107MOL   C15825810   2.604   7.671   4.765  0.1548  0.2258 -0.1024
  107MOL   C15925811   2.630   7.704   4.612  0.2883 -0.4704 -0.0829
  107MOL   O16025812   2.667   7.839   4.623 -0.0152  0.5096 -0.0480
  107MOL   C16125813   2.613   7.940   4.548  0.1971  0.1111 -0.0234
  107MOL   C16225814   2.684   0.053   4.570  0.7018  0.0432 -0.1770
  107MOL   O16325815   2.507   7.933   4.487  0.5480 -0.1563  0.3772
  107MOL   H16425816   2.693   7.680   4.828 -0.5592 -0.0379  0.9650
  107MOL   H16525817   2.586   7.564   4.759 -0.4830  0.2435  1.3513
  107MOL   H16625818   2.535   7.692   4.559 -0.6162  0.4835  1.2700
  107MOL   H16725819   2.770   0.046   4.636 -0.1385  3.8207  1.4675
  107MOL   H16825820   2.616   0.128   4.611  1.1331  0.3645 -0.0496
  107MOL   H16925821   2.717   0.084   4.471  2.7194  2.0206  1.0746
  107MOL   C17025822   2.732   7.612   4.543 -0.0336  0.2512  0.6056
  107MOL   C17125823   2.778   7.652   4.406  0.1655  0.4490  0.1242
  107MOL   O17225824   2.871   7.560   4.359 -0.7688 -0.2983  0.4360
  107MOL   C17325825   3.002   7.595   4.378 -0.2304  0.0257  1.2905
  107MOL   C17425826   3.103   7.497   4.316 -0.3558 -0.4050 -0.3648
  107MOL   O17525827   3.046   7.690   4.437 -0.0125 -0.1154  0.0161
  107MOL   H17625828   2.812   7.600   4.617  0.7787  1.7542  0.0029
  107MOL   H17725829   2.684   7.514   4.538 -0.1206  0.1768  2.4657
  107MOL   H17825830   2.813   7.753   4.427 -0.2263  0.7684 -0.7394
  107MOL   H17925831   3.064   7.395   4.327 -0.3036 -0.2196  1.6115
  107MOL   H18025832   3.203   7.505   4.359 -0.0486 -1.0567 -0.9361
  107MOL   H18125833   3.108   7.510   4.208  0.0159  0.7071 -0.2135
  107MOL   C18225834   2.662   7.667   4.297 -0.7217  0.1379 -0.2431
  107MOL   C18325835   2.713   7.761   4.184 -0.1537  0.2424  0.5664
  107MOL   O18425836   2.624   7.741   4.074  0.2200 -0.0184  1.0453
  107MOL   C18525837   2.670   7.701   3.955  0.0542  0.8577 -0.3367
  107MOL   C18625838   2.569   7.726   3.842 -0.2997 -0.7110  0.3997
  107MOL   O18725839   2.784   7.666   3.928 -0.2779  0.1693  0.4326
  107MOL   H18825840   2.642   7.569   4.253 -0.8160 -0.4603  1.0869
  107MOL   H18925841   2.573   7.722   4.327 -0.5422 -0.7984  2.1688
  107MOL   H19025842   2.814   7.731   4.155  0.5115  0.8527  2.1888
  107MOL   H19125843   2.515   7.636   3.813  0.1929 -1.5264  1.9122
  107MOL   H19225844   2.625   7.769   3.760  0.6384  0.0049  1.3919
  107MOL   H19325845   2.496   7.799   3.876  0.7109  0.3356  0.3759
  107MOL   C19425846   2.714   7.912   4.220  0.1335  0.6723 -0.2748
  107MOL   C19525847   2.730   8.001   4.092 -0.5667 -0.0988 -0.3452
  107MOL   O19625848   2.652   0.099   4.112 -0.1816 -0.0603  0.0021
  107MOL   C19725849   2.534   0.097   4.057 -0.1049 -0.1381 -0.5065
  107MOL   C19825850   2.465   0.228   4.064  0.0359  0.8033 -0.0801
  107MOL   O19925851   2.472   8.018   4.010 -0.2184 -0.4598 -0.1853
  107MOL   H20025852   2.621   7.954   4.259 -0.2170  1.3251 -1.7495
  107MOL   H20125853   2.779   7.945   4.300 -0.0684 -0.4782  0.3713
  107MOL   H20225854   2.695   7.955   4.000 -1.7289  0.2780 -0.0910
  107MOL   H20325855   2.444   0.266   3.964  0.6141 -0.1195 -0.5529
  107MOL   H20425856   2.527   0.301   4.117 -0.5917  1.7302 -0.6010
  107MOL   H20525857   2.369   0.218   4.115  0.0691 -2.9959 -0.6500
  107MOL   C20625858   2.875   0.011   4.067  0.3689  0.3077 -0.6611
  107MOL   C20725859   2.886   0.100   3.942 -0.6711  0.2320  0.2748
  107MOL   O20825860   3.007   0.170   3.947  0.0828 -0.1309  0.1853
  107MOL   C20925861   3.017   0.290   4.008  0.2814 -0.0697 -0.5369
  107MOL   C21025862   3.134   0.368   3.955 -0.4111  0.1205 -0.6585
  107MOL   O21125863   2.930   0.349   4.080 -0.3010  0.5201 -0.5251
  107MOL   H21225864   2.912   0.045   4.164  0.3758  0.1739 -0.6165
  107MOL   H21325865   2.933   7.941   4.057  0.7414  0.4445  0.1738
  107MOL   H21425866   2.813   0.181   3.940 -0.3897  0.4776  0.0116
  107MOL   H21525867   3.104   0.450   3.890  2.6276  0.6642 -1.4578
  107MOL   H21625868   3.200   0.305   3.895 -2.0612 -1.5853 -0.7484
  107MOL   H21725869   3.201   0.394   4.037  0.6860 -2.2935 -0.7450
  107MOL   C21825870   2.859   0.023   3.804  0.2288 -0.4057  0.1660
  107MOL   C21925871   2.859   0.105   3.672  0.2959  0.2844  0.8193
  107MOL   O22025872   2.763   0.205   3.685 -0.0476  0.1876 -0.1292
  107MOL   C22125873   2.674   0.225   3.583  0.2635  0.3244 -0.5300
  107MOL   C22225874   2.570   0.325   3.618  0.6551 -0.6115  0.6124
  107MOL   O22325875   2.681   0.172   3.465 -0.5364  0.6967 -0.2845
  107MOL   H22425876   2.925   7.957   3.800 -1.6918 -1.8892  0.1318
  107MOL   H22525877   2.758   8.007   3.818  0.2404 -0.7933 -0.7673
  107MOL   H22625878   2.819   0.033   3.602  0.4784 -0.7831  1.8015
  107MOL   H22725879   2.568   0.351   3.724  1.1898  1.4569  0.1285
  107MOL   H22825880   2.472   0.300   3.580  1.2384 -1.8231 -0.1163
  107MOL   H22925881   2.591   0.423   3.575 -0.9969 -0.9194 -0.9336
  107MOL   C23025882   2.997   0.151   3.626 -0.8284  0.0947 -0.7234
  107MOL   C23125883   3.042   0.109   3.483  0.6301  0.0928  0.6352
  107MOL   O23225884   3.069   7.996   3.494  0.2267 -0.3103  0.0478
  107MOL   C23325885   3.153   7.929   3.410 -0.4344  0.1531 -0.6566
  107MOL   C23425886   3.147   7.778   3.434  1.0905  0.0067 -0.1303
  107MOL   O23525887   3.221   7.979   3.326 -0.0450 -0.0188  0.4266
  107MOL   H23625888   3.005   0.260   3.624 -1.1651  0.1322 -0.0039
  107MOL   H23725889   3.078   0.115   3.689  1.9885  2.0390 -3.0914
  107MOL   H23825890   3.141   0.149   3.461  1.2258 -1.6670  0.0267
  107MOL   H23925891   3.120   7.723   3.344 -2.6249  2.0679 -0.3834
  107MOL   H24025892   3.070   7.764   3.510  2.7658 -2.6675  1.1499
  107MOL   H24125893   3.236   7.732   3.477 -0.0514 -0.8217  1.4056
  107MOL   H24225894   2.969   0.131   3.404  3.1614  2.9254 -1.0124
  108MOL     C125895   7.866   1.711   1.924  0.1737 -0.4780 -0.5494
  108MOL     C225896   7.973   1.628   1.844  0.3118 -0.1925  0.3713
  108MOL     O325897   0.018   1.723   1.758 -0.1672 -0.5444  0.2815
  108MOL     C425898   0.007   1.711   1.622 -0.6782 -0.1931  0.7180
  108MOL     C525899   0.092   1.817   1.549 -0.4071  0.3018  0.7514
  108MOL     O625900   7.958   1.629   1.568  0.2204 -0.8582 -0.3183
  108MOL     H725901   7.832   1.659   2.014  2.1299 -0.4616  0.2199
  108MOL     H825902   7.787   1.731   1.852 -0.8327 -0.5007  0.5339
  108MOL     H925903   7.926   1.549   1.784 -0.3564  1.3778 -1.2110
  108MOL    H1025904   0.065   1.809   1.443 -0.8840  0.3927  0.8650
  108MOL    H1125905   0.200   1.803   1.545 -0.6264 -1.9924  2.3065
  108MOL    H1225906   0.072   1.916   1.589  2.0350  0.4286  1.7234
  108MOL    H1325907   7.913   1.800   1.965 -1.0675 -1.5132  3.3977
  108MOL    C1425908   0.062   1.554   1.935  0.2008 -1.0583  0.3169
  108MOL    C1525909   0.112   1.418   1.890  0.3674  0.8534  0.6019
  108MOL    O1625910   0.204   1.444   1.783 -0.0521  0.1131  0.3301
  108MOL    C1725911   0.179   1.378   1.671  0.0739  0.6564 -0.2211
  108MOL    C1825912   0.260   1.432   1.553  0.0237  0.4097  0.3025
  108MOL    O1925913   0.103   1.285   1.660 -0.4778 -0.0586 -0.2378
  108MOL    H2025914   0.153   1.607   1.960  0.2340  0.2073 -2.3517
  108MOL    H2125915   0.015   1.541   2.033  1.2419 -1.2385  0.7953
  108MOL    H2225916   0.021   1.367   1.858  1.4379 -0.1926 -0.7818
  108MOL    H2325917   0.347   1.488   1.588  0.8689  1.2893 -3.0198
  108MOL    H2425918   0.209   1.500   1.485  0.6933  0.9620  0.3454
  108MOL    H2525919   0.293   1.345   1.496  0.5039 -2.5349  4.8438
  108MOL    C2625920   0.170   1.335   2.011 -0.5057 -1.0148  0.6785
  108MOL    C2725921   0.216   1.192   1.982  0.3620  0.2289  0.0568
  108MOL    O2825922   0.272   1.141   2.101 -0.2769 -0.1850  0.0734
  108MOL    C2925923   0.388   1.075   2.106 -0.1611  0.0548  0.7400
  108MOL    C3025924   0.393   0.980   2.223 -0.3743  0.0008 -0.2310
  108MOL    O3125925   0.481   1.088   2.025 -0.0831 -0.1133 -0.0077
  108MOL    H3225926   0.260   1.383   2.048  0.1247 -1.5439 -0.1528
  108MOL    H3325927   0.102   1.326   2.096 -0.0446 -1.3859  1.0079
  108MOL    H3425928   0.292   1.200   1.905 -0.0755  2.0860 -0.2061
  108MOL    H3525929   0.381   1.031   2.319 -1.4864  0.1741 -0.4550
  108MOL    H3625930   0.486   0.925   2.236 -0.4247  0.2393  1.2046
  108MOL    H3725931   0.317   0.904   2.205  0.2413 -1.0297  1.3997
  108MOL    C3825932   0.100   1.101   1.947 -0.9028  0.4052 -0.7688
  108MOL    C3925933   0.147   0.967   1.887  0.8022 -0.2544  0.0781
  108MOL    O4025934   0.041   0.871   1.902 -0.3645 -0.1134 -0.1674
  108MOL    C4125935   0.039   0.788   2.009  1.0659 -0.8734  0.1762
  108MOL    C4225936   7.935   0.701   1.993  0.0429  0.0639  0.2535
  108MOL    O4325937   0.117   0.772   2.100 -0.0079 -0.0992 -0.3866
  108MOL    H4425938   0.045   1.094   2.041  1.1013 -0.0425  0.4047
  108MOL    H4525939   0.034   1.153   1.879 -3.1083  1.5313  2.1227
  108MOL    H4625940   0.231   0.930   1.946  1.3328  0.3922 -0.2650
  108MOL    H4725941   7.892   0.664   2.086 -1.6222  1.9841  0.2816
  108MOL    H4825942   7.977   0.614   1.943 -1.9666  0.2987 -1.9436
  108MOL    H4925943   7.868   0.745   1.919  0.1749  0.3733  0.3192
  108MOL    C5025944   0.191   0.979   1.742  0.2339 -0.1219  0.3146
  108MOL    C5125945   0.288   0.864   1.704  0.1756 -0.1948 -0.5198
  108MOL    O5225946   0.214   0.746   1.657 -0.1115 -0.4181 -0.5931
  108MOL    C5325947   0.254   0.621   1.691  0.3873  0.3213  0.5694
  108MOL    C5425948   0.161   0.509   1.654  0.3920 -0.5130 -0.2235
  108MOL    O5525949   0.366   0.593   1.740 -0.1076 -0.2238 -0.4225
  108MOL    H5625950   0.101   0.989   1.681 -0.7463  1.3517  1.9529
  108MOL    H5725951   0.246   1.071   1.720 -0.7692  0.9985  2.3077
  108MOL    H5825952   0.336   0.831   1.796  0.6161  0.3650 -0.5499
  108MOL    H5925953   0.181   0.422   1.716  1.7766  1.9810  2.9618
  108MOL    H6025954   0.178   0.491   1.548 -0.9320  2.0881 -0.9320
  108MOL    H6125955   0.053   0.527   1.649  0.8384  2.5639 -0.0803
  108MOL    C6225956   0.396   0.907   1.600 -0.3714  0.6098 -0.0403
  108MOL    C6325957   0.514   0.809   1.568  0.3193  0.5610  0.2699
  108MOL    O6425958   0.587   0.857   1.453 -0.3715  0.2454 -0.0557
  108MOL    C6525959   0.611   0.784   1.345 -0.2482  0.7249  0.2837
  108MOL    C6625960   0.677   0.865   1.238  0.4247  0.8714 -0.3627
  108MOL    O6725961   0.587   0.661   1.333 -0.5875 -0.1595  0.0084
  108MOL    H6825962   0.339   0.922   1.509 -0.3269 -1.6867 -0.4646
  108MOL    H6925963   0.430   1.008   1.623  2.7152  0.4158 -3.2448
  108MOL    H7025964   0.468   0.713   1.546  1.2429  0.2141 -0.1295
  108MOL    H7125965   0.708   0.791   1.164 -0.3640  2.4548 -2.3051
  108MOL    H7225966   0.762   0.922   1.273 -0.4724  2.9262 -1.4363
  108MOL    H7325967   0.600   0.922   1.185 -0.4470  0.3710  0.3497
  108MOL    C7425968   0.613   0.806   1.684 -0.0988 -0.1798 -0.8852
  108MOL    C7525969   0.746   0.715   1.679 -0.1538 -0.1740  0.0353
  108MOL    O7625970   0.861   0.787   1.726 -0.0900 -0.0292  0.1123
  108MOL    C7725971   0.937   0.859   1.638 -0.5434  0.3792 -0.3267
  108MOL    C7825972   1.049   0.925   1.709  0.1679  0.1342 -0.3551
  108MOL    O7925973   0.916   0.866   1.516 -0.2487 -0.0352  0.4125
  108MOL    H8025974   0.648   0.908   1.698  0.9058 -0.5770 -0.4112
  108MOL    H8125975   0.550   0.784   1.771  3.1344 -0.0703  1.5830
  108MOL    H8225976   0.762   0.676   1.579 -0.4773 -1.1473  0.3518
  108MOL    H8325977   1.083   1.014   1.656  0.7569  0.1177 -0.0137
  108MOL    H8425978   1.124   0.848   1.724 -0.1250  0.3429  2.4901
  108MOL    H8525979   1.033   0.955   1.812  1.7717 -3.0968  0.8863
  108MOL    C8625980   0.744   0.577   1.759  0.4306 -0.0999 -0.6429
  108MOL    C8725981   0.722   0.450   1.672 -1.0148  0.2874  0.0286
  108MOL    O8825982   0.727   0.340   1.760 -0.2990 -0.0404  0.2040
  108MOL    C8925983   0.852   0.281   1.788  0.1356 -0.2623 -0.3184
  108MOL    C9025984   0.842   0.157   1.878  0.3265  0.3671 -0.4105
  108MOL    O9125985   0.958   0.321   1.742 -0.7398 -0.2751 -0.0152
  108MOL    H9225986   0.843   0.566   1.803  0.4537 -1.2427 -0.9815
  108MOL    H9325987   0.675   0.586   1.843  0.8315  0.8180 -0.4035
  108MOL    H9425988   0.807   0.442   1.605  0.6517 -2.9847  2.3904
  108MOL    H9525989   0.927   0.090   1.864  1.2949  0.5759  3.7190
  108MOL    H9625990   0.760   0.095   1.843 -0.6485 -0.3034  2.8736
  108MOL    H9725991   0.829   0.186   1.982 -0.8419  1.4923 -0.8668
  108MOL    C9825992   0.593   0.447   1.592 -0.2027  0.4121  0.2386
  108MOL    C9925993   0.596   0.349   1.468  0.0810 -0.0702 -0.1145
  108MOL   O10025994   0.720   0.377   1.401 -0.4866  0.1798 -0.2813
  108MOL   C10125995   0.710   0.376   1.270 -0.0598 -0.3124  0.5160
  108MOL   C10225996   0.836   0.432   1.203 -1.2905  0.1476  0.6351
  108MOL   O10325997   0.616   0.332   1.209  0.4713 -0.2448 -0.2228
  108MOL   H10425998   0.512   0.428   1.662  1.5474 -2.4889  1.5681
  108MOL   H10525999   0.570   0.546   1.552 -1.1441 -0.4192 -1.3356
  108MOL   H10626000   0.512   0.367   1.400 -0.3908  0.7620  0.6696
  108MOL   H10726001   0.856   0.366   1.118  0.2918  0.6536  0.5960
  108MOL   H10826002   0.915   0.436   1.279 -0.3288  1.0123 -0.3807
  108MOL   H10926003   0.818   0.534   1.167 -0.3543  0.0825 -0.0693
  108MOL   C11026004   0.566   0.201   1.493 -0.2170  0.2460 -0.1603
  108MOL   C11126005   0.420   0.163   1.532 -0.8290  0.0244  0.7661
  108MOL   O11226006   0.398   0.209   1.672  0.4757  0.2170 -0.0444
  108MOL   C11326007   0.450   0.139   1.778  0.4555 -0.0583  0.0751
  108MOL   C11426008   0.417   0.206   1.909 -0.3591  0.4225 -0.6331
  108MOL   O11526009   0.520   0.033   1.774  0.3559 -0.1481  0.0764
  108MOL   H11626010   0.595   0.144   1.405 -0.6420 -0.2834  0.0383
  108MOL   H11726011   0.632   0.169   1.574 -1.7162  0.4127  1.1638
  108MOL   H11826012   0.433   0.055   1.533 -0.6670  0.0324 -0.3562
  108MOL   H11926013   0.310   0.227   1.905 -0.2525  1.0594 -0.1905
  108MOL   H12026014   0.472   0.300   1.908  0.9608 -0.3259 -0.0407
  108MOL   H12126015   0.448   0.143   1.993 -0.3942 -0.4886 -1.2940
  108MOL   C12226016   0.315   0.212   1.433  0.1457  0.3101  0.1216
  108MOL   C12326017   0.303   0.136   1.302 -0.0296 -0.2487  0.2902
  108MOL   O12426018   0.228   0.015   1.320  0.3166 -0.0686 -0.7809
  108MOL   C12526019   0.292   7.917   1.324 -0.5602 -0.2525  0.6124
  108MOL   C12626020   0.201   7.799   1.323 -0.7852 -0.0786  0.4220
  108MOL   O12726021   0.419   7.908   1.327  0.0113 -0.2627  0.0502
  108MOL   H12826022   0.229   0.203   1.498 -0.4671 -1.9223 -0.9677
  108MOL   H12926023   0.322   0.320   1.419  2.5077  0.4346  1.8133
  108MOL   H13026024   0.406   0.111   1.278  0.0670  1.1281 -0.7418
  108MOL   H13126025   0.131   7.799   1.240 -2.0794  0.5096  1.4866
  108MOL   H13226026   0.136   7.810   1.411  0.0100  1.1961  0.8702
  108MOL   H13326027   0.254   7.705   1.332 -1.2397 -0.4063 -0.2986
  108MOL   C13426028   0.241   0.209   1.185 -0.3621 -0.4678 -0.3053
  108MOL   C13526029   0.244   0.132   1.056 -0.4976 -0.1428 -0.4188
  108MOL   O13626030   0.119   0.148   0.982  0.1657 -0.2053 -0.3071
  108MOL   C13726031   0.031   0.044   0.981 -0.5619  0.0088  0.1842
  108MOL   C13826032   7.920   0.075   0.916  0.3813 -0.0847  0.4026
  108MOL   O13926033   0.044   7.950   1.023 -0.0576 -0.1298  0.4671
  108MOL   H14026034   0.138   0.219   1.221 -0.0042 -1.7692  1.1573
  108MOL   H14126035   0.294   0.302   1.169 -0.8450 -0.0730  0.3663
  108MOL   H14226036   0.263   0.027   1.079  0.3274 -0.0989 -0.8716
  108MOL   H14326037   7.833   0.053   0.978 -1.0355  2.1890 -0.7377
  108MOL   H14426038   7.903   0.019   0.824 -1.6723  2.1312 -0.6119
  108MOL   H14526039   7.921   0.176   0.876  1.7375 -0.5685 -0.8243
  108MOL   C14626040   0.368   0.176   0.962  0.3723  0.4208  0.1260
  108MOL   C14726041   0.396   0.088   0.836  0.2518 -0.5626 -0.2280
  108MOL   O14826042   0.483   0.153   0.747  0.2673 -0.5908  0.2026
  108MOL   C14926043   0.452   0.143   0.614  1.2176  0.0947 -0.4082
  108MOL   C15026044   0.534   0.236   0.530 -0.4277 -0.5867  0.7443
  108MOL   O15126045   0.352   0.076   0.572 -0.1193 -0.0087  0.2850
  108MOL   H15226046   0.356   0.279   0.927 -2.6825 -0.1574 -0.6135
  108MOL   H15326047   0.463   0.175   1.017  1.5436  2.6208 -1.7685
  108MOL   H15426048   0.296   0.089   0.794 -0.4819 -2.3030  1.4028
  108MOL   H15526049   0.484   0.249   0.434  2.7363  0.6170 -0.8007
  108MOL   H15626050   0.636   0.199   0.522 -0.4440 -0.2734 -1.1265
  108MOL   H15726051   0.539   0.336   0.573  1.0273 -0.4683  0.3050
  108MOL   C15826052   0.434   7.962   0.878  0.3673  0.1315  0.3488
  108MOL   C15926053   0.411   7.852   0.767  0.4749 -0.2762 -0.1465
  108MOL   O16026054   0.269   7.865   0.728 -0.8565 -0.9654 -0.1831
  108MOL   C16126055   0.172   7.771   0.752  0.0583  0.2276 -0.7133
  108MOL   C16226056   0.047   7.799   0.673 -0.2560  0.5839  0.4810
  108MOL   O16326057   0.177   7.684   0.836 -0.8637  0.2152 -0.0743
  108MOL   H16426058   0.539   7.955   0.908  0.4147 -0.0906  0.1381
  108MOL   H16526059   0.367   7.936   0.959 -1.3728  0.5905 -0.8999
  108MOL   H16626060   0.412   7.763   0.829  0.5103 -0.4540 -0.4011
  108MOL   H16726061   7.985   7.848   0.723  0.1674  2.5066 -0.6490
  108MOL   H16826062   0.008   7.705   0.634  0.9284 -0.0438  0.7869
  108MOL   H16926063   0.068   7.855   0.582  1.4786 -4.4979 -2.5024
  108MOL   C17026064   0.518   7.839   0.654 -0.0389  0.2491  0.6978
  108MOL   C17126065   0.553   7.694   0.605 -0.1966  0.2153  0.9351
  108MOL   O17226066   0.440   7.622   0.557 -0.0713 -0.0941 -0.3729
  108MOL   C17326067   0.375   7.527   0.632 -0.2013  0.3859  0.1889
  108MOL   C17426068   0.254   7.474   0.555 -0.2533 -0.8678  0.3777
  108MOL   O17526069   0.409   7.486   0.744  0.0875 -0.6282 -0.5366
  108MOL   H17626070   0.471   7.899   0.576 -3.1584 -1.2353  1.3514
  108MOL   H17726071   0.607   7.893   0.685  0.1401  0.3426  0.0390
  108MOL   H17826072   0.611   7.653   0.687 -0.2212 -0.8156  0.4403
  108MOL   H17926073   0.211   7.543   0.483  0.2355  0.0743  0.9810
  108MOL   H18026074   0.176   7.452   0.629  1.3830 -1.4397  1.9663
  108MOL   H18126075   0.267   7.377   0.507 -1.0557 -1.1962  0.8012
  108MOL   C18226076   0.652   7.695   0.485 -0.0985 -0.5818  0.1231
  108MOL   C18326077   0.687   7.557   0.430 -0.0674 -0.5048 -0.6642
  108MOL   O18426078   0.772   7.576   0.320 -0.2719 -0.1129  0.2583
  108MOL   C18526079   0.772   7.501   0.214 -0.6347  0.2513  0.0647
  108MOL   C18626080   0.853   7.570   0.101  0.1256  0.0103 -0.8078
  108MOL   O18726081   0.715   7.392   0.199  0.7614 -0.4565  0.5756
  108MOL   H18826082   0.614   7.765   0.411  1.5057  0.7111  0.4822
  108MOL   H18926083   0.750   7.733   0.513  0.1096 -1.3965  0.5344
  108MOL   H19026084   0.592   7.506   0.411 -0.0406 -0.6943 -0.2942
  108MOL   H19126085   0.823   7.504   0.020 -0.8790 -0.1678 -0.2956
  108MOL   H19226086   0.961   7.564   0.101  0.1626 -0.8858 -4.6442
  108MOL   H19326087   0.816   7.671   0.079  2.3561  0.9320 -0.4687
  108MOL   C19426088   0.764   7.471   0.530  0.1395  0.5260  0.0551
  108MOL   C19526089   0.703   7.331   0.566 -0.3232  0.2841  0.3961
  108MOL   O19626090   0.736   7.239   0.454  0.2709 -0.0436  0.7959
  108MOL   C19726091   0.635   7.178   0.382  0.1634 -0.0686  0.3097
  108MOL   C19826092   0.681   7.069   0.283  0.1057  0.2892  0.3472
  108MOL   O19926093   0.513   7.197   0.408 -0.6729 -0.2450 -0.0971
  108MOL   H20026094   0.866   7.452   0.498  0.6709  0.9804  1.4368
  108MOL   H20126095   0.763   7.523   0.626  0.7969  0.4159  0.1211
  108MOL   H20226096   0.596   7.348   0.579 -0.0847  0.4007  2.3634
  108MOL   H20326097   0.608   7.022   0.218  1.1045 -2.6241  1.2806
  108MOL   H20426098   0.728   6.994   0.347 -1.5750 -1.0177  0.0794
  108MOL   H20526099   0.759   7.109   0.219 -1.0776  1.1764 -0.5715
  108MOL   C20626100   0.748   7.268   0.698 -0.3535  0.0168  1.0630
  108MOL   C20726101   0.669   7.140   0.724 -0.3656  0.4685  0.1796
  108MOL   O20826102   0.772   7.043   0.764  0.1577 -0.7360  0.0258
  108MOL   C20926103   0.806   6.942   0.691 -0.5580 -0.1709 -0.7415
  108MOL   C21026104   0.916   6.867   0.761 -0.0867 -0.8093  0.4348
  108MOL   O21126105   0.763   6.909   0.582  0.0869  0.1009  0.3246
  108MOL   H21226106   0.852   7.239   0.681 -0.1679  0.9495  0.5497
  108MOL   H21326107   0.758   7.340   0.779  0.4964  2.5825 -1.2131
  108MOL   H21426108   0.613   7.112   0.635 -0.1223  0.7193 -0.0541
  108MOL   H21526109   0.876   6.767   0.780  0.7993 -0.8987  1.9294
  108MOL   H21626110   0.952   6.906   0.856 -0.4462  1.6724 -0.4304
  108MOL   H21726111   0.998   6.863   0.689  0.0218  0.7858  0.4517
  108MOL   C21826112   0.569   7.144   0.840  0.4215  0.3447 -0.2316
  108MOL   C21926113   0.476   7.024   0.858  0.0507  0.0735 -0.4687
  108MOL   O22026114   0.429   6.966   0.736 -0.0831  0.6195 -0.4318
  108MOL   C22126115   0.305   7.004   0.696  1.1470  0.1064 -0.3910
  108MOL   C22226116   0.272   6.944   0.559  0.6893  0.0276 -0.0629
  108MOL   O22326117   0.234   7.086   0.750 -0.7715  0.1924  0.2173
  108MOL   H22426118   0.624   7.169   0.931  1.4207  0.4191 -0.8471
  108MOL   H22526119   0.493   7.221   0.829 -0.3328 -0.2962  0.4265
  108MOL   H22626120   0.390   7.052   0.919 -0.0106 -2.0246  0.4357
  108MOL   H22726121   0.164   6.936   0.544  0.5650 -0.9075  1.1820
  108MOL   H22826122   0.317   6.845   0.563 -0.3977 -0.4223  2.6522
  108MOL   H22926123   0.321   7.003   0.482  0.8773  1.1306  0.8912
  108MOL   C23026124   0.552   6.900   0.923  0.0389  0.1021  0.6241
  108MOL   C23126125   0.565   6.922   1.072  0.0386  0.6827 -0.8301
  108MOL   O23226126   0.604   6.801   1.140  0.0819 -0.2249  0.6563
  108MOL   C23326127   0.535   6.757   1.251 -0.2325  0.6502  0.1065
  108MOL   C23426128   0.604   6.639   1.320  0.1678 -0.1837  0.4771
  108MOL   O23526129   0.425   6.804   1.296 -0.1946  0.2943 -0.2284
  108MOL   H23626130   0.489   6.810   0.916 -1.8241  1.2811  1.7407
  108MOL   H23726131   0.640   6.862   0.872 -0.0535 -1.8282  1.8231
  108MOL   H23826132   0.473   6.955   1.119 -0.6636 -2.5490  0.1970
  108MOL   H23926133   0.545   6.553   1.287 -1.0230  1.3375 -1.4438
  108MOL   H24026134   0.602   6.649   1.428  0.1041  0.0210  0.4573
  108MOL   H24126135   0.708   6.624   1.291 -0.0137 -1.5041  0.4518
  108MOL   H24226136   0.640   6.992   1.111 -0.5587 -0.9562  3.5072
  109MOL     C126137   7.282   3.320   3.039  0.0152 -0.1155  0.1321
  109MOL     C226138   7.297   3.322   3.189  0.0900  0.5887  0.1948
  109MOL     O326139   7.181   3.367   3.251  0.0267  0.3688  0.0982
  109MOL     C426140   7.060   3.316   3.231 -0.2637  0.2908  0.0586
  109MOL     C526141   6.952   3.396   3.301  0.3253  0.6514  0.1485
  109MOL     O626142   7.035   3.216   3.161  0.0771 -0.6593 -0.2689
  109MOL     H726143   7.379   3.312   2.988  0.8071 -2.6286  1.9336
  109MOL     H826144   7.234   3.414   3.012 -2.7334 -1.2311  1.0508
  109MOL     H926145   7.365   3.407   3.197 -0.3089  0.8425  0.9593
  109MOL    H1026146   6.933   3.481   3.235 -1.0744  0.1910 -0.0399
  109MOL    H1126147   6.994   3.420   3.399  0.7693  1.1044 -0.1445
  109MOL    H1226148   6.860   3.342   3.319  0.8924  0.2366  1.9002
  109MOL    H1326149   7.227   3.233   3.004 -0.7249  1.2276 -2.1217
  109MOL    C1426150   7.351   3.192   3.255 -0.5077  0.0584 -0.7831
  109MOL    C1526151   7.342   3.176   3.411 -0.2194  0.5936 -0.6678
  109MOL    O1626152   7.371   3.038   3.436  0.2086  0.0644  0.2352
  109MOL    C1726153   7.280   2.947   3.483 -0.3624 -0.0194  0.6374
  109MOL    C1826154   7.357   2.830   3.551 -0.3622  0.4032  0.5524
  109MOL    O1926155   7.156   2.961   3.476 -0.3002 -0.1217 -0.2336
  109MOL    H2026156   7.302   3.104   3.214 -0.0880 -0.7223  0.3752
  109MOL    H2126157   7.457   3.190   3.232 -0.2964 -0.3600  0.2095
  109MOL    H2226158   7.239   3.190   3.445  0.1475 -0.0501  0.7637
  109MOL    H2326159   7.293   2.771   3.618 -0.1838 -2.0617 -1.3694
  109MOL    H2426160   7.454   2.867   3.584  0.2743 -2.8146  2.5970
  109MOL    H2526161   7.399   2.757   3.481  3.3185 -0.4739  3.5177
  109MOL    C2626162   7.434   3.261   3.500  0.2334  0.1623  0.2162
  109MOL    C2726163   7.399   3.264   3.654  0.2504 -0.0762  0.4265
  109MOL    O2826164   7.408   3.133   3.707 -0.1102 -0.1066  0.2390
  109MOL    C2926165   7.313   3.095   3.791 -0.7458 -0.3549  0.3757
  109MOL    C3026166   7.349   2.964   3.851  0.7126 -0.7739  0.5204
  109MOL    O3126167   7.215   3.160   3.822 -0.1617 -0.5845  0.3019
  109MOL    H3226168   7.535   3.220   3.493 -0.9067 -2.7383  0.2305
  109MOL    H3326169   7.442   3.359   3.453 -1.5418 -0.3385 -1.1452
  109MOL    H3426170   7.304   3.311   3.673  0.4556  0.6431 -0.3163
  109MOL    H3526171   7.364   2.976   3.958  0.1472  1.2989  0.3860
  109MOL    H3626172   7.433   2.914   3.803 -0.0265 -3.1028  1.6224
  109MOL    H3726173   7.265   2.895   3.843  1.1384 -1.2265 -0.1657
  109MOL    C3826174   7.493   3.351   3.741 -0.0832 -0.5546 -0.2065
  109MOL    C3926175   7.507   3.499   3.701  0.3641 -0.3951 -0.3679
  109MOL    O4026176   7.388   3.563   3.736  0.5253  0.4629  0.0678
  109MOL    C4126177   7.340   3.668   3.668 -0.4287 -0.0963 -0.0522
  109MOL    C4226178   7.212   3.719   3.727  0.7041 -0.9584  0.3946
  109MOL    O4326179   7.390   3.732   3.577 -0.3285 -0.9833  0.2540
  109MOL    H4426180   7.473   3.343   3.848 -0.6924 -0.0813 -0.2762
  109MOL    H4526181   7.588   3.305   3.715 -0.8354 -2.3486  0.1287
  109MOL    H4626182   7.507   3.506   3.592  0.8011 -1.5931 -0.4550
  109MOL    H4726183   7.183   3.820   3.699  1.2455 -1.3281 -1.6148
  109MOL    H4826184   7.206   3.722   3.836  1.5633 -0.0531  0.4190
  109MOL    H4926185   7.131   3.659   3.684 -0.9151  0.1004  1.9192
  109MOL    C5026186   7.626   3.565   3.767  0.3854 -0.3991  0.0362
  109MOL    C5126187   7.758   3.531   3.698 -0.8746 -0.3153  0.0944
  109MOL    O5226188   7.754   3.592   3.569  0.0779  0.2133 -0.2681
  109MOL    C5326189   7.730   3.527   3.454 -0.5451 -0.0058  0.2018
  109MOL    C5426190   7.760   3.627   3.340  0.0089 -0.2223 -0.2472
  109MOL    O5526191   7.698   3.405   3.449  0.2100 -0.2727  0.6169
  109MOL    H5626192   7.615   3.674   3.764 -2.3963 -0.6534 -0.3884
  109MOL    H5726193   7.619   3.545   3.874 -0.5615 -0.2682 -0.0010
  109MOL    H5826194   7.763   3.423   3.687  0.2163 -0.2555 -0.0530
  109MOL    H5926195   7.754   3.729   3.377 -2.4843 -1.3041  2.6210
  109MOL    H6026196   7.694   3.605   3.256  0.8925  0.5620 -1.1515
  109MOL    H6126197   7.862   3.598   3.313 -0.1506 -1.6410  0.5899
  109MOL    C6226198   7.883   3.591   3.769 -0.5281 -0.1127 -0.5980
  109MOL    C6326199   8.018   3.549   3.704  0.7045 -0.0641 -0.0906
  109MOL    O6426200   0.087   3.657   3.738  0.1739 -0.4834 -0.7402
  109MOL    C6526201   0.135   3.735   3.640 -0.2179  0.5256  1.1866
  109MOL    C6626202   0.218   3.857   3.678 -0.3348 -0.4726  0.2719
  109MOL    O6726203   0.103   3.725   3.521  0.1341  0.3134  0.3690
  109MOL    H6826204   7.876   3.699   3.758 -2.6805 -0.1247  0.4427
  109MOL    H6926205   7.892   3.574   3.876  0.9113 -0.2937 -0.7406
  109MOL    H7026206   8.009   3.543   3.596  0.2476 -1.4119  0.0122
  109MOL    H7126207   0.194   3.936   3.607  1.3606 -0.3425 -0.1795
  109MOL    H7226208   0.325   3.834   3.674 -0.5028 -1.3224  0.5232
  109MOL    H7326209   0.198   3.901   3.776  2.5025 -0.3573  0.8491
  109MOL    C7426210   0.043   3.404   3.738  0.6657 -0.2588 -0.0831
  109MOL    C7526211   0.089   3.312   3.622  0.7675 -0.4858 -0.0255
  109MOL    O7626212   0.219   3.355   3.578 -0.1671 -0.3198  0.3689
  109MOL    C7726213   0.242   3.401   3.454  0.2271 -0.1727  0.3932
  109MOL    C7826214   0.389   3.435   3.439 -0.0145  0.0220  0.1444
  109MOL    O7926215   0.159   3.406   3.360 -0.2183  0.5013  0.2885
  109MOL    H8026216   0.127   3.413   3.808  1.7663  0.9278 -1.5076
  109MOL    H8126217   7.977   3.360   3.786  0.0985 -0.5887 -1.3846
  109MOL    H8226218   0.015   3.318   3.542 -0.8472 -0.3355  1.4373
  109MOL    H8326219   0.458   3.367   3.390 -0.2845 -0.6338  0.6616
  109MOL    H8426220   0.449   3.462   3.526 -0.3848  1.4293 -0.0261
  109MOL    H8526221   0.398   3.529   3.385 -0.6209  0.9729  1.6580
  109MOL    C8626222   0.112   3.161   3.659  0.6612 -0.2155 -0.1838
  109MOL    C8726223   7.991   3.095   3.677  0.0094  0.8939 -0.0533
  109MOL    O8826224   7.933   3.073   3.548 -0.5589 -0.0780 -0.6188
  109MOL    C8926225   7.807   3.054   3.535 -0.1523 -0.6844  0.3058
  109MOL    C9026226   7.765   3.014   3.399  0.8375  0.0027  0.3801
  109MOL    O9126227   7.726   3.066   3.625 -0.3941  0.6813 -0.3588
  109MOL    H9226228   0.173   3.102   3.590 -1.3679 -2.0634 -0.4377
  109MOL    H9326229   0.170   3.149   3.750 -1.4169 -0.2810  1.1563
  109MOL    H9426230   7.929   3.169   3.728 -1.9557  0.1989 -1.3940
  109MOL    H9526231   7.705   3.096   3.361  1.8028 -1.2853 -4.2694
  109MOL    H9626232   7.708   2.922   3.413 -2.0483  1.6814  0.0578
  109MOL    H9726233   7.853   2.985   3.341 -0.6797 -1.7970 -1.0580
  109MOL    C9826234   8.002   2.961   3.759 -0.4552 -0.3745  0.1642
  109MOL    C9926235   7.982   2.972   3.913 -0.4188  0.1720  0.3689
  109MOL   O10026236   7.842   2.980   3.923 -0.2029 -0.2998 -0.0876
  109MOL   C10126237   7.788   3.055   4.023  0.0630 -1.2512 -0.0491
  109MOL   C10226238   7.641   3.069   3.999  0.6323 -0.4062 -0.2592
  109MOL   O10326239   7.845   3.131   4.100  0.0485 -0.3085  0.5553
  109MOL   H10426240   7.956   2.878   3.706  2.9240 -2.3781  0.1922
  109MOL   H10526241   0.087   2.943   3.746  0.0297  0.9914  2.0447
  109MOL   H10626242   0.021   3.051   3.958  0.3102 -0.7847  1.0832
  109MOL   H10726243   7.623   3.137   3.916 -1.0575  0.8542  1.1262
  109MOL   H10826244   7.598   3.099   4.095 -0.7107  1.2595 -1.3466
  109MOL   H10926245   7.595   2.972   3.979 -0.0411 -0.1989  0.2836
  109MOL   C11026246   8.015   2.840   3.988 -0.4460  0.2928  0.5693
  109MOL   C11126247   0.140   2.781   3.961  0.8944  0.1840  0.4879
  109MOL   O11226248   0.156   2.731   3.828  0.5341 -0.9554  0.5755
  109MOL   C11326249   0.096   2.615   3.794 -0.2143  0.4263  0.0665
  109MOL   C11426250   0.135   2.563   3.654  0.2963 -0.0461 -0.7011
  109MOL   O11526251   0.008   2.561   3.855 -0.5115  0.3136  0.2574
  109MOL   H11626252   7.996   2.855   4.094 -1.5816  0.7458  0.3091
  109MOL   H11726253   7.931   2.773   3.969 -0.8223  1.1123 -0.7238
  109MOL   H11826254   0.161   2.693   4.023 -0.9695  0.7601  1.9712
  109MOL   H11926255   0.043   2.525   3.609 -0.4012 -0.6401  1.1985
  109MOL   H12026256   0.210   2.485   3.669  0.2913  0.4706  2.1771
  109MOL   H12126257   0.178   2.653   3.611  0.6009  1.5368  2.7569
  109MOL   C12226258   0.265   2.884   3.977 -0.0119 -0.6276 -0.3262
  109MOL   C12326259   0.296   2.923   4.124 -0.3402 -1.2906 -0.7003
  109MOL   O12426260   0.341   2.811   4.200  0.1392  0.0455  0.1002
  109MOL   C12526261   0.272   2.788   4.317 -0.1184  0.2826 -0.1651
  109MOL   C12626262   0.280   2.648   4.370  0.1310  0.5893  0.1423
  109MOL   O12726263   0.213   2.874   4.382  0.3076  1.2175  0.7399
  109MOL   H12826264   0.355   2.840   3.935  0.5947  0.4846 -0.2030
  109MOL   H12926265   0.260   2.975   3.919  1.8517  0.6271  1.4058
  109MOL   H13026266   0.209   2.970   4.170  1.2265  0.7761  0.2553
  109MOL   H13126267   0.382   2.615   4.387 -0.7608 -2.8568 -0.6277
  109MOL   H13226268   0.265   2.570   4.295 -0.3835 -1.2293  2.0730
  109MOL   H13326269   0.204   2.623   4.444 -0.5910  2.6314  0.1268
  109MOL   C13426270   0.406   3.027   4.135  0.3771  0.2547  0.2315
  109MOL   C13526271   0.370   3.168   4.087 -0.4308 -0.1982 -0.4479
  109MOL   O13626272   0.269   3.217   4.182  0.5128  0.1882  0.0827
  109MOL   C13726273   0.146   3.264   4.146 -0.0395  0.2591  0.1935
  109MOL   C13826274   0.062   3.309   4.259 -0.2445 -0.5976 -0.0611
  109MOL   O13926275   0.106   3.274   4.028 -0.1182 -0.1819 -0.3205
  109MOL   H14026276   0.432   3.030   4.241  0.3031  3.4088  0.2004
  109MOL   H14126277   0.494   2.994   4.079 -0.3003  0.7150 -1.1310
  109MOL   H14226278   0.327   3.164   3.987  2.5101  0.1800 -1.7796
  109MOL   H14326279   0.106   3.279   4.355  1.9985  0.7307 -0.6446
  109MOL   H14426280   7.984   3.266   4.245 -0.2871  0.0139 -1.6722
  109MOL   H14526281   0.047   3.416   4.265  0.4152 -0.3825 -1.9905
  109MOL   C14626282   0.480   3.269   4.081 -0.0491 -0.1842  0.0707
  109MOL   C14726283   0.601   3.242   3.980  0.6530 -0.2801  0.6410
  109MOL   O14826284   0.541   3.219   3.854 -1.1253 -0.0609  0.3615
  109MOL   C14926285   0.550   3.096   3.798  0.0164  0.2334 -0.2998
  109MOL   C15026286   0.532   3.091   3.646  0.1441 -0.9846 -0.0155
  109MOL   O15126287   0.590   2.997   3.862  0.3802 -0.2227 -0.1118
  109MOL   H15226288   0.428   3.358   4.044  0.0222  0.6698  1.9897
  109MOL   H15326289   0.523   3.292   4.178 -1.1134  1.4124  0.1876
  109MOL   H15426290   0.650   3.148   4.004 -2.9490 -1.5600  3.3784
  109MOL   H15526291   0.438   3.129   3.607  0.7215 -0.2344 -0.6816
  109MOL   H15626292   0.557   2.990   3.614  0.6011 -1.1941  0.9767
  109MOL   H15726293   0.608   3.154   3.600  1.6032 -2.3051  0.5248
  109MOL   C15826294   0.717   3.353   3.968 -0.5505 -0.1581 -0.3323
  109MOL   C15926295   0.670   3.479   3.899  0.4833 -1.1426 -0.1027
  109MOL   O16026296   0.568   3.552   3.955 -0.2859  0.2845  0.6277
  109MOL   C16126297   0.457   3.589   3.883 -0.2168  0.6382 -0.1502
  109MOL   C16226298   0.367   3.679   3.967 -0.7886 -0.1511  0.2771
  109MOL   O16326299   0.423   3.558   3.772  0.7784 -0.1851  0.4130
  109MOL   H16426300   0.750   3.371   4.071  0.4099 -2.4026 -0.2209
  109MOL   H16526301   0.805   3.315   3.917  0.1993  0.9949  0.0618
  109MOL   H16626302   0.635   3.438   3.804  0.1176  1.3659 -1.0824
  109MOL   H16726303   0.370   3.649   4.071 -0.9529 -0.9167  0.0681
  109MOL   H16826304   0.261   3.664   3.942 -0.8811  1.2248 -0.1899
  109MOL   H16926305   0.399   3.783   3.960 -1.8921  0.0874 -1.8104
  109MOL   C17026306   0.780   3.578   3.859 -0.1836  0.5285  0.3073
  109MOL   C17126307   0.821   3.680   3.969 -0.1572  0.0298  0.0186
  109MOL   O17226308   0.942   3.640   4.032 -0.2192  0.3648 -0.2919
  109MOL   C17326309   0.943   3.595   4.156  0.8416 -0.2507  0.3432
  109MOL   C17426310   1.088   3.606   4.193  0.4442  0.4146  0.0856
  109MOL   O17526311   0.853   3.556   4.229 -0.9264  0.2562  0.3186
  109MOL   H17626312   0.868   3.537   3.810  0.8790  2.4695  0.5125
  109MOL   H17726313   0.742   3.631   3.771  2.0326 -0.3075 -1.2054
  109MOL   H17826314   0.745   3.684   4.047 -1.8088  0.7931 -1.6044
  109MOL   H17926315   1.164   3.583   4.119  0.4796  1.7985 -0.3232
  109MOL   H18026316   1.095   3.531   4.272 -1.1914  0.6049  0.4321
  109MOL   H18126317   1.106   3.708   4.227  1.2929 -0.1033  1.2112
  109MOL   C18226318   0.840   3.825   3.909 -0.3555 -0.3887  0.0337
  109MOL   C18326319   0.884   3.941   4.000 -0.1200 -0.3611  0.2985
  109MOL   O18426320   1.025   3.928   4.022  0.1706  0.0160 -0.0130
  109MOL   C18526321   1.083   3.960   4.137  0.6650 -0.3369  0.3064
  109MOL   C18626322   1.237   3.969   4.134 -0.4458 -0.0329  0.0905
  109MOL   O18726323   1.019   3.996   4.235  0.7341  0.2988 -0.1718
  109MOL   H18826324   0.902   3.827   3.818  0.8460 -0.2099  0.8420
  109MOL   H18926325   0.745   3.856   3.866 -0.4143 -1.9031 -0.9971
  109MOL   H19026326   0.825   3.937   4.091  1.3007 -0.4366  1.2221
  109MOL   H19126327   1.273   4.030   4.216 -1.1035  3.5111 -2.1331
  109MOL   H19226328   1.281   4.015   4.045  0.1474  0.2767  0.5367
  109MOL   H19326329   1.259   3.866   4.162 -0.2871  0.3914  1.5175
  109MOL   C19426330   0.867   4.072   3.922 -0.3992 -0.6295 -0.4750
  109MOL   C19526331   0.918   4.196   3.994 -1.0171  0.0010 -1.0642
  109MOL   O19626332   0.955   4.285   3.887  0.5573  0.2507  0.3258
  109MOL   C19726333   1.076   4.314   3.847  0.0016 -0.7542 -0.7164
  109MOL   C19826334   1.072   4.383   3.707  0.7727 -0.5916  0.2171
  109MOL   O19926335   1.185   4.282   3.899 -0.3390 -0.4199  0.4271
  109MOL   H20026336   0.927   4.049   3.834 -1.5620 -0.3989 -1.3449
  109MOL   H20126337   0.765   4.080   3.884 -1.0553  0.1887  1.4007
  109MOL   H20226338   1.004   4.174   4.057 -1.3082  0.7264 -0.4077
  109MOL   H20326339   1.049   4.304   3.636 -0.7179  0.7569 -0.8467
  109MOL   H20426340   1.156   4.442   3.671 -0.1876  1.4666  1.2526
  109MOL   H20526341   0.982   4.443   3.691  2.4257  2.2689  1.3145
  109MOL   C20626342   0.813   4.265   4.077 -0.4846 -0.1465 -0.4081
  109MOL   C20726343   0.854   4.381   4.173  0.0831 -0.6875 -0.5994
  109MOL   O20826344   0.973   4.348   4.240  0.3157 -0.3862  0.2766
  109MOL   C20926345   0.982   4.305   4.360  0.3669 -0.1621  0.2645
  109MOL   C21026346   1.122   4.248   4.400 -0.3764 -0.3839 -0.2404
  109MOL   O21126347   0.896   4.325   4.444  0.5449 -0.7159  0.3521
  109MOL   H21226348   0.721   4.283   4.021  0.1801 -1.0485 -1.8217
  109MOL   H21326349   0.780   4.189   4.148  2.3299  0.9629  2.2259
  109MOL   H21426350   0.781   4.392   4.252  1.6567 -2.4155  1.1612
  109MOL   H21526351   1.188   4.315   4.455  1.6686 -1.2537 -1.6053
  109MOL   H21626352   1.170   4.238   4.303  1.2364 -0.2131  0.5185
  109MOL   H21726353   1.121   4.165   4.470  0.3571 -0.3004 -0.1284
  109MOL   C21826354   0.882   4.512   4.093 -0.0856  0.3634  0.0921
  109MOL   C21926355   0.794   4.633   4.147  0.7708  0.2141  0.2905
  109MOL   O22026356   0.847   4.678   4.268  0.7953  0.1543 -0.0018
  109MOL   C22126357   0.769   4.700   4.383  0.4038  0.0214 -0.3291
  109MOL   C22226358   0.842   4.732   4.514  0.4600 -0.1439  0.0642
  109MOL   O22326359   0.643   4.696   4.379 -0.4167 -1.0862 -0.2037
  109MOL   H22426360   0.989   4.528   4.081 -0.1527  1.4398  0.8862
  109MOL   H22526361   0.845   4.483   3.995 -0.9597 -0.8608  0.7665
  109MOL   H22626362   0.698   4.584   4.164  0.0977  1.0532 -1.0725
  109MOL   H22726363   0.899   4.825   4.509 -1.1897  0.7734 -2.5347
  109MOL   H22826364   0.903   4.646   4.542  0.3458 -0.5400 -0.9046
  109MOL   H22926365   0.764   4.750   4.588  0.3638  0.0198 -0.0775
  109MOL   C23026366   0.792   4.753   4.055 -0.7601  0.5040 -0.2085
  109MOL   C23126367   0.684   4.863   4.082 -0.1018 -0.5198  0.3703
  109MOL   O23226368   0.723   4.973   4.003  0.2291 -0.6700  0.7043
  109MOL   C23326369   0.634   5.034   3.916 -0.0470 -0.2495  0.0185
  109MOL   C23426370   0.695   5.153   3.843  0.2301  0.3263  0.3824
  109MOL   O23526371   0.515   5.001   3.902  0.2546 -0.6651 -0.4893
  109MOL   H23626372   0.887   4.806   4.068 -1.4317  1.9086 -0.8756
  109MOL   H23726373   0.790   4.714   3.953 -0.9617 -2.0403  0.7431
  109MOL   H23826374   0.688   4.894   4.186  0.3073 -2.7205  1.0528
  109MOL   H23926375   0.706   5.236   3.913  2.6199  0.6104 -0.2750
  109MOL   H24026376   0.636   5.175   3.754  1.0631  0.1502 -0.2249
  109MOL   H24126377   0.794   5.132   3.803 -0.0144  1.3933 -0.8435
  109MOL   H24226378   0.582   4.826   4.064  0.2619 -0.6567 -1.5336
  110MOL     C126379   5.798   0.788   4.134  0.3773 -0.4239 -0.2850
  110MOL     C226380   5.874   0.662   4.085  0.4353 -0.6528 -0.3050
  110MOL     O326381   6.014   0.688   4.095  0.3352 -0.1524 -0.0381
  110MOL     C426382   6.100   0.667   3.983  0.3672  0.1644 -0.1442
  110MOL     C526383   6.242   0.681   4.024 -0.6231 -0.2108  0.7659
  110MOL     O626384   6.072   0.652   3.865  0.5128  0.3030  0.5827
  110MOL     H726385   5.695   0.774   4.102  0.6428 -1.1024 -0.8517
  110MOL     H826386   5.840   0.877   4.087  0.5817 -0.3186  0.0920
  110MOL     H926387   5.849   0.648   3.980  0.2212  0.3285 -0.3910
  110MOL    H1026388   6.304   0.692   3.935 -0.9594 -1.3203  0.3942
  110MOL    H1126389   6.270   0.601   4.093 -1.9511 -0.0285  1.5181
  110MOL    H1226390   6.247   0.776   4.078  2.6756  0.2360 -0.1673
  110MOL    H1326391   5.820   0.795   4.241  0.6681  1.5830 -0.4442
  110MOL    C1426392   5.841   0.540   4.157 -0.0470  0.5505  0.2471
  110MOL    C1526393   5.700   0.483   4.113  0.7866 -0.2848 -0.4444
  110MOL    O1626394   5.730   0.436   3.980  0.2323  0.1823 -0.0442
  110MOL    C1726395   5.639   0.469   3.888 -0.3554  0.1396 -0.2509
  110MOL    C1826396   5.693   0.424   3.750  0.8143 -0.7135  0.2755
  110MOL    O1926397   5.524   0.504   3.910 -0.2377  0.3005 -0.1689
  110MOL    H2026398   5.905   0.455   4.133  0.2894  1.0084 -0.4750
  110MOL    H2126399   5.854   0.560   4.263  0.0334  1.1660  0.1225
  110MOL    H2226400   5.627   0.564   4.110  1.2588  0.2698  1.7309
  110MOL    H2326401   5.648   0.328   3.724 -1.0017  0.0579  0.4642
  110MOL    H2426402   5.802   0.427   3.742  0.7269  0.5898 -0.6050
  110MOL    H2526403   5.660   0.490   3.670  2.4531 -0.1389  0.0465
  110MOL    C2626404   5.652   0.368   4.204  0.0595  0.6387  0.0576
  110MOL    C2726405   5.617   0.425   4.346 -0.4859  1.3130  0.4502
  110MOL    O2826406   5.733   0.437   4.427 -0.1331  0.3042  0.0956
  110MOL    C2926407   5.734   0.366   4.541  0.5783 -0.0560  0.2839
  110MOL    C3026408   5.856   0.399   4.628  0.3775 -0.1752 -0.2129
  110MOL    O3126409   5.651   0.289   4.583 -0.3111  0.5330  0.0570
  110MOL    H3226410   5.558   0.330   4.164 -0.1378  2.7907 -1.5867
  110MOL    H3326411   5.730   0.291   4.208 -1.6155 -1.0124  2.4158
  110MOL    H3426412   5.559   0.341   4.385  1.2086  0.5203  1.3017
  110MOL    H3526413   5.843   0.366   4.731  0.8535  2.7299  0.8311
  110MOL    H3626414   5.850   0.507   4.636  1.9104 -0.0258 -1.0111
  110MOL    H3726415   5.949   0.374   4.578  1.9920 -1.7831  3.3532
  110MOL    C3826416   5.538   0.558   4.366  0.0121  0.4123 -0.3665
  110MOL    C3926417   5.408   0.580   4.287  0.3032 -0.1356  0.2902
  110MOL    O4026418   5.305   0.541   4.381 -0.5021  0.0252  0.2920
  110MOL    C4126419   5.246   0.416   4.385 -0.7508 -0.2682 -0.4641
  110MOL    C4226420   5.149   0.408   4.506 -0.2155  0.0025  0.4161
  110MOL    O4326421   5.263   0.320   4.306  0.0238  0.4378  0.4172
  110MOL    H4426422   5.531   0.576   4.473  1.0031 -0.5384 -0.1377
  110MOL    H4526423   5.603   0.641   4.338 -0.0809  0.5938 -0.0610
  110MOL    H4626424   5.397   0.524   4.194 -2.5236 -0.3846  0.7171
  110MOL    H4726425   5.165   0.314   4.558 -1.7088 -0.4305  0.1171
  110MOL    H4826426   5.046   0.390   4.473 -0.4878  0.5104  0.9743
  110MOL    H4926427   5.154   0.500   4.565 -1.4460 -0.2992  1.0146
  110MOL    C5026428   5.380   0.729   4.251 -1.0123 -0.4364 -0.7126
  110MOL    C5126429   5.236   0.753   4.196 -0.2855  0.3376 -0.0499
  110MOL    O5226430   5.209   0.894   4.193  0.1052  0.0796 -0.2673
  110MOL    C5326431   5.172   0.959   4.302 -0.0667 -0.0455 -0.3473
  110MOL    C5426432   5.166   1.110   4.278  0.0852  0.0889  0.4517
  110MOL    O5526433   5.152   0.914   4.414  0.0823  0.0277  0.5818
  110MOL    H5626434   5.385   0.789   4.341  0.5040  0.2084 -1.2136
  110MOL    H5726435   5.451   0.771   4.180  1.7076  0.7035  2.5501
  110MOL    H5826436   5.164   0.710   4.266  0.4088 -0.8682 -0.0575
  110MOL    H5926437   5.104   1.157   4.356 -2.5144  1.4286 -2.3029
  110MOL    H6026438   5.126   1.135   4.180 -1.6575  0.5976  1.2644
  110MOL    H6126439   5.264   1.157   4.288  0.2580 -0.0533 -0.5671
  110MOL    C6226440   5.212   0.688   4.059  0.3406 -0.2842  0.3360
  110MOL    C6326441   5.075   0.717   3.992  0.0681  0.3340  0.2271
  110MOL    O6426442   5.092   0.836   3.919 -0.1056  0.4963 -0.4690
  110MOL    C6526443   4.994   0.922   3.898 -0.0571 -0.3360  0.7520
  110MOL    C6626444   5.032   1.023   3.794  0.4698 -0.6301 -0.4894
  110MOL    O6726445   4.884   0.912   3.944  0.2800 -0.2637 -0.8648
  110MOL    H6826446   5.297   0.699   3.992  1.1932  0.8559  1.5678
  110MOL    H6926447   5.209   0.581   4.080  1.2815 -0.1794  1.0653
  110MOL    H7026448   5.005   0.741   4.072 -1.0087  2.3058 -1.2704
  110MOL    H7126449   4.975   1.002   3.703  0.5410  1.7095 -1.1027
  110MOL    H7226450   5.137   1.014   3.764  1.0553 -1.3282  1.7141
  110MOL    H7326451   5.001   1.124   3.821  2.2162 -0.4349  0.8439
  110MOL    C7426452   5.031   0.615   3.889  0.0027 -0.4317 -0.2329
  110MOL    C7526453   4.985   0.476   3.948  0.3162  0.0266  0.4789
  110MOL    O7626454   4.860   0.497   4.017  0.0169 -0.0013  0.2698
  110MOL    C7726455   4.860   0.492   4.153 -0.0634  0.9464  0.6334
  110MOL    C7826456   4.728   0.513   4.223  0.4172 -0.1989  1.0587
  110MOL    O7926457   4.962   0.490   4.225 -0.1494 -0.8486 -0.3086
  110MOL    H8026458   4.949   0.656   3.830 -0.6225  0.7505  1.4236
  110MOL    H8126459   5.115   0.604   3.820  0.2721 -1.0206  0.1765
  110MOL    H8226460   5.061   0.445   4.020  1.4351  1.6871  0.0559
  110MOL    H8326461   4.739   0.550   4.325 -2.4557 -1.5273  1.9020
  110MOL    H8426462   4.667   0.423   4.234  1.8529 -0.9280  3.6253
  110MOL    H8526463   4.670   0.576   4.157  0.9635  0.1711  0.9296
  110MOL    C8626464   4.957   0.368   3.838 -0.4827 -0.9321 -0.6036
  110MOL    C8726465   5.083   0.321   3.755 -1.2769 -0.4711  0.5974
  110MOL    O8826466   5.157   0.242   3.847  0.2434 -0.1529  0.5543
  110MOL    C8926467   5.287   0.254   3.854 -0.2964  0.2238  0.7930
  110MOL    C9026468   5.352   0.188   3.974 -0.2401  0.2558 -0.2668
  110MOL    O9126469   5.346   0.307   3.763 -0.4975  0.2779  0.3573
  110MOL    H9226470   4.903   0.285   3.882 -1.6948  1.3627  2.4380
  110MOL    H9326471   4.895   0.412   3.759 -0.1903 -0.0484 -0.3443
  110MOL    H9426472   5.140   0.404   3.714  0.4276 -1.3445  1.1537
  110MOL    H9526473   5.378   0.084   3.957  1.6526  0.9502 -1.8474
  110MOL    H9626474   5.276   0.195   4.051 -0.1135 -0.2816 -0.0945
  110MOL    H9726475   5.434   0.247   4.013 -2.1166  2.3177  0.6652
  110MOL    C9826476   5.040   0.213   3.653 -0.6577 -0.1438 -0.3213
  110MOL    C9926477   5.156   0.162   3.566 -0.2061 -0.2091  0.0192
  110MOL   O10026478   5.122   0.040   3.496  0.1741  0.0727  0.2852
  110MOL   C10126479   5.170   7.950   3.537 -0.1503  0.7341 -0.2265
  110MOL   C10226480   5.096   7.827   3.493  0.3155  0.0697 -0.6429
  110MOL   O10326481   5.270   7.929   3.602  0.4852  0.1654  0.4757
  110MOL   H10426482   4.970   0.142   3.697 -1.3865  0.9248  0.2634
  110MOL   H10526483   4.979   0.270   3.583  0.6229  0.7832 -0.7010
  110MOL   H10626484   5.244   0.142   3.627 -1.1538  2.0714  2.2599
  110MOL   H10726485   4.993   7.843   3.459 -1.3496 -0.3144  3.8901
  110MOL   H10826486   5.084   7.754   3.573  2.1127 -2.0196 -2.2324
  110MOL   H10926487   5.142   7.774   3.410 -1.5453 -2.3329 -0.2007
  110MOL   C11026488   5.200   0.266   3.459  0.3875  0.5927  0.1381
  110MOL   C11126489   5.312   0.223   3.365 -0.2193  0.2571 -0.4808
  110MOL   O11226490   5.284   0.280   3.239  0.0932 -0.0291  0.4151
  110MOL   C11326491   5.256   0.197   3.126 -0.0407  0.1703  0.3240
  110MOL   C11426492   5.234   0.282   2.998  0.5537  0.7247 -0.6780
  110MOL   O11526493   5.248   0.074   3.126 -0.3074  0.2343 -0.1289
  110MOL   H11626494   5.122   0.287   3.387 -0.2634  0.3139  0.7502
  110MOL   H11726495   5.219   0.366   3.497  2.9362  0.9023 -1.8448
  110MOL   H11826496   5.309   0.114   3.354 -1.1728  0.0999  1.1853
  110MOL   H11926497   5.142   0.246   2.953  0.9841  0.5948 -1.4460
  110MOL   H12026498   5.326   0.274   2.941  0.9243  2.1409 -0.3103
  110MOL   H12126499   5.224   0.390   3.010 -1.8835  0.3901  0.8163
  110MOL   C12226500   5.447   0.259   3.415  0.5551  0.5880 -0.2154
  110MOL   C12326501   5.560   0.201   3.332  0.1455 -0.0689 -0.0985
  110MOL   O12426502   5.680   0.273   3.368 -0.1951 -0.0567  0.4494
  110MOL   C12526503   5.718   0.372   3.285  0.3511  0.3481 -0.1967
  110MOL   C12626504   5.854   0.428   3.334  0.5788 -0.4557  0.1441
  110MOL   O12726505   5.651   0.426   3.196  0.3005  0.4073 -0.2428
  110MOL   H12826506   5.452   0.368   3.411  0.0113  0.6063 -0.5342
  110MOL   H12926507   5.457   0.232   3.520 -0.7662 -1.8953 -0.7044
  110MOL   H13026508   5.545   0.221   3.226  0.0646 -2.1933 -0.5019
  110MOL   H13126509   5.922   0.422   3.250  0.8052  2.6108  0.0754
  110MOL   H13226510   5.892   0.357   3.407  0.3948 -0.7002  0.0032
  110MOL   H13326511   5.851   0.525   3.384 -1.3208 -1.1797  1.5083
  110MOL   C13426512   5.581   0.050   3.362  0.1021 -0.1639 -0.2150
  110MOL   C13526513   5.689   8.013   3.266 -0.1940  0.1254  0.3188
  110MOL   O13626514   5.739   7.911   3.349 -0.7876 -0.1538 -0.1575
  110MOL   C13726515   5.863   7.915   3.411  1.1365  0.3394  0.5740
  110MOL   C13826516   5.892   7.792   3.485 -0.2347 -0.6138 -0.1678
  110MOL   O13926517   5.943   8.008   3.409  0.5493  0.0552 -0.5084
  110MOL   H14026518   5.611   0.030   3.465  1.9210  1.9172 -0.2987
  110MOL   H14126519   5.491   8.012   3.345  0.3086 -1.6158  3.3053
  110MOL   H14226520   5.754   0.075   3.243 -1.3057  1.1147  0.7122
  110MOL   H14326521   5.875   7.707   3.419 -2.7681 -0.0285 -0.3228
  110MOL   H14426522   5.844   7.773   3.581  1.9050 -1.8021  0.6944
  110MOL   H14526523   5.998   7.776   3.501 -0.3560 -1.7557 -0.4319
  110MOL   C14626524   5.634   7.959   3.130  0.1656 -0.1819  0.2541
  110MOL   C14726525   5.755   7.917   3.033  0.6477  0.4559 -0.1467
  110MOL   O14826526   5.833   7.811   3.092  0.3905  0.1103  0.0256
  110MOL   C14926527   5.962   7.805   3.068 -0.9234 -0.9152  0.0165
  110MOL   C15026528   6.030   7.672   3.089  0.7599 -0.3622 -0.8039
  110MOL   O15126529   6.031   7.889   3.015  0.5449  0.3384 -0.3901
  110MOL   H15226530   5.576   7.871   3.158  1.0593 -0.0723  2.5966
  110MOL   H15326531   5.568   0.014   3.090  0.0911 -0.1521  0.4321
  110MOL   H15426532   5.830   7.996   3.033  2.9697 -1.6241  2.8592
  110MOL   H15526533   6.021   7.668   3.197 -1.4359  1.0779 -0.8997
  110MOL   H15626534   6.131   7.676   3.048  0.9451  1.3062 -0.2004
  110MOL   H15726535   5.964   7.596   3.045  1.2610 -1.9266  1.0650
  110MOL   C15826536   5.707   7.860   2.897  0.9081 -0.0950 -0.2805
  110MOL   C15926537   5.625   7.946   2.814  1.0942  0.2618  0.3024
  110MOL   O16026538   5.685   0.042   2.767  0.3925 -0.5152 -0.2954
  110MOL   C16126539   5.634   0.165   2.789  0.1810 -0.1427  0.4091
  110MOL   C16226540   5.730   0.276   2.748 -0.0042 -0.1693 -0.0642
  110MOL   O16326541   5.529   0.191   2.851  0.0818 -0.6855  0.2010
  110MOL   H16426542   5.790   7.827   2.834 -0.5117 -3.3098 -0.5247
  110MOL   H16526543   5.647   7.771   2.915  1.7714 -0.9659 -1.6510
  110MOL   H16626544   5.540   7.974   2.877 -0.3533  1.1303 -2.0011
  110MOL   H16726545   5.818   0.238   2.696 -0.5075 -1.0586 -0.2774
  110MOL   H16826546   5.783   0.331   2.825  1.3887 -2.3293  0.5807
  110MOL   H16926547   5.679   0.350   2.686 -1.0474 -1.4950 -0.8479
  110MOL   C17026548   5.554   7.875   2.692  0.0321 -0.2111 -0.6012
  110MOL   C17126549   5.418   7.807   2.724  0.4747 -0.2155 -0.1341
  110MOL   O17226550   5.312   7.899   2.730 -0.1454  0.2081  0.3932
  110MOL   C17326551   5.199   7.884   2.802 -0.2636 -0.0741  0.3116
  110MOL   C17426552   5.101   7.998   2.785  0.4951 -0.4567 -0.2851
  110MOL   O17526553   5.174   7.785   2.871  0.4266 -0.1310 -0.4339
  110MOL   H17626554   5.512   7.947   2.622  0.1073  0.4823  0.0561
  110MOL   H17726555   5.627   7.819   2.634 -0.1330 -0.4011 -0.6267
  110MOL   H17826556   5.422   7.761   2.822 -0.9979 -1.7582 -0.7631
  110MOL   H17926557   4.998   7.970   2.810 -0.4261  2.8806 -0.1240
  110MOL   H18026558   5.095   0.009   2.681  1.5929 -1.1252 -0.5673
  110MOL   H18126559   5.111   0.068   2.844 -0.2097 -0.2172 -0.5369
  110MOL   C18226560   5.375   7.690   2.630 -0.6469 -0.4122 -0.6006
  110MOL   C18326561   5.470   7.568   2.646  0.0175 -0.0926  0.3005
  110MOL   O18426562   5.452   7.511   2.778 -0.0494  0.2168 -0.0957
  110MOL   C18526563   5.552   7.506   2.865 -0.2547  0.1288 -0.0044
  110MOL   C18626564   5.509   7.483   3.006  0.3068 -0.2415  0.2870
  110MOL   O18726565   5.671   7.509   2.837 -0.0222  0.2909 -0.7428
  110MOL   H18826566   5.272   7.658   2.646 -0.7087 -0.2360 -0.6468
  110MOL   H18926567   5.377   7.725   2.527  0.5361  1.0291 -0.1078
  110MOL   H19026568   5.574   7.600   2.636 -0.0584 -0.3273 -1.2449
  110MOL   H19126569   5.419   7.540   3.030  0.2850 -0.9993  2.1158
  110MOL   H19226570   5.593   7.508   3.070  1.4733 -2.8213 -0.2104
  110MOL   H19326571   5.488   7.377   3.020 -3.7103  0.3284 -0.7110
  110MOL   C19426572   5.447   7.455   2.546 -0.6693  0.1854  0.0221
  110MOL   C19526573   5.462   7.496   2.396  0.5278 -0.2044  0.0035
  110MOL   O19626574   5.600   7.497   2.353 -0.2645  0.1245 -0.5120
  110MOL   C19726575   5.653   7.606   2.297 -0.2947  0.1561 -0.0704
  110MOL   C19826576   5.784   7.588   2.220  0.0460 -0.0145  0.1481
  110MOL   O19926577   5.593   7.717   2.309  0.9823  0.2342 -0.3195
  110MOL   H20026578   5.510   7.370   2.572 -1.2193 -0.5378 -0.9835
  110MOL   H20126579   5.345   7.419   2.564  0.3423 -3.3436 -0.8540
  110MOL   H20226580   5.406   7.587   2.375 -0.8957 -0.6820  1.6313
  110MOL   H20326581   5.769   7.541   2.123 -0.4126  0.1392  0.1469
  110MOL   H20426582   5.839   7.519   2.285  0.6187  2.5600  2.5125
  110MOL   H20526583   5.847   7.676   2.212 -1.2963  0.7739 -1.9836
  110MOL   C20626584   5.407   7.396   2.294  0.7045 -0.2121 -0.1446
  110MOL   C20726585   5.256   7.366   2.306  0.1705 -0.2747 -0.2651
  110MOL   O20826586   5.230   7.254   2.391 -0.0234 -0.2241 -0.0242
  110MOL   C20926587   5.197   7.132   2.338  0.5978  0.1020  0.3220
  110MOL   C21026588   5.139   7.039   2.440 -0.1614  0.6638 -0.3035
  110MOL   O21126589   5.212   7.100   2.221  0.5720  0.1732  0.0166
  110MOL   H21226590   5.422   7.434   2.193  3.3537  0.8507  0.5907
  110MOL   H21326591   5.461   7.302   2.300  2.8034  1.0381  1.1161
  110MOL   H21426592   5.224   7.343   2.204  0.2651 -0.4178 -0.2623
  110MOL   H21526593   5.057   6.986   2.391 -0.4039  1.0927 -0.3651
  110MOL   H21626594   5.106   7.102   2.523  2.1136  0.7975  0.5290
  110MOL   H21726595   5.202   6.960   2.479  1.8979  1.3601 -2.1445
  110MOL   C21826596   5.167   7.494   2.336  0.0702  0.0330 -0.1929
  110MOL   C21926597   5.017   7.472   2.325  0.4226  0.4061 -0.0590
  110MOL   O22026598   4.935   7.581   2.358  0.3324 -0.4079  0.3347
  110MOL   C22126599   4.925   7.629   2.484 -0.2106  0.0332 -0.5203
  110MOL   C22226600   4.826   7.738   2.486  0.2446 -0.0586  0.0680
  110MOL   O22326601   4.993   7.587   2.584 -0.2942 -0.3784  0.0156
  110MOL   H22426602   5.189   7.528   2.437  0.4640 -2.1961  0.4951
  110MOL   H22526603   5.177   7.585   2.278 -0.3725  1.2371  1.5918
  110MOL   H22626604   4.984   7.389   2.388 -0.1184  0.9757  0.4222
  110MOL   H22726605   4.849   7.796   2.575 -2.2990 -1.0774  1.4669
  110MOL   H22826606   4.727   7.692   2.493 -0.6296  1.8209  0.3350
  110MOL   H22926607   4.822   7.801   2.397 -2.6496 -0.2803 -0.0111
  110MOL   C23026608   4.959   7.440   2.180  0.0337 -0.1303 -0.1893
  110MOL   C23126609   4.826   7.371   2.193  0.1531 -0.2786  0.2314
  110MOL   O23226610   4.798   7.307   2.064  0.2472  0.0435 -0.2979
  110MOL   C23326611   4.678   7.320   2.004  0.0996  0.6689  0.6859
  110MOL   C23426612   4.664   7.230   1.884 -0.7455  0.5215  0.8723
  110MOL   O23526613   4.582   7.385   2.040  0.3249 -0.1158 -0.2217
  110MOL   H23626614   4.942   7.528   2.118  0.6328  0.0082 -0.1579
  110MOL   H23726615   5.031   7.383   2.123  0.6027  1.6834 -1.3291
  110MOL   H23826616   4.746   7.441   2.218  0.7768  0.6372 -0.3137
  110MOL   H23926617   4.561   7.233   1.848 -0.3007 -1.2827 -0.5674
  110MOL   H24026618   4.683   7.129   1.919 -0.1498  0.0745 -0.7318
  110MOL   H24126619   4.738   7.254   1.808  1.1213  0.5384  2.6522
  110MOL   H24226620   4.827   7.293   2.268 -1.5584  0.0840  0.6653
  111MOL     C126621   1.353   6.087   2.432  0.1997 -0.5902  0.2625
  111MOL     C226622   1.222   6.158   2.429  0.2504  0.0936 -0.5977
  111MOL     O326623   1.127   6.057   2.415  0.0960 -0.8304 -0.4613
  111MOL     C426624   1.000   6.088   2.391  0.1203  0.0750  0.4284
  111MOL     C526625   0.915   5.970   2.344 -0.2617  0.4710  0.0292
  111MOL     O626626   0.945   6.199   2.397  0.5790 -0.4433  0.0551
  111MOL     H726627   1.436   6.155   2.453 -0.6580  1.0574 -1.5195
  111MOL     H826628   1.367   6.051   2.330  0.5251 -0.7659  0.3686
  111MOL     H926629   1.219   6.228   2.345 -1.5120 -0.9448 -1.4380
  111MOL    H1026630   0.877   5.993   2.245 -1.4865 -0.0676  0.3734
  111MOL    H1126631   0.833   5.950   2.413  0.4402 -0.5728  0.5857
  111MOL    H1226632   0.973   5.878   2.350  1.4609  1.4898 -0.5978
  111MOL    H1326633   1.367   6.018   2.515  0.7487  0.7017  1.2698
  111MOL    C1426634   1.196   6.236   2.558  0.3605  0.8009 -0.0254
  111MOL    C1526635   1.294   6.348   2.583 -0.6651  0.1253  0.0658
  111MOL    O1626636   1.274   6.451   2.491 -0.3089 -0.4144 -0.1436
  111MOL    C1726637   1.365   6.482   2.404  1.1695 -0.1614 -0.5227
  111MOL    C1826638   1.321   6.604   2.318 -0.0354  0.4993 -0.0052
  111MOL    O1926639   1.482   6.445   2.413  0.2160 -0.0209  0.3752
  111MOL    H2026640   1.106   6.298   2.563  0.0610  0.3084  0.6913
  111MOL    H2126641   1.198   6.165   2.641 -0.9150  0.4146 -0.3212
  111MOL    H2226642   1.397   6.315   2.576  0.0859  2.1950  1.0954
  111MOL    H2326643   1.237   6.655   2.365 -0.4161 -0.0158 -0.1220
  111MOL    H2426644   1.283   6.565   2.224 -0.5378  0.7898  0.0720
  111MOL    H2526645   1.407   6.668   2.300  1.5931 -1.4061  0.7305
  111MOL    C2626646   1.288   6.406   2.722  0.4352  0.0421 -0.4455
  111MOL    C2726647   1.386   6.527   2.743 -0.0597  0.6304 -0.8807
  111MOL    O2826648   1.349   6.601   2.858 -0.0023  0.0529 -0.0426
  111MOL    C2926649   1.277   6.712   2.847 -0.2195  0.3978  0.1021
  111MOL    C3026650   1.237   6.776   2.979  0.1421  0.2221  0.2333
  111MOL    O3126651   1.237   6.761   2.747  0.3948 -0.0150  0.3253
  111MOL    H3226652   1.191   6.450   2.744 -0.4237 -0.4349 -2.9975
  111MOL    H3326653   1.304   6.325   2.793  0.3529 -0.8121 -1.3793
  111MOL    H3426654   1.392   6.591   2.655  0.8788  1.4891 -0.2058
  111MOL    H3526655   1.142   6.830   2.970 -0.4269 -1.0048 -1.2826
  111MOL    H3626656   1.317   6.844   3.009  0.2955  1.0552 -1.9285
  111MOL    H3726657   1.218   6.692   3.045  1.1861  1.1315  1.7355
  111MOL    C3826658   1.529   6.470   2.750 -0.3484 -1.0473 -0.7815
  111MOL    C3926659   1.637   6.582   2.771 -0.0804  0.4617  0.0063
  111MOL    O4026660   1.636   6.630   2.907 -0.1097  0.2557 -0.0860
  111MOL    C4126661   1.639   6.763   2.923 -0.0554  0.2284 -0.1758
  111MOL    C4226662   1.649   6.810   3.069 -0.9546 -0.3018 -0.0385
  111MOL    O4326663   1.632   6.846   2.835 -0.2713 -0.6806 -0.6400
  111MOL    H4426664   1.526   6.393   2.826 -1.5130 -0.0161  0.2415
  111MOL    H4526665   1.556   6.417   2.658  0.4897  2.6241 -2.7601
  111MOL    H4626666   1.617   6.660   2.697  0.5663 -1.1420 -1.8964
  111MOL    H4726667   1.601   6.732   3.129 -0.7501 -0.2275  0.2227
  111MOL    H4826668   1.591   6.901   3.085  0.3861  0.6411 -0.4620
  111MOL    H4926669   1.751   6.819   3.106 -0.2196 -0.6064 -1.9630
  111MOL    C5026670   1.783   6.526   2.756 -0.7387 -0.7352 -0.8284
  111MOL    C5126671   1.891   6.634   2.763 -0.6020 -0.1660 -0.6589
  111MOL    O5226672   2.028   6.590   2.780  0.4666  0.2596  0.0154
  111MOL    C5326673   2.073   6.557   2.900  0.2681  0.4699 -0.2356
  111MOL    C5426674   2.194   6.463   2.893  0.2343 -0.2967 -0.0369
  111MOL    O5526675   2.015   6.584   3.007 -0.6038 -0.4839 -0.0530
  111MOL    H5626676   1.813   6.444   2.822  2.2767  0.8069 -0.2214
  111MOL    H5726677   1.795   6.471   2.662  0.6242 -2.4126  0.2872
  111MOL    H5826678   1.870   6.699   2.847 -1.5875 -0.2002 -0.8714
  111MOL    H5926679   2.273   6.487   2.964  1.6132  0.5006 -1.8135
  111MOL    H6026680   2.243   6.473   2.797 -0.8406  0.5299 -0.5178
  111MOL    H6126681   2.173   6.360   2.921  1.3074 -0.1561  1.3122
  111MOL    C6226682   1.883   6.737   2.644  0.9561 -0.3748 -0.4206
  111MOL    C6326683   1.920   6.878   2.685  0.5880  0.2019 -1.0673
  111MOL    O6426684   2.041   6.877   2.763 -0.3311 -0.0156 -0.1857
  111MOL    C6526685   2.038   6.896   2.897  0.1748 -0.7349 -0.6463
  111MOL    C6626686   2.176   6.880   2.959 -0.2164 -0.1407 -0.1893
  111MOL    O6726687   1.943   6.913   2.970 -0.3198  0.1844  0.3963
  111MOL    H6826688   1.947   6.703   2.563 -0.6671 -0.0930 -1.8515
  111MOL    H6926689   1.782   6.741   2.604  0.8862 -1.5685 -0.3917
  111MOL    H7026690   1.832   6.917   2.737 -0.5912  0.6234 -3.3035
  111MOL    H7126691   2.242   6.842   2.880 -0.5696 -1.9183  0.3419
  111MOL    H7226692   2.168   6.816   3.047 -0.5767 -0.7250 -0.6398
  111MOL    H7326693   2.204   6.981   2.989  0.5986 -0.7778  1.2343
  111MOL    C7426694   1.936   6.976   2.571  0.3174  0.3939  0.1111
  111MOL    C7526695   1.812   6.987   2.474  0.1836  0.2597 -0.7809
  111MOL    O7626696   1.694   7.011   2.551  1.1119 -0.7329  0.0779
  111MOL    C7726697   1.581   6.951   2.515 -0.6388 -0.1794  0.1699
  111MOL    C7826698   1.463   6.999   2.598  0.2466  0.4885 -0.2924
  111MOL    O7926699   1.575   6.866   2.429 -0.3649 -0.0563 -0.3734
  111MOL    H8026700   1.952   7.073   2.618 -2.9278 -0.0940  2.3603
  111MOL    H8126701   2.026   6.944   2.518 -0.0834  0.0975 -0.3989
  111MOL    H8226702   1.807   6.888   2.429 -1.6884  0.3381 -0.7767
  111MOL    H8326703   1.381   6.930   2.576  1.1621 -0.4688 -0.7774
  111MOL    H8426704   1.438   7.102   2.574 -1.2229  0.0002 -0.9462
  111MOL    H8526705   1.474   6.988   2.706  0.5566  0.0526 -0.3671
  111MOL    C8626706   1.837   7.094   2.371 -0.4176 -0.1658  0.6514
  111MOL    C8726707   1.748   7.090   2.244  0.0545 -0.3776 -1.0443
  111MOL    O8826708   1.786   7.198   2.157 -1.0230  0.0927 -0.2248
  111MOL    C8926709   1.690   7.237   2.070  0.2130 -1.1318  0.0801
  111MOL    C9026710   1.723   7.373   2.009  0.6629  0.0529  0.3437
  111MOL    O9126711   1.580   7.186   2.039  0.0205 -0.0479  0.0529
  111MOL    H9226712   1.800   7.186   2.416  1.3128 -0.5352  2.9183
  111MOL    H9326713   1.944   7.110   2.353 -0.3841  1.2298  1.9781
  111MOL    H9426714   1.640   7.101   2.258  0.2768  2.3782 -1.1954
  111MOL    H9526715   1.674   7.437   2.082  0.9705 -0.9331  1.4354
  111MOL    H9626716   1.683   7.388   1.908  0.2145 -0.9052  0.3752
  111MOL    H9726717   1.828   7.402   2.013  0.3741  0.8863  2.4034
  111MOL    C9826718   1.763   6.952   2.170  0.3683 -1.0450 -0.2484
  111MOL    C9926719   1.896   6.919   2.107 -0.4325  0.5010 -0.2360
  111MOL   O10026720   1.998   6.887   2.207 -0.0383 -0.0682 -0.0481
  111MOL   C10126721   2.119   6.919   2.186  0.0306 -0.2349  0.2359
  111MOL   C10226722   2.214   6.859   2.293 -0.3651 -1.0589  0.4234
  111MOL   O10326723   2.170   6.995   2.102  0.2144 -0.0019  0.3532
  111MOL   H10426724   1.731   6.869   2.234 -1.6222  0.3729  0.6246
  111MOL   H10526725   1.691   6.952   2.088 -1.9152  1.8564  1.6477
  111MOL   H10626726   1.923   7.000   2.039  0.2117 -0.6858 -1.4149
  111MOL   H10726727   2.235   6.758   2.257  0.6513 -0.5489 -0.4057
  111MOL   H10826728   2.165   6.838   2.389  1.5816 -3.0826  1.0224
  111MOL   H10926729   2.308   6.914   2.290  0.1444 -1.8918  0.8104
  111MOL   C11026730   1.885   6.795   2.020  0.3902 -0.1429 -0.0322
  111MOL   C11126731   1.814   6.823   1.878 -0.6313  0.4909  0.0819
  111MOL   O11226732   1.895   6.914   1.805 -0.0613 -0.1635 -0.0916
  111MOL   C11326733   1.847   7.039   1.781  0.4419 -0.2649 -0.3254
  111MOL   C11426734   1.968   7.126   1.740  0.3687  0.4714  0.4917
  111MOL   O11526735   1.733   7.082   1.800  0.0572  0.0164  0.0780
  111MOL   H11626736   1.975   6.742   1.991 -0.0304 -1.5047  1.0693
  111MOL   H11726737   1.827   6.713   2.064 -0.0809 -0.3418 -0.9971
  111MOL   H11826738   1.711   6.858   1.890 -0.5786  1.2930 -1.6640
  111MOL   H11926739   2.049   7.066   1.700  0.9044  1.2761  0.3691
  111MOL   H12026740   2.011   7.175   1.827  0.7104  1.8627 -0.4510
  111MOL   H12126741   1.945   7.198   1.661  0.4253  1.5656  1.4711
  111MOL   C12226742   1.801   6.687   1.803 -0.5672 -0.6479  0.0079
  111MOL   C12326743   1.668   6.612   1.821 -0.1086  1.0582  0.1359
  111MOL   O12426744   1.560   6.700   1.784 -0.0377 -0.2561 -0.2762
  111MOL   C12526745   1.477   6.757   1.878 -0.2752 -0.3691 -0.0183
  111MOL   C12626746   1.381   6.860   1.822  0.4359  0.0109  0.7342
  111MOL   O12726747   1.496   6.748   1.999 -0.1122 -0.1198  0.4627
  111MOL   H12826748   1.808   6.708   1.696  1.2540 -1.8601 -0.1445
  111MOL   H12926749   1.888   6.622   1.811 -0.0571  0.2018  1.6104
  111MOL   H13026750   1.659   6.597   1.929 -1.6187  0.2652 -0.1002
  111MOL   H13126751   1.437   6.948   1.791  0.2535 -0.0353  0.2787
  111MOL   H13226752   1.312   6.890   1.901 -0.0168  2.4175 -0.5482
  111MOL   H13326753   1.323   6.835   1.734 -0.8200  0.5752  1.3859
  111MOL   C13426754   1.663   6.477   1.746 -0.1125 -0.0733  0.2237
  111MOL   C13526755   1.553   6.387   1.797 -0.0209 -1.1340 -0.4153
  111MOL   O13626756   1.566   6.257   1.735  0.1252  0.0666  0.4959
  111MOL   C13726757   1.464   6.206   1.654 -0.6032 -0.6287  0.2407
  111MOL   C13826758   1.505   6.077   1.591  0.5024 -0.0494  0.3864
  111MOL   O13926759   1.363   6.268   1.624 -0.0931  0.0188 -0.4619
  111MOL   H14026760   1.630   6.491   1.643  1.6734 -1.3362 -0.5419
  111MOL   H14126761   1.762   6.430   1.747  0.9798  2.0962  2.3661
  111MOL   H14226762   1.456   6.435   1.788  0.0934 -1.3031 -2.6717
  111MOL   H14326763   1.586   6.086   1.519  1.3329 -2.8757  0.8714
  111MOL   H14426764   1.422   6.039   1.532 -0.0956  0.2718  1.0186
  111MOL   H14526765   1.521   5.999   1.666 -0.8293 -1.2563 -0.5458
  111MOL   C14626766   1.554   6.364   1.951 -0.4136 -0.1364  0.3081
  111MOL   C14726767   1.456   6.255   2.002 -0.3525  0.2917 -0.5758
  111MOL   O14826768   1.526   6.202   2.119  0.0487  0.2664  0.3700
  111MOL   C14926769   1.567   6.077   2.120 -0.1886  0.1710  0.1838
  111MOL   C15026770   1.644   6.036   2.242 -0.0060 -0.5292 -0.4885
  111MOL   O15126771   1.553   5.997   2.032  0.1387  0.3487  0.7796
  111MOL   H15226772   1.655   6.347   1.991 -0.8769  0.6967  1.8686
  111MOL   H15326773   1.524   6.451   2.009 -0.9932 -0.0309 -0.1463
  111MOL   H15426774   1.441   6.174   1.931 -0.0117  0.3958 -0.7693
  111MOL   H15526775   1.751   6.056   2.235  0.1790 -1.5803 -0.6427
  111MOL   H15626776   1.630   5.928   2.249  0.0799 -0.4779  0.5645
  111MOL   H15726777   1.611   6.086   2.333  0.6023  0.9418 -1.0435
  111MOL   C15826778   1.325   6.315   2.052 -0.1934 -0.3233  0.5155
  111MOL   C15926779   1.208   6.226   2.025 -0.6578 -0.5730  0.1749
  111MOL   O16026780   1.217   6.100   2.088  0.5058  0.0231 -0.1434
  111MOL   C16126781   1.238   5.986   2.019 -0.7652 -0.3905  0.4417
  111MOL   C16226782   1.203   5.865   2.102 -0.6880  0.3557  0.0190
  111MOL   O16326783   1.286   5.970   1.904 -0.3528 -0.4085  0.0918
  111MOL   H16426784   1.325   6.322   2.160 -1.1180 -2.8156  0.7080
  111MOL   H16526785   1.310   6.418   2.019  2.9735 -0.2773 -0.9569
  111MOL   H16626786   1.204   6.219   1.916  1.5282  1.0015 -0.0493
  111MOL   H16726787   1.215   5.772   2.047  0.7615  0.5116  0.0470
  111MOL   H16826788   1.098   5.871   2.131 -1.1273 -1.9316 -0.9857
  111MOL   H16926789   1.272   5.868   2.187 -0.2612 -1.3219 -0.2425
  111MOL   C17026790   1.074   6.288   2.078  0.0804 -0.6519 -0.3068
  111MOL   C17126791   1.039   6.432   2.017  0.0352  0.4834 -0.1908
  111MOL   O17226792   1.022   6.414   1.875 -0.1533  0.0374 -0.1986
  111MOL   C17326793   1.081   6.504   1.793  0.5975  0.3510  0.6741
  111MOL   C17426794   1.045   6.500   1.647 -0.6775  0.2994 -0.4270
  111MOL   O17526795   1.152   6.591   1.840  0.0046 -0.6994  0.0110
  111MOL   H17626796   0.995   6.217   2.054 -0.5463 -1.2690  3.3600
  111MOL   H17726797   1.082   6.301   2.186  0.9903 -0.1213 -0.4254
  111MOL   H17826798   1.125   6.498   2.031 -0.3425  1.2980 -1.5850
  111MOL   H17926799   1.134   6.470   1.591  0.9621  0.2341  2.1545
  111MOL   H18026800   1.013   6.600   1.618 -1.4982  0.7524  1.9206
  111MOL   H18126801   0.965   6.425   1.641 -0.1824 -0.1152 -2.0217
  111MOL   C18226802   0.908   6.493   2.067 -0.0796  0.6610  0.1658
  111MOL   C18326803   0.915   6.549   2.210 -0.2101 -0.0789 -0.8273
  111MOL   O18426804   1.021   6.653   2.220  0.2843  0.7524  0.8374
  111MOL   C18526805   1.014   6.772   2.152  0.8216  0.8293  0.4045
  111MOL   C18626806   1.129   6.865   2.188  0.0702  0.1390 -0.3361
  111MOL   O18726807   0.923   6.801   2.076  0.1495  0.2606  0.1063
  111MOL   H18826808   0.878   6.567   1.994  0.1938 -0.0340 -0.6515
  111MOL   H18926809   0.834   6.413   2.078  3.2412 -2.1690  3.2426
  111MOL   H19026810   0.941   6.466   2.275 -1.9017  0.7943  0.9943
  111MOL   H19126811   1.104   6.929   2.273 -0.0698 -1.4585  0.8610
  111MOL   H19226812   1.166   6.929   2.108  0.8733  0.2658  0.1355
  111MOL   H19326813   1.216   6.805   2.213  0.5767  1.0340  0.0726
  111MOL   C19426814   0.778   6.582   2.272 -0.2150 -0.1039  0.8995
  111MOL   C19526815   0.781   6.596   2.424 -0.7935  0.0934 -0.0540
  111MOL   O19626816   0.769   6.473   2.489  0.1743  0.1385  0.1804
  111MOL   C19726817   0.655   6.439   2.551  1.1986 -0.4232  0.1476
  111MOL   C19826818   0.656   6.303   2.614 -0.7996  0.1300  0.0945
  111MOL   O19926819   0.552   6.508   2.554  0.2797 -0.2521  0.4535
  111MOL   H20026820   0.747   6.678   2.231  2.1712  0.1812 -0.3256
  111MOL   H20126821   0.706   6.503   2.248  1.5360 -1.5636  0.2998
  111MOL   H20226822   0.691   6.656   2.436 -1.1620 -0.6640  1.0040
  111MOL   H20326823   0.692   6.222   2.550 -0.5144  1.9175 -2.0908
  111MOL   H20426824   0.556   6.280   2.651  0.0254 -2.0856  1.0191
  111MOL   H20526825   0.721   6.296   2.700  1.5632  2.2842 -1.4413
  111MOL   C20626826   0.889   6.677   2.487  0.5906 -0.4882  0.5015
  111MOL   C20726827   0.865   6.719   2.631 -0.4222  0.6542  0.1397
  111MOL   O20826828   0.913   6.614   2.719  0.2696  0.3372 -0.0969
  111MOL   C20926829   0.861   6.595   2.839  0.4153 -0.5568  0.3591
  111MOL   C21026830   0.923   6.473   2.912 -0.9860  0.0564  0.4271
  111MOL   O21126831   0.774   6.665   2.889 -0.1797  0.9946 -0.1444
  111MOL   H21226832   0.988   6.638   2.465 -0.7746 -3.0618 -1.4887
  111MOL   H21326833   0.903   6.770   2.432 -0.2699 -1.3469 -1.2086
  111MOL   H21426834   0.759   6.728   2.650 -0.1028 -0.8830  3.0282
  111MOL   H21526835   1.025   6.506   2.932 -0.0373 -2.0598 -0.7319
  111MOL   H21626836   0.926   6.379   2.856  0.2828 -0.4219  1.2823
  111MOL   H21726837   0.870   6.445   3.003 -1.0450 -1.6675 -0.1115
  111MOL   C21826838   0.932   6.847   2.660  0.3506 -1.1495  0.1226
  111MOL   C21926839   0.848   6.968   2.603  0.7802  0.2830  0.6534
  111MOL   O22026840   0.736   6.999   2.680  0.0972 -0.2262 -0.4230
  111MOL   C22126841   0.607   6.957   2.653  0.5384 -0.5092  0.0062
  111MOL   C22226842   0.513   7.004   2.761 -0.7328 -0.2736 -0.2218
  111MOL   O22326843   0.575   6.872   2.566  0.2821 -0.4891 -0.1833
  111MOL   H22426844   0.947   6.864   2.767  0.1192  1.8272 -0.2611
  111MOL   H22526845   1.028   6.856   2.611  1.3155 -0.0914  2.1313
  111MOL   H22626846   0.821   6.943   2.500  2.1112  0.3744  0.2652
  111MOL   H22726847   0.537   7.108   2.783  0.3999 -1.0704  2.5730
  111MOL   H22826848   0.532   6.952   2.855 -1.0355  0.1217  0.0583
  111MOL   H22926849   0.409   6.996   2.728 -1.1558  1.2474  0.6968
  111MOL   C23026850   0.937   7.097   2.602 -0.3165 -0.2735 -0.2625
  111MOL   C23126851   0.867   7.210   2.518 -0.3210 -0.4533  0.5175
  111MOL   O23226852   0.908   7.211   2.380 -0.6527  0.0285  0.3379
  111MOL   C23326853   0.836   7.146   2.295 -0.2604  0.5785 -0.4500
  111MOL   C23426854   0.880   7.176   2.145  0.0055  0.0010 -0.7763
  111MOL   O23526855   0.744   7.065   2.320  0.3577  1.3189 -0.2089
  111MOL   H23626856   0.948   7.132   2.704 -0.3425  2.0176 -1.0198
  111MOL   H23726857   1.035   7.085   2.557 -0.7790  0.5341 -1.5180
  111MOL   H23826858   0.900   7.307   2.554 -0.4678  0.4822 -1.7581
  111MOL   H23926859   0.853   7.108   2.064 -0.7291  0.1686 -0.6734
  111MOL   H24026860   0.987   7.189   2.159 -0.2770 -0.9384  2.5937
  111MOL   H24126861   0.847   7.277   2.120  1.7463  0.7413 -0.1382
  111MOL   H24226862   0.759   7.217   2.531 -0.3448  1.8520 -0.6577
  112MOL     C126863   6.593   4.288   5.522 -0.6717  0.0154 -0.6174
  112MOL     C226864   6.598   4.441   5.512  0.4746 -0.1825  0.2441
  112MOL     O326865   6.736   4.467   5.478 -0.5021  0.2820 -0.3793
  112MOL     C426866   6.795   4.571   5.537  0.3289 -0.5828 -0.5183
  112MOL     C526867   6.940   4.578   5.499  0.1470  0.3470 -0.0912
  112MOL     O626868   6.747   4.644   5.617 -0.2639  0.2190 -1.0078
  112MOL     H726869   6.490   4.271   5.554 -0.3564 -1.8203 -0.4827
  112MOL     H826870   6.661   4.249   5.597 -0.8900 -0.9389 -0.9026
  112MOL     H926871   6.585   4.484   5.612  1.3422  0.0890  0.2414
  112MOL    H1026872   6.968   4.498   5.431  0.1303  0.5060 -0.2823
  112MOL    H1126873   7.003   4.572   5.588  0.1325 -2.0873 -0.2103
  112MOL    H1226874   6.964   4.670   5.446 -2.4420  1.2534  0.2017
  112MOL    H1326875   6.609   4.244   5.423  0.5540 -0.3879 -0.2507
  112MOL    C1426876   6.497   4.489   5.412 -0.0623  0.2679  0.2431
  112MOL    C1526877   6.502   4.641   5.390 -0.1327  0.4635  0.0766
  112MOL    O1626878   6.418   4.666   5.277  0.1852 -0.1303 -0.4256
  112MOL    C1726879   6.478   4.701   5.158 -0.0936  0.3188 -0.8682
  112MOL    C1826880   6.379   4.752   5.056 -1.0284  0.3850  0.3327
  112MOL    O1926881   6.599   4.705   5.142  0.3415 -0.2265  0.6249
  112MOL    H2026882   6.513   4.445   5.313  0.7348  1.4696 -0.1703
  112MOL    H2126883   6.399   4.453   5.444 -1.0518  1.3274 -1.5173
  112MOL    H2226884   6.604   4.676   5.372  0.3818 -0.3637  1.3483
  112MOL    H2326885   6.391   4.721   4.952  0.0280  0.9814  0.2726
  112MOL    H2426886   6.392   4.859   5.066  1.8809  0.0968  0.1836
  112MOL    H2526887   6.281   4.715   5.088 -1.6438  0.6863 -1.1438
  112MOL    C2626888   6.441   4.731   5.499  0.5229  0.1828  0.4736
  112MOL    C2726889   6.452   4.882   5.476 -0.2484 -0.5940  0.4613
  112MOL    O2826890   6.321   4.920   5.419 -0.1428  0.2002  1.0717
  112MOL    C2926891   6.324   4.994   5.304  0.1657 -0.3740  0.2275
  112MOL    C3026892   6.182   5.015   5.242  0.0599 -0.1510 -0.2670
  112MOL    O3126893   6.428   5.048   5.253 -0.2059 -0.0343  0.2105
  112MOL    H3226894   6.337   4.699   5.503  0.0745  1.4149 -0.7481
  112MOL    H3326895   6.488   4.706   5.594 -0.6101 -1.0190  0.7285
  112MOL    H3426896   6.525   4.897   5.396  1.6452  1.6311  2.5447
  112MOL    H3526897   6.106   4.963   5.299 -1.3488  1.0403 -1.0219
  112MOL    H3626898   6.176   4.965   5.145 -0.4237  0.0542 -0.3419
  112MOL    H3726899   6.160   5.121   5.232  1.7015  0.1836 -0.4872
  112MOL    C3826900   6.485   4.964   5.602 -0.3084 -0.4758 -0.7276
  112MOL    C3926901   6.470   5.123   5.590  0.3237  0.5569 -0.4190
  112MOL    O4026902   6.365   5.162   5.685 -0.2983  0.2145 -0.0846
  112MOL    C4126903   6.263   5.237   5.652 -0.1578  0.9367  0.4175
  112MOL    C4226904   6.192   5.284   5.777 -0.2309  0.3075  0.0346
  112MOL    O4326905   6.228   5.269   5.536 -0.4446 -0.2835  0.1645
  112MOL    H4426906   6.426   4.939   5.691 -0.2557  0.2767 -0.4808
  112MOL    H4526907   6.586   4.938   5.633 -0.3981  0.7896  0.6886
  112MOL    H4626908   6.449   5.145   5.485 -0.6539  0.8623 -0.1649
  112MOL    H4726909   6.113   5.215   5.806  0.1439 -0.4420 -0.7289
  112MOL    H4826910   6.159   5.386   5.757  2.1957  0.9476 -0.8725
  112MOL    H4926911   6.262   5.299   5.860  2.6856  0.1104 -2.3272
  112MOL    C5026912   6.595   5.204   5.641  0.4807 -0.4632  0.0131
  112MOL    C5126913   6.737   5.169   5.580  0.3991 -0.0166 -0.4083
  112MOL    O5226914   6.717   5.165   5.438 -0.2688  0.2179 -0.3988
  112MOL    C5326915   6.753   5.062   5.367  0.0759  0.9833  0.1389
  112MOL    C5426916   6.753   5.097   5.216 -0.1166  0.0785 -0.8795
  112MOL    O5526917   6.788   4.955   5.417 -0.0222 -0.0465  0.0310
  112MOL    H5626918   6.563   5.306   5.617 -0.0278 -0.5494  0.2989
  112MOL    H5726919   6.599   5.201   5.750 -2.2622 -0.9037  0.1400
  112MOL    H5826920   6.770   5.069   5.611 -0.8576 -0.2127  0.3368
  112MOL    H5926921   6.822   5.178   5.190  0.5082  0.0430  0.6076
  112MOL    H6026922   6.658   5.121   5.168 -0.1696 -0.7317 -1.1740
  112MOL    H6126923   6.788   5.009   5.163 -2.0964 -0.2846 -1.6186
  112MOL    C6226924   6.847   5.272   5.618 -0.7511 -0.4484  0.5746
  112MOL    C6326925   6.980   5.263   5.550  0.4665 -0.2117  0.5915
  112MOL    O6426926   7.043   5.388   5.564  0.0955 -0.2320 -0.0297
  112MOL    C6526927   7.043   5.481   5.468 -0.2375  0.8637  0.2527
  112MOL    C6626928   7.152   5.578   5.506 -0.0063 -0.0831 -0.3374
  112MOL    O6726929   6.969   5.491   5.372  0.1861 -0.8353  0.3979
  112MOL    H6826930   6.801   5.371   5.609 -1.4329 -0.9409 -1.7709
  112MOL    H6926931   6.856   5.257   5.725 -2.3626 -1.8390  0.5282
  112MOL    H7026932   6.975   5.251   5.442  0.6312  0.2650  0.5302
  112MOL    H7126933   7.123   5.679   5.477 -1.9552 -0.0568  1.5732
  112MOL    H7226934   7.240   5.555   5.446  0.3462 -1.1446  0.5653
  112MOL    H7326935   7.162   5.579   5.614  1.6847 -1.3286 -0.4611
  112MOL    C7426936   7.076   5.152   5.596 -0.0719  0.5221  0.1247
  112MOL    C7526937   7.176   5.108   5.488  0.7337 -0.2593 -0.2294
  112MOL    O7626938   7.289   5.189   5.486 -0.6176  0.0413  0.2249
  112MOL    C7726939   7.322   5.247   5.372  0.3386 -0.4955 -0.1821
  112MOL    C7826940   7.444   5.335   5.382 -0.1527  0.1816 -0.1479
  112MOL    O7926941   7.264   5.231   5.261 -0.2475  0.3926 -0.4036
  112MOL    H8026942   7.136   5.191   5.678 -1.8105  0.8443  1.2757
  112MOL    H8126943   7.022   5.071   5.645 -1.3010  0.9387 -0.5333
  112MOL    H8226944   7.130   5.104   5.389 -0.8053  5.5745  0.0329
  112MOL    H8326945   7.506   5.331   5.293 -0.7726  0.2056 -0.5860
  112MOL    H8426946   7.505   5.304   5.467  2.1520 -0.0191 -1.8141
  112MOL    H8526947   7.412   5.439   5.393  0.1425  0.2152  0.3961
  112MOL    C8626948   7.217   4.958   5.510  0.0040  0.5601 -0.9128
  112MOL    C8726949   7.294   4.892   5.391 -1.3036  0.5561  0.1989
  112MOL    O8826950   7.397   4.807   5.435  0.2357 -0.1241 -0.3311
  112MOL    C8926951   7.513   4.848   5.476 -0.1070  0.0856  0.7050
  112MOL    C9026952   7.599   4.736   5.538  0.5162 -0.1369  0.1265
  112MOL    O9126953   7.550   4.966   5.463 -0.4934 -0.7856 -0.6733
  112MOL    H9226954   7.283   4.968   5.596  0.5662 -1.1424 -1.1232
  112MOL    H9326955   7.146   4.881   5.541 -0.3716 -0.4697 -4.1763
  112MOL    H9426956   7.334   4.973   5.330  0.3645  1.1792  2.0831
  112MOL    H9526957   7.589   4.645   5.479  1.9596  0.8712 -1.7832
  112MOL    H9626958   7.561   4.726   5.639 -1.5636 -1.7132 -0.7898
  112MOL    H9726959   7.704   4.765   5.551  1.1276 -2.3152  0.3110
  112MOL    C9826960   7.220   4.786   5.301  0.3147 -0.0979 -0.1509
  112MOL    C9926961   7.121   4.844   5.190  0.8496 -0.6568  0.8628
  112MOL   O10026962   7.185   4.906   5.081  0.4706 -0.6157  0.3759
  112MOL   C10126963   7.142   5.027   5.047  0.1539  0.4061  0.0767
  112MOL   C10226964   7.226   5.094   4.936  0.5862  0.0244  0.0650
  112MOL   O10326965   7.068   5.098   5.121  0.2146 -0.1409  0.8165
  112MOL   H10426966   7.292   4.741   5.232 -1.8832 -0.5603 -2.2220
  112MOL   H10526967   7.176   4.713   5.370  2.3593  0.9278  2.3036
  112MOL   H10626968   7.049   4.907   5.242  0.7314 -0.5390  0.5581
  112MOL   H10726969   7.218   5.201   4.916  1.0343  0.2016  0.8073
  112MOL   H10826970   7.200   5.044   4.843  0.2543 -1.5643  0.9932
  112MOL   H10926971   7.334   5.083   4.953  0.8086  0.7601 -0.8498
  112MOL   C11026972   7.028   4.735   5.132 -0.2802 -0.1785  0.0769
  112MOL   C11126973   7.090   4.607   5.065  0.0742 -0.3368 -0.3283
  112MOL   O11226974   6.982   4.534   5.005 -0.3394 -0.8612  0.8321
  112MOL   C11326975   6.920   4.434   5.065 -0.3730 -0.3715 -0.3399
  112MOL   C11426976   6.833   4.345   4.970  0.8448 -0.3336 -0.1117
  112MOL   O11526977   6.935   4.406   5.182 -0.2207 -0.4897 -0.2834
  112MOL   H11626978   6.957   4.708   5.210 -0.8839  1.6381  0.1942
  112MOL   H11726979   6.968   4.774   5.049 -0.9248 -0.9045  0.2013
  112MOL   H11826980   7.131   4.552   5.150  0.6041  0.6453  0.0716
  112MOL   H11926981   6.842   4.243   5.007 -2.5775 -1.1253 -1.3152
  112MOL   H12026982   6.863   4.356   4.866  2.4064 -1.7627  0.1635
  112MOL   H12126983   6.735   4.392   4.985  1.3595  0.2869  1.3595
  112MOL   C12226984   7.200   4.622   4.955 -0.5882  0.1144  0.1359
  112MOL   C12326985   7.277   4.496   4.909 -0.1284  0.1663  0.2746
  112MOL   O12426986   7.286   4.488   4.764  0.0366 -0.3576  0.1452
  112MOL   C12526987   7.198   4.411   4.704  0.2981  0.3133  0.0901
  112MOL   C12626988   7.219   4.398   4.554 -0.1562 -0.3194 -0.2238
  112MOL   O12726989   7.112   4.343   4.762 -0.1779  0.2448 -0.0023
  112MOL   H12826990   7.159   4.685   4.876 -0.7031  0.4303  0.4486
  112MOL   H12926991   7.277   4.689   4.992  0.2250 -0.1939 -0.9588
  112MOL   H13026992   7.229   4.408   4.952  1.4447 -0.5358  0.6259
  112MOL   H13126993   7.158   4.473   4.504 -0.3465 -0.3414 -0.0238
  112MOL   H13226994   7.188   4.303   4.511  0.2468 -1.0502  1.0574
  112MOL   H13326995   7.321   4.412   4.516  0.0657  1.4234  0.9391
  112MOL   C13426996   7.418   4.495   4.977 -0.6464 -0.6369  0.4485
  112MOL   C13526997   7.410   4.475   5.134 -0.1695 -0.6620 -0.4301
  112MOL   O13626998   7.368   4.344   5.162 -0.7575  0.5813 -0.1678
  112MOL   C13726999   7.291   4.323   5.273  0.9059 -0.6102 -0.0309
  112MOL   C13827000   7.227   4.190   5.265 -0.0416  0.1600  0.8455
  112MOL   O13927001   7.276   4.400   5.372  0.5667  0.1405  0.2508
  112MOL   H14027002   7.476   4.415   4.932  0.7292  1.1283 -0.9989
  112MOL   H14127003   7.467   4.588   4.948 -0.0242 -2.1662 -3.7765
  112MOL   H14227004   7.343   4.549   5.178  0.1005  0.7413 -2.2888
  112MOL   H14327005   7.212   4.164   5.160 -1.7278 -1.8841  1.5653
  112MOL   H14427006   7.140   4.186   5.330  0.9503 -0.0960  2.1831
  112MOL   H14527007   7.287   4.111   5.311  0.0393 -1.1551 -1.4436
  112MOL   C14627008   7.553   4.493   5.198 -0.0686 -0.1851 -0.0310
  112MOL   C14727009   7.638   4.611   5.141 -0.4024  0.5035 -0.4215
  112MOL   O14827010   7.576   4.737   5.161 -0.7309  0.0585  0.3951
  112MOL   C14927011   7.580   4.832   5.053  0.8736 -0.1396 -0.1794
  112MOL   C15027012   7.554   4.975   5.110  0.4129  1.0998  0.8284
  112MOL   O15127013   7.607   4.819   4.935 -0.4661  0.0333 -0.9153
  112MOL   H15227014   7.536   4.504   5.305  0.1140 -0.4850  0.0298
  112MOL   H15327015   7.606   4.400   5.178  2.8257  1.1246  1.3547
  112MOL   H15427016   7.660   4.592   5.036 -0.4056 -2.7228  0.1234
  112MOL   H15527017   7.625   5.046   5.068  1.4808  0.2931  1.2299
  112MOL   H15627018   7.579   4.985   5.216  0.0124 -1.6758  1.2274
  112MOL   H15727019   7.452   5.008   5.092  0.4773  1.9179  1.8912
  112MOL   C15827020   7.775   4.621   5.205  0.2063  0.4423  0.5876
  112MOL   C15927021   7.857   4.492   5.208 -0.2233  0.3515  0.3324
  112MOL   O16027022   7.892   4.459   5.074 -0.1490  0.0418  0.2089
  112MOL   C16127023   7.862   4.346   5.028  0.1919 -0.1585 -0.5128
  112MOL   C16227024   7.881   4.327   4.875  0.6054  0.0835  0.4459
  112MOL   O16327025   7.815   4.255   5.094  0.1709 -0.1459 -0.6747
  112MOL   H16427026   7.824   4.708   5.162 -0.7238 -0.1245 -1.7444
  112MOL   H16527027   7.767   4.650   5.309 -0.5236 -3.1242  1.5912
  112MOL   H16627028   7.805   4.412   5.259 -0.3364  0.6864  0.7441
  112MOL   H16727029   7.834   4.403   4.812  0.8194 -1.1898 -1.2995
  112MOL   H16827030   7.839   4.229   4.854 -0.9735  0.9175 -0.3949
  112MOL   H16927031   7.986   4.323   4.847  0.9019 -0.7302  1.6529
  112MOL   C17027032   7.996   4.508   5.277 -0.1935 -0.2162  0.0286
  112MOL   C17127033   8.001   4.508   5.432 -0.5311 -0.0959  0.6702
  112MOL   O17227034   7.981   4.380   5.496  0.4942 -0.3028  0.0527
  112MOL   C17327035   7.866   4.338   5.538  0.1277  0.6253 -0.1707
  112MOL   C17427036   7.861   4.190   5.574 -0.1270  0.3375  0.5177
  112MOL   O17527037   7.763   4.409   5.548  0.0196 -0.3500  0.8974
  112MOL   H17627038   0.030   4.422   5.242 -1.2378 -0.5917 -0.7372
  112MOL   H17727039   0.022   4.595   5.232  0.8367  0.9604  3.2362
  112MOL   H17827040   7.918   4.574   5.456  1.1264  2.8507 -1.3273
  112MOL   H17927041   7.771   4.165   5.630  0.1554  0.6101  1.0866
  112MOL   H18027042   7.952   4.169   5.631  2.1641 -1.8162 -3.6301
  112MOL   H18127043   7.864   4.124   5.487 -0.6002  0.3686  0.4746
  112MOL   C18227044   0.107   4.566   5.499  0.3375 -0.0075 -0.6678
  112MOL   C18327045   0.139   4.714   5.460  0.4273 -0.8334 -0.0833
  112MOL   O18427046   0.052   4.798   5.534  0.2681 -0.2779 -0.4075
  112MOL   C18527047   7.973   4.871   5.458 -0.2494  1.0185 -0.8725
  112MOL   C18627048   7.883   4.959   5.539 -0.2638 -0.3485 -0.0312
  112MOL   O18727049   7.960   4.862   5.337  0.1765  0.4287  0.2433
  112MOL   H18827050   0.102   4.558   5.608  1.4942 -3.3421 -0.8132
  112MOL   H18927051   0.192   4.500   5.481 -0.4373 -1.0839 -0.4284
  112MOL   H19027052   0.126   4.732   5.353  1.9095 -1.7848 -0.4590
  112MOL   H19127053   7.849   4.899   5.623  2.7217 -0.9043  0.8268
  112MOL   H19227054   7.805   4.999   5.474 -0.6311 -2.0336 -0.6365
  112MOL   H19327055   7.939   5.040   5.585  1.9137 -1.6422 -0.3479
  112MOL   C19427056   0.284   4.763   5.486 -0.4380  0.4975 -0.7511
  112MOL   C19527057   0.320   4.916   5.445  0.4861 -0.2572  0.2303
  112MOL   O19627058   0.455   4.935   5.479 -0.4508 -0.1406  0.7445
  112MOL   C19727059   0.490   5.012   5.574  0.2202 -0.6251 -0.1734
  112MOL   C19827060   0.637   5.008   5.600  0.0719 -0.5542 -0.1078
  112MOL   O19927061   0.413   5.077   5.645 -0.5984 -0.3312 -0.0484
  112MOL   H20027062   0.301   4.744   5.592 -1.3449  0.0558 -0.6761
  112MOL   H20127063   0.350   4.695   5.432  0.7741  1.0696 -0.0206
  112MOL   H20227064   0.249   4.980   5.498 -0.8852 -2.2874  0.9511
  112MOL   H20327065   0.652   4.960   5.697  2.9424  1.6108  0.5869
  112MOL   H20427066   0.686   5.103   5.620  0.2123 -0.2448 -1.8495
  112MOL   H20527067   0.687   4.938   5.533 -0.6811 -0.7027 -0.5159
  112MOL   C20627068   0.307   4.965   5.297 -0.2943  0.0483  0.1351
  112MOL   C20727069   0.359   5.109   5.256 -0.4270 -0.2516 -0.4465
  112MOL   O20827070   0.379   5.097   5.122 -0.1603 -0.6247 -0.2010
  112MOL   C20927071   0.461   5.173   5.056  0.4266  0.7167 -0.4639
  112MOL   C21027072   0.485   5.128   4.916 -0.1749  1.3051 -0.4557
  112MOL   O21127073   0.517   5.271   5.103  0.3377 -0.2070  0.4128
  112MOL   H21227074   0.358   4.890   5.236 -0.3793 -0.5783  0.8237
  112MOL   H21327075   0.201   4.960   5.272 -0.1153  0.3520 -0.7178
  112MOL   H21427076   0.458   5.133   5.297 -0.9475  1.8584 -0.3677
  112MOL   H21527077   0.549   5.204   4.870 -2.0682  0.4518 -4.8114
  112MOL   H21627078   0.392   5.110   4.861 -0.0467 -0.2226 -0.1842
  112MOL   H21727079   0.543   5.036   4.923 -0.4446  1.1168 -0.6761
  112MOL   C21827080   0.270   5.236   5.299  0.2521 -0.5958  0.1798
  112MOL   C21927081   0.322   5.315   5.414  0.9218 -0.0527 -0.5564
  112MOL   O22027082   0.442   5.383   5.381  0.1511 -0.2567  0.0902
  112MOL   C22127083   0.547   5.403   5.464  0.4565 -0.1021  0.1787
  112MOL   C22227084   0.634   5.508   5.414  0.2034 -0.4980  0.6728
  112MOL   O22327085   0.561   5.349   5.573  0.0385  0.0027 -0.3663
  112MOL   H22427086   0.259   5.305   5.215  0.9549  1.2288  1.5728
  112MOL   H22527087   0.170   5.198   5.318  0.0493  0.4008  1.1264
  112MOL   H22627088   0.347   5.237   5.486  0.7577 -0.1809 -0.6395
  112MOL   H22727089   0.653   5.503   5.306 -0.8315  3.2341  0.2341
  112MOL   H22827090   0.733   5.501   5.459  1.2327 -0.7390 -1.5631
  112MOL   H22927091   0.586   5.604   5.433 -1.2872 -1.0467 -0.1872
  112MOL   C23027092   0.212   5.413   5.469  0.1510  0.2153 -0.1056
  112MOL   C23127093   0.248   5.477   5.605  0.1535  0.0312  0.1352
  112MOL   O23227094   0.136   5.550   5.658 -0.6075  0.0669 -0.3597
  112MOL   C23327095   0.052   5.493   5.747  0.6444  0.4719 -0.3885
  112MOL   C23427096   8.011   5.601   5.827  1.1796 -0.8991 -0.6628
  112MOL   O23527097   0.020   5.376   5.761 -0.1716  0.4145 -0.4447
  112MOL   H23627098   0.175   5.485   5.397  0.4365  1.4994  1.0146
  112MOL   H23727099   0.132   5.348   5.504 -1.0098  0.8225 -1.5895
  112MOL   H23827100   0.319   5.558   5.591 -0.0637  0.1187 -0.4499
  112MOL   H23927101   0.070   5.649   5.884 -0.6274  0.8687  0.4438
  112MOL   H24027102   7.939   5.558   5.897  1.4745 -0.6902 -0.2304
  112MOL   H24127103   7.949   5.673   5.773 -1.2725 -1.9360  0.7136
  112MOL   H24227104   0.286   5.409   5.682  0.6695 -0.6364 -0.7009
  113MOL     C127105   0.695   3.893   2.118  0.5387 -0.4492  0.6723
  113MOL     C227106   0.773   3.927   2.246  0.0680 -0.2976  0.3667
  113MOL     O327107   0.720   3.824   2.333 -0.4745  1.0371  0.2723
  113MOL     C427108   0.670   3.850   2.454 -0.0168  0.0511 -0.1691
  113MOL     C527109   0.603   3.727   2.520  0.5077 -0.4155  0.3075
  113MOL     O627110   0.654   3.965   2.498  0.1636 -0.2641 -0.3049
  113MOL     H727111   0.725   3.958   2.036 -0.5178  1.2397  1.6078
  113MOL     H827112   0.589   3.917   2.122  0.1810 -1.5442 -1.6148
  113MOL     H927113   0.741   4.029   2.269 -0.6383 -0.3023 -0.5795
  113MOL    H1027114   0.495   3.741   2.523  0.6192  0.3721  0.8637
  113MOL    H1127115   0.630   3.746   2.624 -1.0903  1.2441  0.4561
  113MOL    H1227116   0.631   3.630   2.479 -1.3114 -0.2199 -1.4667
  113MOL    H1327117   0.719   3.793   2.082  1.8650 -1.2350  3.5540
  113MOL    C1427118   0.922   3.934   2.230  0.2620  0.1617 -0.3033
  113MOL    C1527119   0.984   4.032   2.137 -0.5316 -0.2411  0.2590
  113MOL    O1627120   0.950   4.158   2.201  0.0791  0.4273  0.5651
  113MOL    C1727121   0.869   4.249   2.147 -0.1250 -0.5555  1.0520
  113MOL    C1827122   0.864   4.368   2.236  0.6178 -0.2716  0.7393
  113MOL    O1927123   0.815   4.235   2.038  0.9455  0.0147 -0.0640
  113MOL    H2027124   0.981   3.929   2.321  0.1204  0.6671 -0.1820
  113MOL    H2127125   0.952   3.840   2.183  2.2905  1.2119 -1.1211
  113MOL    H2227126   0.940   4.016   2.038  1.1031  1.8090 -0.8455
  113MOL    H2327127   0.958   4.422   2.241 -0.5128  1.8158  0.1127
  113MOL    H2427128   0.835   4.331   2.335  1.1472 -1.2082  0.5454
  113MOL    H2527129   0.790   4.439   2.197  1.4017 -1.0445 -2.2524
  113MOL    C2627130   1.136   4.022   2.135 -0.5377 -0.3713 -0.0716
  113MOL    C2727131   1.215   4.044   1.999  0.3258  0.1605  0.2085
  113MOL    O2827132   1.168   4.153   1.930  0.3767  0.4723  0.1968
  113MOL    C2927133   1.118   4.136   1.796  0.0905  0.6938 -0.0590
  113MOL    C3027134   1.063   4.272   1.738  0.1319  0.0779  0.1620
  113MOL    O3127135   1.100   4.036   1.730  0.2786 -0.2746  0.5864
  113MOL    H3227136   1.171   4.082   2.220 -1.3807 -0.6257  0.4644
  113MOL    H3327137   1.152   3.921   2.172  1.9983 -0.8715 -2.3426
  113MOL    H3427138   1.208   3.959   1.931 -0.4952  1.7679 -1.7308
  113MOL    H3527139   1.147   4.341   1.724  0.3927 -0.5023 -1.2772
  113MOL    H3627140   0.985   4.322   1.795  0.0906 -0.1342  0.2927
  113MOL    H3727141   1.025   4.249   1.638 -1.2940  0.8857  0.5091
  113MOL    C3827142   1.361   4.070   2.023  0.4945 -0.5213 -0.4605
  113MOL    C3927143   1.445   3.946   2.069 -0.1082 -0.1285 -0.1489
  113MOL    O4027144   1.471   3.857   1.962 -0.1653 -0.0219  0.5067
  113MOL    C4127145   1.402   3.737   1.956  0.2312 -0.3180 -0.5038
  113MOL    C4227146   1.432   3.664   1.831  0.1506 -0.5308  1.0946
  113MOL    O4327147   1.319   3.700   2.038 -0.2135  0.6027 -0.5392
  113MOL    H4427148   1.409   4.097   1.930  0.5628  0.2455 -0.2053
  113MOL    H4527149   1.377   4.144   2.101  2.1273 -1.1225 -0.2041
  113MOL    H4627150   1.382   3.893   2.141 -1.7561  0.6814 -0.9915
  113MOL    H4727151   1.521   3.601   1.838  0.3930 -0.3892 -0.4248
  113MOL    H4827152   1.463   3.735   1.754  1.3687 -2.7601 -0.5305
  113MOL    H4927153   1.347   3.603   1.802 -0.3581 -0.0572  1.5916
  113MOL    C5027154   1.573   3.976   2.147 -0.3977  0.1383 -0.0427
  113MOL    C5127155   1.620   3.861   2.240  0.7807  0.1715 -0.5258
  113MOL    O5227156   1.761   3.856   2.238  0.1940 -0.3929 -0.0810
  113MOL    C5327157   1.842   3.744   2.260 -0.2986 -0.3635 -0.0636
  113MOL    C5427158   1.988   3.780   2.240  0.3388  0.5729  0.0311
  113MOL    O5527159   1.806   3.628   2.270  1.0538  0.0432  0.0449
  113MOL    H5627160   1.655   4.006   2.082  0.1296  0.6642  0.8693
  113MOL    H5727161   1.555   4.068   2.202  1.0022  0.9876 -0.9817
  113MOL    H5827162   1.577   3.769   2.199  1.7410  0.4171 -2.1362
  113MOL    H5927163   2.044   3.718   2.170  2.1198  1.5908  0.5139
  113MOL    H6027164   2.047   3.772   2.331 -0.8575  2.2693  0.9915
  113MOL    H6127165   2.000   3.881   2.201  2.2203  0.2920 -0.1553
  113MOL    C6227166   1.583   3.871   2.391 -0.4238  0.2796 -0.0652
  113MOL    C6327167   1.441   3.868   2.422  0.2881  0.4179 -1.3614
  113MOL    O6427168   1.402   3.728   2.405 -0.3919 -0.4633 -0.2292
  113MOL    C6527169   1.278   3.692   2.371 -0.3309  0.8578 -0.3915
  113MOL    C6627170   1.282   3.543   2.327  0.4202  0.3955 -0.1597
  113MOL    O6727171   1.176   3.760   2.357 -0.6365  0.0770  0.0727
  113MOL    H6827172   1.625   3.790   2.451  1.8674  3.0909  2.2252
  113MOL    H6927173   1.628   3.961   2.431  0.6272 -0.4771  0.4755
  113MOL    H7027174   1.378   3.926   2.355 -1.6681  2.3508  2.0227
  113MOL    H7127175   1.284   3.528   2.219 -3.3022  1.2335 -0.3877
  113MOL    H7227176   1.192   3.496   2.366  0.5202  0.1875 -0.1745
  113MOL    H7327177   1.377   3.508   2.369  1.4987  1.0760 -1.9398
  113MOL    C7427178   1.421   3.904   2.568  0.2280 -1.0058 -0.1664
  113MOL    C7527179   1.439   4.059   2.596 -0.4255  0.2730  0.5375
  113MOL    O7627180   1.311   4.127   2.581  0.6306 -0.6528  0.2351
  113MOL    C7727181   1.288   4.207   2.471  0.0449  0.5760  0.1972
  113MOL    C7827182   1.144   4.247   2.464 -0.1673  0.0677  1.0587
  113MOL    O7927183   1.369   4.229   2.380 -0.1171  0.0471 -0.0595
  113MOL    H8027184   1.320   3.873   2.595  0.0882 -2.5834 -2.3877
  113MOL    H8127185   1.489   3.845   2.631 -0.4640  0.2325  1.7947
  113MOL    H8227186   1.506   4.104   2.522 -1.4202  2.2505  0.8129
  113MOL    H8327187   1.115   4.288   2.367 -0.5989 -1.4992  0.5125
  113MOL    H8427188   1.114   4.315   2.543  2.1498 -0.2443  2.2498
  113MOL    H8527189   1.091   4.152   2.471 -0.4403  0.0953 -0.4604
  113MOL    C8627190   1.487   4.080   2.738  0.3436  0.0951 -0.0142
  113MOL    C8727191   1.638   4.051   2.751  0.0435  0.2313  0.0553
  113MOL    O8827192   1.711   4.156   2.684 -0.7032 -0.0609 -0.3630
  113MOL    C8927193   1.805   4.125   2.582 -0.5218 -0.3957  0.3235
  113MOL    C9027194   1.854   4.252   2.520 -0.2389  0.0170  0.1783
  113MOL    O9127195   1.842   4.014   2.541  0.9106 -0.1565  0.5109
  113MOL    H9227196   1.464   4.181   2.772 -0.0482 -0.1527  0.4658
  113MOL    H9327197   1.425   4.019   2.805 -1.8192  2.3723  0.1606
  113MOL    H9427198   1.666   3.957   2.702  1.5920  0.7972 -0.1713
  113MOL    H9527199   1.844   4.341   2.582  0.3592  0.5732 -0.5132
  113MOL    H9627200   1.797   4.264   2.428  1.7330 -2.2971 -1.4141
  113MOL    H9727201   1.958   4.239   2.491 -0.1299 -2.1233  1.4399
  113MOL    C9827202   1.675   4.031   2.901  0.5620 -0.5756 -0.5882
  113MOL    C9927203   1.767   3.908   2.926  0.3097 -0.2334  0.3546
  113MOL   O10027204   1.896   3.944   2.895  0.0646  0.4784  0.4465
  113MOL   C10127205   1.978   3.865   2.826  0.0214 -0.3533  0.0972
  113MOL   C10227206   2.102   3.926   2.776 -0.0902 -0.0785 -0.7485
  113MOL   O10327207   1.952   3.748   2.785 -0.2341  0.5101  0.6517
  113MOL   H10427208   1.728   4.120   2.934  0.0208 -0.8529  1.0732
  113MOL   H10527209   1.595   4.018   2.975  0.6746  1.4450 -0.0824
  113MOL   H10627210   1.735   3.838   2.849 -0.4088 -1.4468  1.7247
  113MOL   H10727211   2.195   3.869   2.771  1.6866  2.8283 -2.2583
  113MOL   H10827212   2.124   4.015   2.836 -0.0995  0.8452 -2.1041
  113MOL   H10927213   2.072   3.962   2.678 -0.0276 -0.8576 -1.0535
  113MOL   C11027214   1.764   3.845   3.067 -0.5455 -0.0398  0.2429
  113MOL   C11127215   1.814   3.704   3.066 -0.7075  0.1651  0.8115
  113MOL   O11227216   1.807   3.641   3.201  0.1139 -0.3124  0.2417
  113MOL   C11327217   1.914   3.632   3.282  1.1196 -0.6797 -0.3878
  113MOL   C11427218   1.880   3.560   3.410 -0.5735 -0.0963 -0.4207
  113MOL   O11527219   2.030   3.666   3.252  0.1995  0.7365  0.3511
  113MOL   H11627220   1.825   3.900   3.139  0.2001  0.6312 -0.9008
  113MOL   H11727221   1.664   3.846   3.112 -0.9406  0.5528 -0.6254
  113MOL   H11827222   1.920   3.700   3.039 -1.0571 -1.6524 -0.4199
  113MOL   H11927223   1.806   3.484   3.384  0.3095 -1.2397  0.3848
  113MOL   H12027224   1.844   3.629   3.486  1.5283  0.1472  0.3862
  113MOL   H12127225   1.972   3.511   3.441 -1.5807 -0.9916  1.2561
  113MOL   C12227226   1.741   3.607   2.966 -0.3618 -0.2939  0.0831
  113MOL   C12327227   1.605   3.551   3.006 -0.0905  0.1476  0.1209
  113MOL   O12427228   1.503   3.648   2.980 -0.2105  0.1721 -0.1907
  113MOL   C12527229   1.408   3.688   3.065 -0.2585  0.0266  0.0448
  113MOL   C12627230   1.328   3.807   3.010  0.0175  0.1060 -0.2894
  113MOL   O12727231   1.382   3.650   3.178 -0.0002  0.0886 -0.0845
  113MOL   H12827232   1.746   3.649   2.865  0.2850 -0.0422  0.2141
  113MOL   H12927233   1.815   3.529   2.955 -2.3163 -1.7263 -3.9714
  113MOL   H13027234   1.599   3.534   3.114 -1.4533  1.4233  0.2648
  113MOL   H13127235   1.231   3.772   2.972 -0.1177 -1.8845  1.7727
  113MOL   H13227236   1.380   3.836   2.919  0.0505  0.8605 -0.0314
  113MOL   H13327237   1.314   3.897   3.069 -0.0156 -0.5716  0.7426
  113MOL   C13427238   1.557   3.420   2.949  0.1745  0.3711  0.1112
  113MOL   C13527239   1.523   3.426   2.794 -0.0679 -0.5298 -0.1139
  113MOL   O13627240   1.649   3.436   2.730  0.1292  0.0283 -0.1955
  113MOL   C13727241   1.659   3.493   2.612 -0.4931  0.0839  0.6486
  113MOL   C13827242   1.803   3.525   2.583 -0.1689  0.4280  0.0208
  113MOL   O13927243   1.571   3.541   2.542 -0.2421 -0.2592 -0.0706
  113MOL   H14027244   1.630   3.343   2.974  0.8788  0.7409 -0.7504
  113MOL   H14127245   1.467   3.389   3.001  1.3669 -2.8694  0.3611
  113MOL   H14227246   1.462   3.515   2.779  0.4902  0.1069  1.2607
  113MOL   H14327247   1.820   3.510   2.476 -2.0900  0.6448 -0.3205
  113MOL   H14427248   1.863   3.463   2.650  0.9681  2.1824  0.6327
  113MOL   H14527249   1.829   3.628   2.608  1.8532 -0.0654  0.1103
  113MOL   C14627250   1.458   3.291   2.736  0.2883 -0.3751  0.0833
  113MOL   C14727251   1.319   3.240   2.797  0.2185  0.6022  0.1592
  113MOL   O14827252   1.206   3.303   2.736 -0.7330  0.0535  0.3554
  113MOL   C14927253   1.169   3.435   2.761 -0.7100  0.1272  0.1018
  113MOL   C15027254   1.052   3.488   2.678 -0.2449  0.2823 -0.0165
  113MOL   O15127255   1.221   3.517   2.838 -0.0938  0.1826 -0.4515
  113MOL   H15227256   1.441   3.312   2.630  1.3363 -0.2298 -0.0594
  113MOL   H15327257   1.526   3.208   2.756  0.1586 -0.1329  1.5385
  113MOL   H15427258   1.326   3.259   2.904  0.9055  1.0374  0.0379
  113MOL   H15527259   0.963   3.512   2.736 -0.7965 -0.8218 -0.3840
  113MOL   H15627260   1.017   3.410   2.610 -1.4329  0.3853  0.4681
  113MOL   H15727261   1.084   3.563   2.606  0.3529  0.5764  0.5495
  113MOL   C15827262   1.295   3.086   2.793 -0.2863 -0.3227 -0.0243
  113MOL   C15927263   1.168   3.036   2.862  1.0335  0.0588  0.1209
  113MOL   O16027264   1.175   2.898   2.834 -0.3449  0.9748 -0.0271
  113MOL   C16127265   1.088   2.839   2.743  0.4192 -0.1484  0.2643
  113MOL   C16227266   1.110   2.688   2.737 -0.4936  0.1561 -0.2559
  113MOL   O16327267   0.986   2.891   2.708 -0.6541  0.4602  0.1712
  113MOL   H16427268   1.293   3.080   2.684  0.9350  3.1538 -0.2919
  113MOL   H16527269   1.384   3.039   2.834  0.5661 -1.0393 -2.5647
  113MOL   H16627270   1.071   3.073   2.830  0.2109 -1.9339  0.2198
  113MOL   H16727271   1.115   2.656   2.841  0.8424  1.1825 -0.0006
  113MOL   H16827272   1.202   2.672   2.680  0.2940  0.7145  0.8479
  113MOL   H16927273   1.030   2.634   2.687 -0.7012 -1.3152  1.5976
  113MOL   C17027274   1.151   3.048   3.020 -0.1352 -0.1809 -0.3967
  113MOL   C17127275   1.065   3.163   3.056  0.6230 -0.2818  0.4191
  113MOL   O17227276   0.927   3.127   3.032  0.1083  0.1021 -0.5329
  113MOL   C17327277   0.856   3.182   2.935  0.7504  0.1723 -0.8373
  113MOL   C17427278   0.715   3.117   2.932 -1.2318  0.2827 -0.1572
  113MOL   O17527279   0.884   3.267   2.854 -0.1635  0.4141 -0.3550
  113MOL   H17627280   1.119   2.954   3.066 -1.9136  0.8659  0.5752
  113MOL   H17727281   1.248   3.072   3.063 -1.0922  0.1446  1.6577
  113MOL   H17827282   1.100   3.242   2.989  1.3182  0.4213  1.6001
  113MOL   H17927283   0.654   3.183   2.995 -0.6386 -1.1467  1.9586
  113MOL   H18027284   0.726   3.021   2.981 -2.9766  0.7167  1.1515
  113MOL   H18127285   0.669   3.108   2.834 -0.6182  1.0050 -0.5120
  113MOL   C18227286   1.071   3.212   3.201 -0.0400 -0.8005 -0.3699
  113MOL   C18327287   1.006   3.348   3.230  0.8193  0.1366 -0.1517
  113MOL   O18427288   0.963   3.348   3.363  0.1591  0.2927 -0.2491
  113MOL   C18527289   0.837   3.352   3.387  0.3072  0.4602 -0.2997
  113MOL   C18627290   0.795   3.358   3.531 -0.9318  0.5309  0.3253
  113MOL   O18727291   0.740   3.356   3.309  0.0040 -0.5289 -0.6466
  113MOL   H18827292   1.023   3.135   3.260 -1.6012  0.7274  0.4115
  113MOL   H18927293   1.173   3.207   3.238 -0.4680 -0.4294  0.8803
  113MOL   H19027294   0.921   3.360   3.163  0.9297  0.6472 -0.2012
  113MOL   H19127295   0.688   3.378   3.537 -0.9093  0.2399  2.0186
  113MOL   H19227296   0.842   3.437   3.590  0.3254 -0.5986  0.8685
  113MOL   H19327297   0.819   3.262   3.577 -0.1850 -0.0041 -1.1383
  113MOL   C19427298   1.094   3.466   3.201  0.0771 -0.4852 -0.2340
  113MOL   C19527299   1.017   3.598   3.187  0.0918  1.0416  0.0343
  113MOL   O19627300   1.101   3.702   3.225 -0.6185  0.1444 -0.0870
  113MOL   C19727301   1.108   3.754   3.347 -0.3722 -0.1431 -0.1199
  113MOL   C19827302   1.180   3.887   3.347  0.3686 -0.6325 -0.1048
  113MOL   O19927303   1.054   3.707   3.446 -0.5792 -0.4006 -0.0417
  113MOL   H20027304   1.176   3.476   3.272  0.4656 -2.0441 -0.4414
  113MOL   H20127305   1.137   3.456   3.101 -0.0809 -2.0718 -0.1637
  113MOL   H20227306   0.928   3.590   3.249 -0.4275  1.8847 -0.5926
  113MOL   H20327307   1.124   3.954   3.413  0.8479 -1.6312  1.3499
  113MOL   H20427308   1.174   3.942   3.253 -0.7388  1.0216  0.9003
  113MOL   H20527309   1.281   3.876   3.387  1.0172  3.1145 -0.4923
  113MOL   C20627310   0.973   3.623   3.049  0.5956  0.4964 -0.1187
  113MOL   C20727311   0.907   3.758   3.017 -0.4789 -0.0422  0.2534
  113MOL   O20827312   0.886   3.756   2.872  0.3330 -0.7326 -0.4035
  113MOL   C20927313   0.972   3.825   2.798 -0.0371 -0.1215  0.3107
  113MOL   C21027314   0.936   3.826   2.652 -0.5070  0.4530 -0.1351
  113MOL   O21127315   1.046   3.911   2.844  0.6026 -0.0758  0.0710
  113MOL   H21227316   1.066   3.627   2.992  0.7025  0.3955  0.0488
  113MOL   H21327317   0.913   3.538   3.016  0.4128 -0.5915  2.8691
  113MOL   H21427318   0.978   3.833   3.050  1.7180 -1.9140 -0.0536
  113MOL   H21527319   1.022   3.809   2.587 -1.2687 -0.8969 -0.8303
  113MOL   H21627320   0.894   3.925   2.634 -0.6758  0.1626 -1.3987
  113MOL   H21727321   0.870   3.744   2.624 -0.5484 -0.0256  1.2993
  113MOL   C21827322   0.765   3.779   3.085  0.2163  0.8583  0.6798
  113MOL   C21927323   0.698   3.913   3.046  0.0349 -0.0327 -0.1154
  113MOL   O22027324   0.791   4.020   3.050 -0.4223 -0.2736 -0.5177
  113MOL   C22127325   0.837   4.085   3.156 -0.2153 -0.1128 -0.3488
  113MOL   C22227326   0.922   4.201   3.125  0.0669 -0.0424 -0.0389
  113MOL   O22327327   0.818   4.051   3.272  0.4338  0.2863  0.4907
  113MOL   H22427328   0.696   3.696   3.070  0.7113  0.5170  0.2443
  113MOL   H22527329   0.784   3.772   3.192 -0.6549 -2.5413  0.6770
  113MOL   H22627330   0.619   3.928   3.120 -0.7401 -0.9950 -0.7289
  113MOL   H22727331   0.900   4.223   3.021  0.8396 -1.0625 -0.4219
  113MOL   H22827332   1.023   4.161   3.118  0.6538  1.3886  0.0714
  113MOL   H22927333   0.901   4.279   3.198  1.3012 -1.0507  1.4327
  113MOL   C23027334   0.611   3.927   2.914 -0.8528  0.0665  0.4170
  113MOL   C23127335   0.480   3.845   2.901  0.4283  0.4910 -0.1251
  113MOL   O23227336   0.501   3.708   2.862  0.2653 -0.5570 -0.4352
  113MOL   C23327337   0.406   3.616   2.894 -0.3650  0.4362 -0.2940
  113MOL   C23427338   0.443   3.488   2.835 -0.3500  0.5716 -0.3415
  113MOL   O23527339   0.315   3.631   2.977  0.4561  0.7067  0.0804
  113MOL   H23627340   0.592   4.033   2.899  0.7919  0.1872 -0.8740
  113MOL   H23727341   0.671   3.897   2.829  0.0397  0.1453  1.0093
  113MOL   H23827342   0.414   3.893   2.829 -0.0597  2.2891  1.4854
  113MOL   H23927343   0.425   3.486   2.728 -1.7539  0.2681 -0.0993
  113MOL   H24027344   0.377   3.414   2.879 -1.9210  1.0200 -1.9011
  113MOL   H24127345   0.543   3.464   2.871 -1.0703 -0.9288  0.6646
  113MOL   H24227346   0.423   3.845   2.994  0.1016  3.0390 -0.2862
  114MOL     C127347   4.604   0.983   5.746 -0.0550 -0.4932  0.2193
  114MOL     C227348   4.592   1.133   5.724  0.0786 -0.1723 -0.2473
  114MOL     O327349   4.474   1.170   5.647 -0.1590  0.2136  0.5939
  114MOL     C427350   4.479   1.206   5.521  0.6422  0.1216 -0.0529
  114MOL     C527351   4.350   1.264   5.469  1.4490 -0.2658 -0.0739
  114MOL     O627352   4.582   1.206   5.454  0.1414 -0.4725  0.9509
  114MOL     H727353   4.604   0.932   5.650  1.9179 -2.1920  1.0809
  114MOL     H827354   4.520   0.951   5.808  0.3212  2.5287  2.3759
  114MOL     H927355   4.676   1.171   5.666  0.2928  0.3766  0.4060
  114MOL    H1027356   4.290   1.192   5.414  0.8878  1.0806 -1.2322
  114MOL    H1127357   4.372   1.345   5.400  0.2734 -1.4920 -1.9161
  114MOL    H1227358   4.287   1.292   5.554  0.8362 -0.6993 -0.3828
  114MOL    H1327359   4.704   0.962   5.785 -1.1694 -1.2475  2.7731
  114MOL    C1427360   4.599   1.215   5.856 -0.0124  0.2180  0.2762
  114MOL    C1527361   4.734   1.224   5.934 -0.1708  0.4845 -0.0256
  114MOL    O1627362   4.760   1.091   5.970 -0.7427 -0.0856 -0.0109
  114MOL    C1727363   4.789   1.055   6.101 -0.4849 -0.3543  0.1371
  114MOL    C1827364   4.814   0.897   6.115 -0.3554 -0.1814 -0.5452
  114MOL    O1927365   4.798   1.131   6.196 -0.6013  0.1084  0.0771
  114MOL    H2027366   4.573   1.318   5.832  0.8737  0.2722 -0.4533
  114MOL    H2127367   4.520   1.187   5.926 -0.6284 -1.7266 -1.1635
  114MOL    H2227368   4.714   1.282   6.024 -1.1869 -0.4947  0.3922
  114MOL    H2327369   4.826   0.885   6.223  0.7548  0.4690 -0.5917
  114MOL    H2427370   4.911   0.872   6.072  0.3395 -1.3866  1.6631
  114MOL    H2527371   4.736   0.828   6.081  0.1642 -0.6104 -0.8804
  114MOL    C2627372   4.845   1.278   5.848  0.6270 -0.7955 -0.1372
  114MOL    C2727373   4.831   1.432   5.813  0.1194  0.0050  0.6833
  114MOL    O2827374   4.878   1.502   5.927 -0.4663 -0.1636  0.9217
  114MOL    C2927375   4.803   1.592   5.985 -0.1396 -0.6787 -0.3127
  114MOL    C3027376   4.882   1.652   6.105  0.1693  0.5301  0.0124
  114MOL    O3127377   4.696   1.634   5.948 -1.0195  0.3724  0.1165
  114MOL    H3227378   4.937   1.272   5.905  0.5540  3.2801  0.5696
  114MOL    H3327379   4.857   1.217   5.758  4.4559 -0.0465 -0.1872
  114MOL    H3427380   4.725   1.450   5.794  0.3444 -0.4584 -1.0194
  114MOL    H3527381   4.974   1.703   6.077 -1.0604  2.2183 -1.0000
  114MOL    H3627382   4.910   1.574   6.176 -1.2076 -1.1560 -1.2616
  114MOL    H3727383   4.822   1.729   6.152  0.8263 -0.5721  2.7710
  114MOL    C3827384   4.913   1.481   5.690 -0.1662  0.0179 -0.4674
  114MOL    C3927385   4.856   1.611   5.631  0.6152 -0.1785  0.8636
  114MOL    O4027386   4.926   1.644   5.516  0.0939 -0.7116 -0.3299
  114MOL    C4127387   4.966   1.770   5.483  0.4012 -0.1282  0.8506
  114MOL    C4227388   5.055   1.778   5.355 -0.4907  0.5425  0.2077
  114MOL    O4327389   4.948   1.862   5.550  0.6794  0.0980  0.0141
  114MOL    H4427390   5.016   1.489   5.726  0.5357  1.0988 -2.6357
  114MOL    H4527391   4.908   1.410   5.608 -0.7554  1.2504 -1.5034
  114MOL    H4627392   4.878   1.692   5.701  3.7287 -1.5595  1.5685
  114MOL    H4727393   4.994   1.778   5.265  2.7395 -0.1652 -2.0425
  114MOL    H4827394   5.134   1.703   5.360  0.0596  1.0742 -0.4616
  114MOL    H4927395   5.106   1.875   5.353 -2.6367  1.6958 -0.9751
  114MOL    C5027396   4.705   1.616   5.594 -0.2806 -0.1071  0.1732
  114MOL    C5127397   4.642   1.747   5.519  0.1359  0.1193  0.9497
  114MOL    O5227398   4.513   1.700   5.476  0.0116 -0.1184 -0.3602
  114MOL    C5327399   4.449   1.751   5.369 -0.4178  0.3287  0.0275
  114MOL    C5427400   4.313   1.692   5.348  0.3077  0.0868  0.2741
  114MOL    O5527401   4.497   1.839   5.295  0.0171  0.4323 -0.1828
  114MOL    H5627402   4.675   1.528   5.538 -2.7408 -0.7771  2.4115
  114MOL    H5727403   4.650   1.610   5.688  1.3666 -0.1453  1.1482
  114MOL    H5827404   4.696   1.753   5.424  0.6730 -0.7215  1.1957
  114MOL    H5927405   4.236   1.755   5.393  0.9737  0.8451  0.3388
  114MOL    H6027406   4.304   1.590   5.385 -0.9452  0.2059  0.3182
  114MOL    H6127407   4.301   1.696   5.240 -0.5415  1.6050  0.4092
  114MOL    C6227408   4.630   1.871   5.612  0.1647  0.4320  0.3179
  114MOL    C6327409   4.591   2.011   5.555  0.2619  0.2377 -0.7078
  114MOL    O6427410   4.584   2.111   5.656 -0.2885 -0.5559  0.3918
  114MOL    C6527411   4.476   2.131   5.742 -0.4376  0.0185 -0.4841
  114MOL    C6627412   4.485   2.245   5.839  0.0956 -0.0864  0.3027
  114MOL    O6727413   4.381   2.063   5.744  0.4121 -0.0279 -0.3621
  114MOL    H6827414   4.550   1.838   5.677  1.0594 -1.5592  0.4532
  114MOL    H6927415   4.729   1.870   5.659  1.2422 -0.7085 -1.8864
  114MOL    H7027416   4.500   1.993   5.498  0.3607  0.1847 -0.8516
  114MOL    H7127417   4.411   2.312   5.796 -3.3621 -2.3178  2.5592
  114MOL    H7227418   4.585   2.290   5.835  0.3197 -0.5794  0.3098
  114MOL    H7327419   4.462   2.218   5.942  0.2604 -1.3932  0.0021
  114MOL    C7427420   4.683   2.063   5.435  0.1098 -0.0882 -0.1540
  114MOL    C7527421   4.603   2.136   5.327 -0.5379  0.2371  0.1778
  114MOL    O7627422   4.568   2.264   5.380  0.2923  0.4281  0.0366
  114MOL    C7727423   4.440   2.292   5.396 -0.2785  0.2458  0.0484
  114MOL    C7827424   4.418   2.422   5.475  0.0568 -0.0774 -0.7916
  114MOL    O7927425   4.349   2.226   5.345 -0.6400  0.0360  0.9704
  114MOL    H8027426   4.768   2.122   5.468 -1.0729  1.1222  0.7830
  114MOL    H8127427   4.738   1.983   5.385 -0.5391 -1.2705  0.9934
  114MOL    H8227428   4.517   2.078   5.292 -0.7304 -0.1192  1.2441
  114MOL    H8327429   4.511   2.475   5.492  0.7389 -1.3970 -0.2928
  114MOL    H8427430   4.364   2.406   5.569  1.3164 -0.9665 -0.2050
  114MOL    H8527431   4.363   2.484   5.404  3.0757  1.0780 -2.1833
  114MOL    C8627432   4.687   2.147   5.200  0.3727 -0.2527  0.4232
  114MOL    C8727433   4.613   2.196   5.070  0.2387 -0.2369  0.6625
  114MOL    O8827434   4.617   2.340   5.061 -0.1906  0.2851  0.0415
  114MOL    C8927435   4.504   2.412   5.042 -0.3526 -0.9832 -0.0782
  114MOL    C9027436   4.530   2.564   5.040  0.3668  0.4571 -0.1895
  114MOL    O9127437   4.388   2.371   5.038 -0.0349  0.3788  0.4619
  114MOL    H9227438   4.774   2.208   5.223 -0.5501  0.9745  0.6987
  114MOL    H9327439   4.719   2.044   5.181 -1.6493 -0.8646  0.2503
  114MOL    H9427440   4.507   2.169   5.067 -0.1940  1.4130  0.4252
  114MOL    H9527441   4.464   2.628   4.981  0.8729  0.5103 -0.7039
  114MOL    H9627442   4.628   2.581   4.995 -0.3551 -0.5210 -2.1610
  114MOL    H9727443   4.541   2.593   5.145  0.3222  0.4019 -0.1699
  114MOL    C9827444   4.672   2.143   4.937 -0.0777  0.4198 -0.7714
  114MOL    C9927445   4.577   2.059   4.839 -0.3228 -0.9149 -0.0191
  114MOL   O10027446   4.474   2.147   4.807 -0.7087  0.5206 -0.0763
  114MOL   C10127447   4.346   2.106   4.786  0.4318 -0.1448 -0.2703
  114MOL   C10227448   4.250   2.221   4.751 -0.4006 -0.0487  0.0336
  114MOL   O10327449   4.302   1.993   4.799 -0.3860  0.1185 -0.0058
  114MOL   H10427450   4.711   2.216   4.866  3.0611 -0.3745  0.0519
  114MOL   H10527451   4.762   2.082   4.951 -0.8799 -0.2672  1.5535
  114MOL   H10627452   4.533   1.979   4.899 -1.3312  0.4963  1.1682
  114MOL   H10727453   4.284   2.275   4.662 -0.2656  2.0052  1.2973
  114MOL   H10827454   4.236   2.293   4.832 -0.0464  0.1794 -0.1075
  114MOL   H10927455   4.153   2.185   4.717 -0.9034  0.9422  0.3779
  114MOL   C11027456   4.648   1.998   4.715 -0.5479 -0.1865 -0.2719
  114MOL   C11127457   4.759   1.897   4.750 -0.2145 -0.9773  0.4171
  114MOL   O11227458   4.708   1.775   4.805 -0.2295 -0.8586  0.0972
  114MOL   C11327459   4.708   1.754   4.936  0.2735  0.2597  0.0744
  114MOL   C11427460   4.596   1.669   4.980  0.0657 -0.4765  0.1522
  114MOL   O11527461   4.784   1.800   5.017 -0.3346  0.2732 -0.1520
  114MOL   H11627462   4.570   1.953   4.654  0.6136 -0.2403 -1.7492
  114MOL   H11727463   4.681   2.078   4.648 -0.4173 -0.2782 -0.3178
  114MOL   H11827464   4.827   1.949   4.818  1.0560  0.0349 -1.5740
  114MOL   H11927465   4.638   1.596   5.050 -2.0342 -1.1920  0.7034
  114MOL   H12027466   4.552   1.615   4.896  0.7833 -0.6696 -0.1074
  114MOL   H12127467   4.514   1.720   5.030 -0.2368 -1.6596  0.8959
  114MOL   C12227468   4.836   1.858   4.623  0.8492  0.0008 -0.2796
  114MOL   C12327469   4.983   1.813   4.644  0.7596  0.0369  0.1908
  114MOL   O12427470   5.018   1.725   4.532  0.3758  0.2580 -0.2592
  114MOL   C12527471   5.079   1.604   4.555 -0.1821  0.9953  0.5640
  114MOL   C12627472   5.089   1.514   4.427 -0.5908 -0.2182 -0.1837
  114MOL   O12727473   5.127   1.566   4.660 -0.2039 -0.0417 -0.1377
  114MOL   H12827474   4.771   1.794   4.563 -2.7498  2.4425  0.8420
  114MOL   H12927475   4.840   1.954   4.572 -1.5675  0.3382  0.0998
  114MOL   H13027476   4.986   1.749   4.733 -0.5409  0.5482  0.6111
  114MOL   H13127477   5.190   1.529   4.388 -1.3008 -0.0538 -2.0022
  114MOL   H13227478   5.028   1.544   4.342  0.6019 -1.5958 -1.5535
  114MOL   H13327479   5.063   1.412   4.454 -1.5267  0.2388  0.6690
  114MOL   C13427480   5.082   1.930   4.642 -0.4266  0.6555  0.2184
  114MOL   C13527481   5.227   1.908   4.677 -0.5655 -0.0400  0.4829
  114MOL   O13627482   5.283   2.038   4.670 -0.4646 -0.0677 -0.3058
  114MOL   C13727483   5.369   2.061   4.571  0.7987  0.2263 -0.3866
  114MOL   C13827484   5.419   2.200   4.588 -0.0809 -0.2220  0.7425
  114MOL   O13927485   5.399   1.990   4.475  0.1850 -0.6148 -0.1998
  114MOL   H14027486   5.069   1.994   4.554  1.3598 -0.0473 -0.5755
  114MOL   H14127487   5.054   2.001   4.720 -1.2158 -0.9427  1.4043
  114MOL   H14227488   5.272   1.828   4.618 -0.5605 -0.0317  0.4762
  114MOL   H14327489   5.482   2.217   4.501 -0.6340 -0.1886  0.3508
  114MOL   H14427490   5.483   2.211   4.676  0.9187 -2.0717  0.2558
  114MOL   H14527491   5.341   2.277   4.594  1.3919  1.3688  0.0448
  114MOL   C14627492   5.259   1.853   4.818 -0.2103  0.5856 -0.3623
  114MOL   C14727493   5.400   1.809   4.850  0.3768  0.0592  0.0844
  114MOL   O14827494   5.493   1.921   4.874 -0.5719  0.2976  0.4557
  114MOL   C14927495   5.605   1.923   4.801 -0.2334 -0.2986 -0.0182
  114MOL   C15027496   5.703   2.035   4.824  0.2020 -0.0388 -0.5420
  114MOL   O15127497   5.640   1.841   4.716 -0.7695  0.0024 -0.3692
  114MOL   H15227498   5.218   1.912   4.900  0.9440  1.5885 -0.5028
  114MOL   H15327499   5.198   1.762   4.823  0.2874  0.3040  0.7537
  114MOL   H15427500   5.440   1.737   4.778  2.5313  0.9725  0.3469
  114MOL   H15527501   5.723   2.038   4.932 -0.5621 -1.2486 -0.3559
  114MOL   H15627502   5.660   2.130   4.794 -2.5451 -0.8304  0.7125
  114MOL   H15727503   5.790   2.018   4.760  0.1591 -1.6154 -0.1962
  114MOL   C15827504   5.391   1.728   4.986  0.0301  0.0560  0.0153
  114MOL   C15927505   5.325   1.593   5.013  0.7714 -0.1570 -0.3810
  114MOL   O16027506   5.183   1.600   4.986 -0.6548  0.3506  0.0574
  114MOL   C16127507   5.103   1.534   5.067 -0.4132  0.3558 -0.2085
  114MOL   C16227508   4.973   1.512   4.999  1.1257  0.6743 -0.0075
  114MOL   O16327509   5.126   1.490   5.178 -0.3932  0.3796 -0.1077
  114MOL   H16427510   5.495   1.705   5.011  0.4481  0.2554 -1.4608
  114MOL   H16527511   5.356   1.797   5.062 -0.5262  0.8693 -0.9751
  114MOL   H16627512   5.326   1.577   5.121 -3.1681  2.7264  0.2145
  114MOL   H16727513   4.959   1.562   4.903  0.1220  2.6538  1.1310
  114MOL   H16827514   4.897   1.533   5.075  0.6877 -0.9672  0.0233
  114MOL   H16927515   4.967   1.406   4.976  2.2294  0.8123 -0.9851
  114MOL   C17027516   5.377   1.481   4.926  0.2066 -0.1865 -0.2843
  114MOL   C17127517   5.517   1.429   4.940 -0.0520 -0.2854 -0.5103
  114MOL   O17227518   5.541   1.395   5.078  0.2775  0.6246  0.3403
  114MOL   C17327519   5.652   1.448   5.144  0.4785  1.1572  0.0840
  114MOL   C17427520   5.675   1.396   5.288 -0.0401  0.2472 -0.0913
  114MOL   O17527521   5.728   1.534   5.094 -0.4099  0.4615 -0.1860
  114MOL   H17627522   5.312   1.396   4.947  0.3067 -0.4653 -1.0583
  114MOL   H17727523   5.353   1.508   4.823 -2.3559  1.1385  0.6243
  114MOL   H17827524   5.583   1.511   4.909 -2.0512  1.4739 -0.2283
  114MOL   H17927525   5.783   1.384   5.299  0.2684  1.0051 -2.0712
  114MOL   H18027526   5.628   1.298   5.297 -0.9071  0.4930 -1.7910
  114MOL   H18127527   5.635   1.463   5.364  0.8891 -0.7816  1.3291
  114MOL   C18227528   5.559   1.305   4.862  0.0726 -0.1143 -0.3762
  114MOL   C18327529   5.546   1.318   4.704  0.2814 -0.4137 -0.2879
  114MOL   O18427530   5.639   1.411   4.662 -0.1025  0.6483 -0.3849
  114MOL   C18527531   5.617   1.500   4.563 -0.7348 -1.2310  0.5031
  114MOL   C18627532   5.743   1.587   4.532  0.8974  0.7113 -0.6092
  114MOL   O18727533   5.514   1.519   4.494  0.0206  0.3676 -0.2470
  114MOL   H18827534   5.664   1.292   4.887 -0.8626 -1.7701  3.0362
  114MOL   H18927535   5.496   1.226   4.903 -0.2107  1.6452  2.7485
  114MOL   H19027536   5.449   1.364   4.691  2.7581  5.3217  0.1584
  114MOL   H19127537   5.773   1.623   4.630 -0.0033 -0.6602  0.1711
  114MOL   H19227538   5.727   1.671   4.464 -1.2997  2.0202  1.4515
  114MOL   H19327539   5.824   1.523   4.497  1.5992  0.7990  0.8223
  114MOL   C19427540   5.563   1.182   4.629  0.3968 -0.1563  0.3335
  114MOL   C19527541   5.446   1.084   4.653  0.1516  0.6202 -0.2918
  114MOL   O19627542   5.322   1.138   4.624  0.2224  0.5284  0.4526
  114MOL   C19727543   5.230   1.166   4.710 -0.0860 -0.1133 -0.3043
  114MOL   C19827544   5.096   1.204   4.651  0.1461  0.3442 -0.3222
  114MOL   O19927545   5.253   1.149   4.834  0.5093  0.6665  0.3255
  114MOL   H20027546   5.557   1.207   4.523 -1.8020  1.1031  0.7131
  114MOL   H20127547   5.661   1.139   4.649  0.8166  1.9685  3.0827
  114MOL   H20227548   5.459   1.064   4.760 -0.9140  1.0363 -0.0758
  114MOL   H20327549   5.020   1.154   4.711  0.4033 -1.0021 -1.1015
  114MOL   H20427550   5.078   1.165   4.551  0.8363 -2.7115  0.6655
  114MOL   H20527551   5.070   1.309   4.655 -1.1630 -0.0323  2.2179
  114MOL   C20627552   5.462   0.956   4.565 -0.5609 -0.7603  0.5074
  114MOL   C20727553   5.464   0.831   4.650 -0.1456  0.6334 -0.2739
  114MOL   O20827554   5.581   0.829   4.731 -0.4074  0.3954 -0.0019
  114MOL   C20927555   5.695   0.783   4.679 -0.0404 -0.8401  0.0540
  114MOL   C21027556   5.812   0.787   4.772 -0.0417 -0.0720  0.1288
  114MOL   O21127557   5.710   0.734   4.565  0.0481 -0.1552 -0.7931
  114MOL   H21227558   5.376   0.949   4.498  1.1068 -1.1913 -1.6612
  114MOL   H21327559   5.538   0.961   4.488  1.5423  0.1616  2.5952
  114MOL   H21427560   5.472   0.744   4.584  1.6638  1.2200 -0.8693
  114MOL   H21527561   5.796   0.707   4.845 -1.8421 -0.3128 -0.5106
  114MOL   H21627562   5.805   0.880   4.827 -1.6741 -0.0037 -0.1663
  114MOL   H21727563   5.908   0.773   4.723  0.8535  1.0135  1.5364
  114MOL   C21827564   5.346   0.830   4.745 -0.2662 -0.4533 -0.9102
  114MOL   C21927565   5.299   0.686   4.778 -0.3732  0.2998 -0.1547
  114MOL   O22027566   5.392   0.607   4.844 -0.4411  0.1889  0.8268
  114MOL   C22127567   5.431   0.484   4.793 -0.6990  0.5105 -0.3640
  114MOL   C22227568   5.538   0.421   4.872  0.5069  0.1696  0.5743
  114MOL   O22327569   5.390   0.421   4.692 -0.2012  0.1178  0.6892
  114MOL   H22427570   5.364   0.888   4.835 -2.9796  1.1858 -1.3815
  114MOL   H22527571   5.259   0.881   4.704 -2.3214 -2.3147  0.9680
  114MOL   H22627572   5.283   0.644   4.679 -0.1398  0.6920 -0.3629
  114MOL   H22727573   5.595   0.359   4.803 -1.1877  0.4105 -1.0665
  114MOL   H22827574   5.497   0.348   4.942 -1.0573  0.7253  0.2470
  114MOL   H22927575   5.604   0.496   4.916  0.9064  0.0785  0.1309
  114MOL   C23027576   5.162   0.685   4.860  0.3674 -0.3949  0.1702
  114MOL   C23127577   5.094   0.543   4.871  0.4411  0.1332  0.3148
  114MOL   O23227578   4.978   0.564   4.955 -0.0599 -0.0775  0.2043
  114MOL   C23327579   4.881   0.476   4.949 -0.0644 -0.3171 -0.1813
  114MOL   C23427580   4.746   0.510   5.028  0.0319 -0.7443 -0.7349
  114MOL   O23527581   4.882   0.366   4.898  0.1989 -0.5566 -0.0622
  114MOL   H23627582   5.168   0.713   4.965  0.5959  1.9444 -0.4386
  114MOL   H23727583   5.087   0.748   4.812  0.0058 -1.6066 -0.8881
  114MOL   H23827584   5.170   0.472   4.900  1.6344  0.5010 -1.7880
  114MOL   H23927585   4.722   0.431   5.098  1.6614 -1.7380 -1.2697
  114MOL   H24027586   4.666   0.535   4.958  1.7098  0.5723 -2.2300
  114MOL   H24127587   4.779   0.603   5.074 -0.0563 -0.8507 -0.4611
  114MOL   H24227588   5.053   0.520   4.772  0.8063  0.1653  0.1578
  115MOL     C127589   6.255   6.958   5.703 -0.0919 -0.2337 -0.2178
  115MOL     C227590   6.394   6.979   5.760  0.4296 -0.3452  0.0920
  115MOL     O327591   6.392   7.096   5.839  0.5923 -0.2479 -0.3014
  115MOL     C427592   6.457   7.209   5.801 -0.1677 -0.1218 -0.0537
  115MOL     C527593   6.484   7.311   5.912  0.3932 -0.3498  0.4853
  115MOL     O627594   6.506   7.225   5.690  0.6371  0.4278 -0.2816
  115MOL     H727595   6.249   6.885   5.623 -4.5050  1.6203 -1.7036
  115MOL     H827596   6.223   7.048   5.649 -0.3221 -0.5968 -0.6864
  115MOL     H927597   6.456   6.982   5.671  1.1067 -0.8003  0.5371
  115MOL    H1027598   6.588   7.297   5.940  0.4793 -0.0011  0.3353
  115MOL    H1127599   6.415   7.290   5.994  0.6979  0.9339  1.0856
  115MOL    H1227600   6.465   7.414   5.882 -0.2243 -0.0919  1.7041
  115MOL    H1327601   6.180   6.944   5.780 -0.8840 -0.1363 -0.9752
  115MOL    C1427602   6.428   6.857   5.848 -0.3251 -0.0340 -1.0633
  115MOL    C1527603   6.583   6.839   5.851 -0.1746  0.4949  0.0949
  115MOL    O1627604   6.627   6.819   5.984 -0.5092  0.1683  0.3745
  115MOL    C1727605   6.638   6.906   6.080  0.3432 -0.3052 -0.1882
  115MOL    C1827606   6.657   6.846   6.214  0.0752 -0.5468  0.4203
  115MOL    O1927607   6.637   7.024   6.062 -0.4124  0.0226  0.7619
  115MOL    H2027608   6.393   6.869   5.951 -0.6101 -1.1904 -1.0229
  115MOL    H2127609   6.381   6.765   5.815  0.7644 -0.0397 -2.6698
  115MOL    H2227610   6.644   6.925   5.824  1.9498 -0.8991  0.3200
  115MOL    H2327611   6.758   6.806   6.227  0.1931  0.0756  1.5062
  115MOL    H2427612   6.596   6.757   6.229 -1.6072  0.6866  1.0466
  115MOL    H2527613   6.632   6.921   6.289 -0.3251  0.0688 -0.3339
  115MOL    C2627614   6.622   6.714   5.765  0.1330 -0.0222  0.2606
  115MOL    C2727615   6.585   6.717   5.618  0.2997  0.3471 -0.0320
  115MOL    O2827616   6.635   6.850   5.577  0.4640 -0.3547  0.1896
  115MOL    C2927617   6.584   6.912   5.464 -0.1146 -0.9411  0.5771
  115MOL    C3027618   6.657   7.039   5.424 -0.3592  0.6288 -0.3317
  115MOL    O3127619   6.485   6.870   5.406 -0.5836  0.4437  0.1309
  115MOL    H3227620   6.725   6.684   5.781  0.1615 -0.1101 -0.0956
  115MOL    H3327621   6.573   6.629   5.813  3.2020 -1.5330  0.8677
  115MOL    H3427622   6.478   6.700   5.601  0.6133 -0.7906 -0.9210
  115MOL    H3527623   6.743   7.057   5.488  0.2057  1.3163 -1.2686
  115MOL    H3627624   6.587   7.120   5.445 -1.6643 -0.2567 -1.1956
  115MOL    H3727625   6.678   7.035   5.317  2.4115  1.7846  0.1243
  115MOL    C3827626   6.663   6.615   5.533  0.1070 -0.2370  0.4759
  115MOL    C3927627   6.643   6.464   5.575 -0.3790  0.0494 -0.3931
  115MOL    O4027628   6.518   6.417   5.529  0.6909 -0.1769  0.2978
  115MOL    C4127629   6.409   6.422   5.613  0.0392  0.3837 -0.3847
  115MOL    C4227630   6.284   6.363   5.550 -0.7423 -0.2681 -0.3184
  115MOL    O4327631   6.411   6.465   5.725  0.5659 -0.0182 -0.1631
  115MOL    H4427632   6.633   6.620   5.429 -0.9849  0.3667  0.8158
  115MOL    H4527633   6.769   6.641   5.540  0.0704 -0.0747  0.4121
  115MOL    H4627634   6.661   6.447   5.681  0.9933  3.5928  0.0321
  115MOL    H4727635   6.300   6.255   5.545 -1.7519 -0.4557  0.5051
  115MOL    H4827636   6.262   6.394   5.448 -2.5008 -0.8944 -0.1402
  115MOL    H4927637   6.201   6.386   5.615 -1.7771  1.2435 -2.1320
  115MOL    C5027638   6.755   6.388   5.498  0.3285  0.0434  0.7494
  115MOL    C5127639   6.772   6.242   5.540 -0.1704  0.2421 -1.0428
  115MOL    O5227640   6.673   6.165   5.470 -0.6283 -0.9235 -0.4356
  115MOL    C5327641   6.576   6.099   5.533 -0.7992 -0.3570 -0.0636
  115MOL    C5427642   6.490   6.019   5.432  0.0410  0.0536 -0.2450
  115MOL    O5527643   6.553   6.116   5.649 -0.1553 -0.3136  0.1462
  115MOL    H5627644   6.753   6.394   5.389  1.6594 -1.7351  0.6006
  115MOL    H5727645   6.844   6.445   5.523  0.1295  0.5385  0.3266
  115MOL    H5827646   6.770   6.230   5.648 -0.2197 -1.4473 -1.2078
  115MOL    H5927647   6.408   6.076   5.388  0.5533 -0.1302 -1.4588
  115MOL    H6027648   6.449   5.935   5.487  0.3622 -1.6703 -2.5711
  115MOL    H6127649   6.554   5.990   5.349  0.0012 -1.6417  0.3048
  115MOL    C6227650   6.911   6.190   5.494  0.4882  0.2487  0.2823
  115MOL    C6327651   6.977   6.067   5.560  0.5247  0.4698  0.4446
  115MOL    O6427652   6.879   5.967   5.548 -0.3630  0.0228  0.0287
  115MOL    C6527653   6.856   5.888   5.656 -0.2261 -0.5529  0.0083
  115MOL    C6627654   6.771   5.770   5.630  0.8122  0.5757  0.2512
  115MOL    O6727655   6.895   5.912   5.771 -0.9108 -0.0691  0.1621
  115MOL    H6827656   6.916   6.189   5.386 -0.6546 -1.5631  0.2262
  115MOL    H6927657   6.997   6.257   5.505  3.0470 -3.0727  1.3681
  115MOL    H7027658   7.015   6.086   5.661 -0.9055  0.6861  0.9679
  115MOL    H7127659   6.835   5.686   5.658 -0.2043  0.0996  1.2243
  115MOL    H7227660   6.740   5.753   5.527  0.7295  1.9567  0.0411
  115MOL    H7327661   6.680   5.766   5.691  0.4884 -2.1410 -0.3257
  115MOL    C7427662   7.094   6.028   5.481 -0.3926 -0.5661 -0.4494
  115MOL    C7527663   7.226   6.116   5.501  0.1814 -0.5533  0.3584
  115MOL    O7627664   7.228   6.166   5.634 -0.3611  0.4502  0.2939
  115MOL    C7727665   7.274   6.293   5.653 -0.4527 -0.1701  0.3291
  115MOL    C7827666   7.330   6.318   5.792 -0.0847 -0.7826  0.3340
  115MOL    O7927667   7.286   6.380   5.567  0.0673  0.4816 -0.1241
  115MOL    H8027668   7.117   5.924   5.506 -0.5088 -0.3690  0.4833
  115MOL    H8127669   7.072   6.023   5.375 -1.9833  2.2932 -0.2922
  115MOL    H8227670   7.226   6.199   5.430  0.4426 -2.3966 -1.8638
  115MOL    H8327671   7.283   6.402   5.845 -0.5060 -0.5812 -0.3602
  115MOL    H8427672   7.433   6.344   5.772 -0.7364  0.3220 -1.7018
  115MOL    H8527673   7.327   6.222   5.844 -0.0607 -0.4505  0.9615
  115MOL    C8627674   7.355   6.035   5.469 -0.4431 -0.1069 -0.7671
  115MOL    C8727675   7.358   5.978   5.327 -0.2724  0.8235 -0.4223
  115MOL    O8827676   7.403   6.083   5.237  0.3366 -0.1695  0.0494
  115MOL    C8927677   7.346   6.088   5.119  0.1370 -0.1302 -0.2161
  115MOL    C9027678   7.430   6.181   5.031  0.2395 -0.2872  0.1118
  115MOL    O9127679   7.237   6.037   5.093 -0.0483 -0.1964 -0.0958
  115MOL    H9227680   7.442   6.098   5.485 -0.4439 -0.3020  0.0535
  115MOL    H9327681   7.358   5.959   5.548  1.2698  1.1842  0.4379
  115MOL    H9427682   7.253   5.953   5.309 -0.1103  1.5921 -2.5909
  115MOL    H9527683   7.523   6.137   4.994 -1.3680 -1.2608 -2.9352
  115MOL    H9627684   7.459   6.270   5.087  2.8045 -2.6526  2.6491
  115MOL    H9727685   7.364   6.217   4.952  0.1233  0.4664  0.5446
  115MOL    C9827686   7.460   5.871   5.307  0.3815  0.6231 -0.3618
  115MOL    C9927687   7.451   5.796   5.175 -0.2399 -0.0425  0.1334
  115MOL   O10027688   7.565   5.707   5.153  0.7744 -0.1854  0.1969
  115MOL   C10127689   7.699   5.732   5.151  0.1436  0.5531  0.0139
  115MOL   C10227690   7.786   5.604   5.145  0.2935  0.0905  0.1253
  115MOL   O10327691   7.750   5.848   5.149  0.7975 -0.0165 -0.3448
  115MOL   H10427692   7.562   5.909   5.318  0.9299 -0.0515 -2.6557
  115MOL   H10527693   7.441   5.793   5.380 -0.9469 -0.7247 -2.0831
  115MOL   H10627694   7.459   5.866   5.091 -0.8698 -1.4244 -1.0993
  115MOL   H10727695   7.879   5.626   5.196  0.5048  1.5141 -0.8195
  115MOL   H10827696   7.798   5.572   5.042  0.5091 -0.0381  0.1908
  115MOL   H10927697   7.732   5.521   5.190  0.6703  0.1322  0.6523
  115MOL   C11027698   7.324   5.709   5.167 -0.4688 -0.0847  0.7014
  115MOL   C11127699   7.294   5.651   5.023  0.6848  0.1061  0.2112
  115MOL   O11227700   7.326   5.513   5.018  0.2674 -0.0014  0.1591
  115MOL   C11327701   7.440   5.479   4.958  0.5444 -0.0139  0.8247
  115MOL   C11427702   7.479   5.335   4.979  0.1830 -0.0007 -0.0537
  115MOL   O11527703   7.510   5.561   4.900 -0.2935  0.1150  0.0399
  115MOL   H11627704   7.329   5.627   5.239 -1.3526 -0.4857  0.3157
  115MOL   H11727705   7.235   5.764   5.198 -0.6652  0.6676 -1.1547
  115MOL   H11827706   7.346   5.705   4.944  0.7435  0.4612  0.4955
  115MOL   H11927707   7.396   5.278   5.021  1.2207  0.2820  2.5112
  115MOL   H12027708   7.555   5.314   5.055 -0.2457  1.1634  0.6989
  115MOL   H12127709   7.516   5.293   4.886 -2.2572  2.0211 -1.9766
  115MOL   C12227710   7.140   5.665   4.993  0.0232  0.2293  0.0027
  115MOL   C12327711   7.032   5.591   5.075  0.8793  0.0292  0.1256
  115MOL   O12427712   6.919   5.680   5.091  0.1431  0.2888  0.3116
  115MOL   C12527713   6.910   5.766   5.192  0.4775  0.6323 -0.0122
  115MOL   C12627714   6.783   5.852   5.193 -0.0122  0.6251  0.0292
  115MOL   O12727715   6.995   5.786   5.278 -0.2117 -0.0764  0.5081
  115MOL   H12827716   7.113   5.770   5.004  2.2093  0.8472 -0.1288
  115MOL   H12927717   7.117   5.646   4.889 -0.2850  1.2520 -0.1160
  115MOL   H13027718   7.081   5.580   5.171  3.0954  1.0694 -0.8451
  115MOL   H13127719   6.769   5.909   5.102  1.7093  0.9613 -0.0523
  115MOL   H13227720   6.785   5.927   5.272 -0.2474  0.7607 -0.0939
  115MOL   H13327721   6.695   5.789   5.205  0.5558 -0.2142 -0.1016
  115MOL   C13427722   6.980   5.451   5.031 -0.2303 -0.2068  0.5886
  115MOL   C13527723   6.886   5.443   4.920  0.2076 -0.7236  0.7281
  115MOL   O13627724   6.923   5.511   4.801 -0.0925 -0.0307 -0.2361
  115MOL   C13727725   6.846   5.604   4.736 -0.0978 -0.1656 -0.5267
  115MOL   C13827726   6.917   5.664   4.617  0.9014 -0.4603  0.1228
  115MOL   O13927727   6.727   5.638   4.760 -0.1304  0.2606 -0.5565
  115MOL   H14027728   7.070   5.392   5.016  0.3065 -0.3252  3.8052
  115MOL   H14127729   6.925   5.415   5.118  0.9571 -0.4671  1.2478
  115MOL   H14227730   6.787   5.461   4.963 -0.8201 -3.3093 -0.4165
  115MOL   H14327731   6.890   5.769   4.615  2.3377 -0.0953 -0.5928
  115MOL   H14427732   6.881   5.632   4.519  0.2886 -1.1585  0.5726
  115MOL   H14527733   7.023   5.640   4.623  0.6935 -1.4410 -0.0533
  115MOL   C14627734   6.882   5.291   4.876 -0.0880 -0.4592  0.5433
  115MOL   C14727735   6.738   5.239   4.830  0.0032  0.3001  0.6628
  115MOL   O14827736   6.716   5.307   4.706  0.3353  0.1659 -0.2173
  115MOL   C14927737   6.591   5.358   4.678 -0.3369  0.0429  0.1537
  115MOL   C15027738   6.586   5.419   4.537 -0.1341 -0.1047  0.5341
  115MOL   O15127739   6.494   5.374   4.757  0.1780  0.0878  0.1321
  115MOL   H15227740   6.958   5.274   4.800  0.5988  1.1029  0.8729
  115MOL   H15327741   6.910   5.226   4.959  0.1246 -1.3348 -0.2089
  115MOL   H15427742   6.662   5.271   4.901  0.3657 -0.5626  1.4586
  115MOL   H15527743   6.618   5.523   4.543 -0.8327  0.1994 -0.6377
  115MOL   H15627744   6.485   5.416   4.496  1.3292  2.7295 -3.6239
  115MOL   H15727745   6.650   5.365   4.468  1.2609 -1.9472  3.1955
  115MOL   C15827746   6.724   5.088   4.828  0.1549  0.9553  0.1359
  115MOL   C15927747   6.583   5.031   4.808  0.1114 -0.1995 -0.3656
  115MOL   O16027748   6.593   4.891   4.833  0.0472 -0.6156  0.2034
  115MOL   C16127749   6.591   4.806   4.734  0.8115  0.0480 -0.0124
  115MOL   C16227750   6.615   4.663   4.796 -0.1185  0.0044 -0.7011
  115MOL   O16327751   6.570   4.822   4.613  0.6949  0.0377 -0.4564
  115MOL   H16427752   6.796   5.060   4.751 -0.6862  1.3889 -0.8152
  115MOL   H16527753   6.762   5.045   4.921 -1.5939  0.2829  0.5541
  115MOL   H16627754   6.567   5.056   4.703  0.8336  2.1884  0.0554
  115MOL   H16727755   6.661   4.601   4.719  1.1078  0.7276 -0.5695
  115MOL   H16827756   6.514   4.630   4.822 -0.3508  2.1612  1.3512
  115MOL   H16927757   6.678   4.676   4.884 -0.9668  0.7192 -0.1890
  115MOL   C17027758   6.467   5.083   4.893  0.4125 -0.7264  0.3490
  115MOL   C17127759   6.334   5.105   4.816 -0.1212  0.1175 -0.4623
  115MOL   O17227760   6.279   4.985   4.774 -0.1621 -0.1723 -0.3048
  115MOL   C17327761   6.247   4.962   4.642 -0.0287  0.0779 -0.5854
  115MOL   C17427762   6.212   4.814   4.632  0.9376  0.3999  0.3971
  115MOL   O17527763   6.253   5.039   4.549 -0.4749  0.3548  0.3730
  115MOL   H17627764   6.444   5.031   4.986  0.5533 -1.1288  0.1580
  115MOL   H17727765   6.487   5.186   4.923 -0.4740 -0.2069 -0.8350
  115MOL   H17827766   6.358   5.174   4.735 -0.9566 -0.0106 -0.8133
  115MOL   H17927767   6.155   4.798   4.541  3.7355  2.3240 -1.7833
  115MOL   H18027768   6.147   4.789   4.716 -0.4244  2.4370 -0.0152
  115MOL   H18127769   6.303   4.755   4.635 -0.9262 -2.5703 -0.0202
  115MOL   C18227770   6.244   5.172   4.916  0.4075 -0.5655 -0.4388
  115MOL   C18327771   6.114   5.217   4.850 -0.0048 -0.1262  0.8088
  115MOL   O18427772   6.027   5.275   4.943  0.3107 -0.0885 -0.4207
  115MOL   C18527773   5.938   5.205   5.010  0.4658 -0.6477 -0.5051
  115MOL   C18627774   5.875   5.285   5.120 -0.0682  1.0766 -0.4891
  115MOL   O18727775   5.914   5.085   4.990  0.7145  0.2528 -0.7598
  115MOL   H18827776   6.222   5.102   4.997 -2.2377 -1.0933 -1.5724
  115MOL   H18927777   6.295   5.262   4.951 -0.9762 -0.5247  1.5433
  115MOL   H19027778   6.073   5.136   4.789 -0.4251  1.2241 -0.7535
  115MOL   H19127779   5.944   5.365   5.147  2.0256 -1.4544  2.0244
  115MOL   H19227780   5.854   5.226   5.209  0.6358 -0.8490 -1.5821
  115MOL   H19327781   5.788   5.337   5.079 -0.2932 -0.2838 -1.7706
  115MOL   C19427782   6.141   5.331   4.744  0.1298 -0.0122  0.6269
  115MOL   C19527783   6.028   5.338   4.641 -0.2515 -0.5117 -0.2051
  115MOL   O19627784   5.917   5.384   4.714  0.0504  0.1479 -0.2034
  115MOL   C19727785   5.792   5.345   4.684  0.2832  0.5746  0.5849
  115MOL   C19827786   5.700   5.410   4.784 -0.0892 -0.3160 -0.4487
  115MOL   O19927787   5.759   5.268   4.596  0.1260 -0.6050  0.2912
  115MOL   H20027788   6.139   5.431   4.787 -0.0314  0.9951 -1.6806
  115MOL   H20127789   6.233   5.317   4.688  0.6111 -0.5843  1.5404
  115MOL   H20227790   6.022   5.235   4.606 -2.2023 -0.0215 -1.3645
  115MOL   H20327791   5.631   5.335   4.823 -2.7035  1.9921 -0.4354
  115MOL   H20427792   5.645   5.475   4.716 -0.0026 -0.0627 -0.2778
  115MOL   H20527793   5.740   5.472   4.864 -0.7121 -0.8488  0.2818
  115MOL   C20627794   6.053   5.443   4.530  0.4135  0.5426 -0.7234
  115MOL   C20727795   6.183   5.423   4.454  0.5961  0.9628  0.1237
  115MOL   O20827796   6.154   5.327   4.362 -0.2805 -0.0593 -0.1839
  115MOL   C20927797   6.241   5.245   4.308 -0.2130 -0.2331  0.6231
  115MOL   C21027798   6.190   5.164   4.183  0.5219  0.3897  0.3317
  115MOL   O21127799   6.361   5.246   4.333 -0.0138 -0.2003  0.4912
  115MOL   H21227800   5.964   5.445   4.467  1.5166  0.1849 -2.3165
  115MOL   H21327801   6.062   5.541   4.577 -0.4275  0.1822  0.2009
  115MOL   H21427802   6.267   5.398   4.520  0.0459 -1.2828  0.0129
  115MOL   H21527803   6.089   5.127   4.201  0.6584 -0.3052 -0.2788
  115MOL   H21627804   6.254   5.078   4.165 -0.8359 -0.4790 -0.4135
  115MOL   H21727805   6.200   5.229   4.095 -2.0993  1.0905  0.4970
  115MOL   C21827806   6.225   5.544   4.369 -0.4690 -0.1874  0.3119
  115MOL   C21927807   6.253   5.681   4.446 -0.6849 -0.2387  0.1349
  115MOL   O22027808   6.336   5.653   4.565 -0.4964  0.6502  0.0965
  115MOL   C22127809   6.293   5.691   4.688 -0.2662 -0.0786 -0.0487
  115MOL   C22227810   6.406   5.693   4.788  0.6059 -0.6473  0.3863
  115MOL   O22327811   6.179   5.733   4.714 -0.2922 -0.0520  0.1534
  115MOL   H22427812   6.317   5.521   4.316 -0.8656  1.2096 -0.9953
  115MOL   H22527813   6.145   5.561   4.298 -1.3567 -0.0689  1.3233
  115MOL   H22627814   6.161   5.729   4.481  0.5733  0.5619  2.4775
  115MOL   H22727815   6.458   5.600   4.765  2.6705  0.7502 -0.7418
  115MOL   H22827816   6.354   5.690   4.884  0.1962 -1.6105  0.1519
  115MOL   H22927817   6.470   5.779   4.776 -1.0555  0.9434  2.6382
  115MOL   C23027818   6.330   5.780   4.359  0.0738 -0.0824  0.5435
  115MOL   C23127819   6.356   5.911   4.435  0.3134 -0.1121  0.2658
  115MOL   O23227820   6.429   5.995   4.349  0.4784 -0.5089 -0.1013
  115MOL   C23327821   6.449   6.117   4.378  0.4745 -0.2442 -0.1762
  115MOL   C23427822   6.508   6.210   4.271  0.0964 -0.1550  0.7359
  115MOL   O23527823   6.404   6.167   4.486 -0.3844 -0.3972 -0.1602
  115MOL   H23627824   6.423   5.737   4.321  0.0512  0.2520  0.1052
  115MOL   H23727825   6.275   5.801   4.267 -0.3583 -0.1281  0.7904
  115MOL   H23827826   6.400   5.877   4.529  0.7899 -0.2492 -0.0048
  115MOL   H23927827   6.550   6.291   4.332  1.9590  1.2449 -2.2962
  115MOL   H24027828   6.431   6.240   4.200 -1.0273  0.5460  2.2192
  115MOL   H24127829   6.592   6.160   4.223  0.4959 -0.2097  1.4770
  115MOL   H24227830   6.258   5.956   4.449 -0.0223 -1.4273  2.3877
  116MOL     C127831   6.056   6.397   3.268  0.1022  0.2763  0.1185
  116MOL     C227832   6.001   6.438   3.410 -0.4178  0.0066 -0.3750
  116MOL     O327833   6.077   6.559   3.450  0.2194  0.1399 -0.1979
  116MOL     C427834   6.054   6.603   3.578 -0.1210  0.0996  0.4582
  116MOL     C527835   6.106   6.736   3.617  0.5303  0.1230 -0.2625
  116MOL     O627836   5.990   6.545   3.663  0.2829 -0.2632 -0.5063
  116MOL     H727837   6.165   6.395   3.268  0.1606  2.0271  2.1612
  116MOL     H827838   6.025   6.476   3.200  1.1400  1.1845  0.6899
  116MOL     H927839   6.013   6.368   3.492 -2.6657  3.2273  2.8393
  116MOL    H1027840   6.106   6.766   3.722  1.7993 -0.6548 -0.0321
  116MOL    H1127841   6.048   6.817   3.573 -1.0639  0.0845  1.6940
  116MOL    H1227842   6.206   6.745   3.573  1.6274 -2.7469  1.4938
  116MOL    H1327843   6.015   6.301   3.236  2.8253 -0.6481 -0.7702
  116MOL    C1427844   5.855   6.471   3.398  0.2249  0.5458  0.9239
  116MOL    C1527845   5.756   6.359   3.351  1.0186 -0.7194 -0.1872
  116MOL    O1627846   5.746   6.259   3.461 -0.2814 -0.2445  0.1682
  116MOL    C1727847   5.799   6.139   3.438  0.0114 -0.3759  0.7119
  116MOL    C1827848   5.785   6.048   3.558  0.1968 -0.7256 -0.4370
  116MOL    O1927849   5.836   6.095   3.331  0.1885 -0.6393 -0.0809
  116MOL    H2027850   5.824   6.520   3.490 -0.6873  1.9852 -0.1242
  116MOL    H2127851   5.849   6.558   3.334  0.5483 -1.5789 -2.1285
  116MOL    H2227852   5.787   6.312   3.258 -0.0910  1.7968 -1.8817
  116MOL    H2327853   5.680   6.020   3.547 -0.1366  0.4028 -0.1911
  116MOL    H2427854   5.793   6.111   3.647  2.7705 -0.9777 -0.4525
  116MOL    H2527855   5.849   5.961   3.566  1.5605  0.3285  0.3339
  116MOL    C2627856   5.617   6.412   3.331 -0.2336  0.2264  0.2347
  116MOL    C2727857   5.521   6.331   3.249 -0.4751  0.3274  0.2073
  116MOL    O2827858   5.390   6.364   3.294  0.1136  0.5392 -0.3782
  116MOL    C2927859   5.333   6.270   3.381  0.8311 -0.1220 -0.4534
  116MOL    C3027860   5.195   6.314   3.414  0.0080 -0.3602  0.0082
  116MOL    O3127861   5.382   6.168   3.426 -0.0356 -0.4875 -0.4926
  116MOL    H3227862   5.580   6.417   3.434 -1.3315  0.1279 -0.1418
  116MOL    H3327863   5.629   6.512   3.288 -1.8884  0.9424  1.3287
  116MOL    H3427864   5.547   6.225   3.257 -1.0718  0.0092 -1.7179
  116MOL    H3527865   5.169   6.408   3.364  1.4649  0.2438  0.3645
  116MOL    H3627866   5.188   6.320   3.522  0.7573 -1.8757  0.1427
  116MOL    H3727867   5.120   6.241   3.387 -1.0308  1.1476 -1.3344
  116MOL    C3827868   5.521   6.351   3.094  0.2518 -0.4317 -0.3242
  116MOL    C3927869   5.509   6.230   3.012 -0.4093 -0.0933  0.3423
  116MOL    O4027870   5.373   6.203   2.966 -0.1169 -0.1852 -0.1233
  116MOL    C4127871   5.311   6.091   3.006  0.1096 -0.3410 -0.6337
  116MOL    C4227872   5.184   6.084   2.930 -0.3244  0.3956 -0.2948
  116MOL    O4327873   5.341   6.024   3.105 -0.5303  0.5020  0.0911
  116MOL    H4427874   5.451   6.431   3.069  1.8978  1.5395  1.1708
  116MOL    H4527875   5.607   6.411   3.063  0.3106 -0.6335 -0.5569
  116MOL    H4627876   5.555   6.149   3.069 -1.1210 -0.4976  0.3489
  116MOL    H4727877   5.113   6.022   2.986 -2.4024  3.1390  0.2180
  116MOL    H4827878   5.188   6.031   2.835 -0.7771  1.3998 -0.8869
  116MOL    H4927879   5.133   6.180   2.927  0.2079  0.8139  2.4044
  116MOL    C5027880   5.584   6.241   2.876 -0.1591  0.0948  0.3026
  116MOL    C5127881   5.735   6.216   2.893  0.4180 -0.5352  0.2876
  116MOL    O5227882   5.749   6.078   2.940  0.3069 -0.2007 -0.0853
  116MOL    C5327883   5.860   6.044   3.003  0.4954  0.1055 -0.0085
  116MOL    C5427884   5.861   5.900   3.058  0.0365  0.1548  0.1812
  116MOL    O5527885   5.960   6.109   3.022  0.1605  0.0297 -0.1280
  116MOL    H5627886   5.546   6.175   2.798 -1.3661  1.4966 -0.2945
  116MOL    H5727887   5.568   6.340   2.835  1.0739  0.3193  0.3349
  116MOL    H5827888   5.776   6.286   2.966  3.2570 -0.9908 -0.8052
  116MOL    H5927889   5.837   5.833   2.976 -0.9748  0.1161  0.5053
  116MOL    H6027890   5.781   5.889   3.131  1.8516 -1.7273  1.9706
  116MOL    H6127891   5.958   5.874   3.101 -0.7880 -2.0586  0.7353
  116MOL    C6227892   5.810   6.224   2.763 -0.3878 -0.8503  0.1207
  116MOL    C6327893   5.826   6.365   2.700 -0.0659 -0.0647  0.1690
  116MOL    O6427894   5.940   6.426   2.760 -0.6122  0.3196 -0.4675
  116MOL    C6527895   5.929   6.501   2.871 -0.6229  0.4978 -0.3928
  116MOL    C6627896   6.057   6.570   2.913 -0.2318 -0.9912 -0.1293
  116MOL    O6727897   5.827   6.512   2.939  0.3934  0.1372 -0.2928
  116MOL    H6827898   5.910   6.183   2.776 -0.3014 -0.1724  1.7191
  116MOL    H6927899   5.752   6.177   2.683 -1.1993  2.1088 -1.0912
  116MOL    H7027900   5.736   6.425   2.713  0.3182  0.5696 -0.1003
  116MOL    H7127901   6.126   6.488   2.932 -0.4583 -1.4959 -1.4131
  116MOL    H7227902   6.041   6.622   3.008 -0.1718 -2.2353  0.5662
  116MOL    H7327903   6.090   6.632   2.830 -0.2761 -1.1615 -0.2741
  116MOL    C7427904   5.852   6.371   2.542 -0.4023 -0.7461 -0.9175
  116MOL    C7527905   5.793   6.497   2.474  0.0390 -0.0169  0.0130
  116MOL    O7627906   5.892   6.597   2.507 -0.0649  0.0412 -0.5470
  116MOL    C7727907   5.849   6.702   2.564  0.1271 -0.0227 -0.3387
  116MOL    C7827908   5.965   6.793   2.600  0.5547  0.0300  0.0787
  116MOL    O7927909   5.737   6.731   2.606 -0.1694  0.0577  0.0634
  116MOL    H8027910   5.959   6.369   2.521 -0.3827 -0.6328 -0.8205
  116MOL    H8127911   5.803   6.290   2.488  0.3972 -1.6327 -0.3380
  116MOL    H8227912   5.696   6.515   2.520  0.8448 -0.1832  1.8322
  116MOL    H8327913   5.979   6.774   2.707 -0.2270 -2.8616 -0.2735
  116MOL    H8427914   5.948   6.900   2.589  0.3694  0.2477  2.2046
  116MOL    H8527915   6.060   6.765   2.553 -0.7988 -0.7519 -2.2445
  116MOL    C8627916   5.772   6.490   2.322  0.4076 -0.0488  0.6214
  116MOL    C8727917   5.702   6.619   2.262  0.4985 -0.5520  0.3808
  116MOL    O8827918   5.672   6.580   2.134 -0.4433  0.0945  0.2648
  116MOL    C8927919   5.716   6.624   2.016 -0.6326 -0.5134  0.2010
  116MOL    C9027920   5.672   6.548   1.891  0.7857  0.1501  0.7563
  116MOL    O9127921   5.792   6.721   2.004  0.1789 -0.3119  0.0604
  116MOL    H9227922   5.871   6.468   2.281  0.3003  0.6638 -0.0379
  116MOL    H9327923   5.709   6.403   2.302 -2.6199  1.9848  0.9352
  116MOL    H9427924   5.759   6.712   2.264 -2.1707  1.1233  0.4844
  116MOL    H9527925   5.725   6.453   1.903 -1.1571 -0.6600  3.5431
  116MOL    H9627926   5.687   6.595   1.794 -1.0854 -1.6538 -0.4675
  116MOL    H9727927   5.566   6.523   1.890  1.1645 -1.4963  0.3015
  116MOL    C9827928   5.565   6.666   2.325  0.1522 -0.5937 -0.2707
  116MOL    C9927929   5.525   6.804   2.268 -0.5029  0.0761  0.6341
  116MOL   O10027930   5.439   6.789   2.156  0.3927 -0.5270 -0.2913
  116MOL   C10127931   5.453   6.850   2.039  0.5966  0.5379  0.1628
  116MOL   C10227932   5.333   6.816   1.955 -0.8088  0.9995 -0.3023
  116MOL   O10327933   5.544   6.923   2.001  0.2859 -0.0823 -0.4486
  116MOL   H10427934   5.486   6.603   2.282 -0.2130 -1.8678  2.1926
  116MOL   H10527935   5.556   6.660   2.433  0.1590  1.2462 -0.1658
  116MOL   H10627936   5.616   6.850   2.231 -0.1951 -1.3130 -0.3853
  116MOL   H10727937   5.341   6.710   1.929 -1.9386  0.4735  1.3851
  116MOL   H10827938   5.327   6.879   1.867  4.4964 -0.6230 -2.0288
  116MOL   H10927939   5.242   6.833   2.013 -0.0843  1.6873  0.6535
  116MOL   C11027940   5.461   6.894   2.375  0.6564  0.5805 -0.8913
  116MOL   C11127941   5.577   6.977   2.438  0.1409  0.2498  0.8325
  116MOL   O11227942   5.611   7.090   2.358  0.2038 -0.5065  0.6056
  116MOL   C11327943   5.733   7.096   2.293  0.1629  0.6235  0.1653
  116MOL   C11427944   5.728   7.194   2.175  0.6230 -0.1573 -0.3387
  116MOL   O11527945   5.826   7.022   2.320 -0.2188  0.0775  0.0516
  116MOL   H11627946   5.393   6.968   2.333  0.4911  1.4581  0.8495
  116MOL   H11727947   5.401   6.828   2.438  0.3191 -1.0005 -2.8436
  116MOL   H11827948   5.664   6.915   2.459 -1.4046 -1.7574  1.4250
  116MOL   H11927949   5.624   7.201   2.144  1.1681 -0.0546 -2.2188
  116MOL   H12027950   5.793   7.161   2.094  0.9792  1.5624 -0.7706
  116MOL   H12127951   5.780   7.289   2.191  0.0803  0.1116 -0.1671
  116MOL   C12227952   5.538   7.034   2.575  0.0191 -0.8749 -0.2829
  116MOL   C12327953   5.656   7.074   2.667  0.5912 -0.8866  0.3072
  116MOL   O12427954   5.693   7.199   2.614 -0.0716  0.8748 -0.6457
  116MOL   C12527955   5.822   7.235   2.589 -0.3609 -0.1552 -0.1020
  116MOL   C12627956   5.842   7.372   2.527 -0.3482  0.8308 -0.5107
  116MOL   O12727957   5.920   7.167   2.617 -0.1362 -0.0619  0.0950
  116MOL   H12827958   5.464   7.114   2.567  0.6446 -0.1480  0.9987
  116MOL   H12927959   5.492   6.949   2.626 -1.7831  1.4972  2.1834
  116MOL   H13027960   5.739   7.003   2.658  0.1337 -1.6479  1.9985
  116MOL   H13127961   5.797   7.458   2.577 -0.8075  1.5939 -2.2051
  116MOL   H13227962   5.820   7.372   2.420 -0.3229  1.8930 -0.5268
  116MOL   H13327963   5.950   7.387   2.536 -0.1426 -1.1478  0.4729
  116MOL   C13427964   5.615   7.089   2.818 -0.3783 -0.1833  0.6202
  116MOL   C13527965   5.729   7.143   2.908 -0.1288  0.5800  0.3510
  116MOL   O13627966   5.689   7.206   3.028 -0.0838  0.1364  0.8447
  116MOL   C13727967   5.769   7.274   3.116  0.8283 -0.8005  0.1825
  116MOL   C13827968   5.712   7.306   3.255 -0.4747  1.0447  0.5416
  116MOL   O13927969   5.884   7.308   3.087 -0.7134 -0.3587 -0.3320
  116MOL   H14027970   5.522   7.145   2.829 -1.4600 -1.4503 -1.7665
  116MOL   H14127971   5.592   6.991   2.860  0.5942 -1.5180 -1.8956
  116MOL   H14227972   5.780   7.215   2.844 -0.3082 -0.4073 -0.9306
  116MOL   H14327973   5.788   7.350   3.320  1.2605 -0.7431 -0.2247
  116MOL   H14427974   5.678   7.217   3.307  2.7119 -0.7773 -0.3563
  116MOL   H14527975   5.637   7.383   3.237 -1.6924  0.1507  1.7435
  116MOL   C14627976   5.838   7.032   2.933  0.0579  0.5387  0.3803
  116MOL   C14727977   5.797   6.908   3.019  0.0778 -0.1008  0.4435
  116MOL   O14827978   5.712   6.814   2.950 -0.8974 -0.2289 -0.3601
  116MOL   C14927979   5.617   6.749   3.017  0.0262  0.1478  0.3889
  116MOL   C15027980   5.512   6.698   2.917 -0.1592 -0.2403  0.5376
  116MOL   O15127981   5.595   6.738   3.136  0.2447 -0.0287 -0.3507
  116MOL   H15227982   5.885   6.987   2.845 -1.0869 -1.0762  0.5613
  116MOL   H15327983   5.914   7.094   2.980  1.1914  0.4347 -1.2724
  116MOL   H15427984   5.754   6.944   3.113 -0.5437  0.8437 -0.1932
  116MOL   H15527985   5.436   6.642   2.972  2.1029 -1.9765  2.0460
  116MOL   H15627986   5.553   6.647   2.830  2.8740  1.9310  0.6318
  116MOL   H15727987   5.471   6.782   2.862  0.2105 -0.3348  0.1177
  116MOL   C15827988   5.920   6.834   3.069  0.7412  0.0514 -0.1720
  116MOL   C15927989   5.988   6.889   3.196  0.0058  0.4206 -0.3480
  116MOL   O16027990   5.887   6.861   3.296 -0.1560 -0.4496 -0.0720
  116MOL   C16127991   5.877   6.944   3.405 -0.3132 -0.0655 -0.5527
  116MOL   C16227992   5.775   6.890   3.502 -0.1136 -0.2613  0.3070
  116MOL   O16327993   5.935   7.049   3.419 -0.5055 -0.4475  0.2352
  116MOL   H16427994   5.878   6.736   3.091  1.1255  0.2040  1.2976
  116MOL   H16527995   5.988   6.840   2.983  1.0122 -0.0094  0.0365
  116MOL   H16627996   6.012   6.995   3.182  1.3567 -0.1060 -2.4092
  116MOL   H16727997   5.712   6.975   3.529  1.0577  0.3988  1.0198
  116MOL   H16827998   5.826   6.860   3.594 -1.8136  0.3108  1.4792
  116MOL   H16927999   5.719   6.804   3.465  2.0927 -1.1907 -0.9104
  116MOL   C17028000   6.122   6.808   3.237 -0.1170 -0.8407  0.2310
  116MOL   C17128001   6.261   6.874   3.197  0.0269 -0.5534 -0.2174
  116MOL   O17228002   6.301   6.844   3.063  0.1443  0.2615  0.4012
  116MOL   C17328003   6.349   6.729   3.033 -0.1826 -0.0420  0.0847
  116MOL   C17428004   6.378   6.706   2.886  0.4969 -0.4314 -0.3394
  116MOL   O17528005   6.356   6.631   3.107  0.1520 -0.5112 -0.6214
  116MOL   H17628006   6.123   6.811   3.346  2.0712 -0.3726  0.2376
  116MOL   H17728007   6.116   6.704   3.204 -0.6102 -0.6000 -0.4522
  116MOL   H17828008   6.332   6.816   3.257  0.8338  0.5621 -0.0833
  116MOL   H17928009   6.470   6.649   2.875  0.0413 -1.9116  2.8669
  116MOL   H18028010   6.377   6.795   2.823 -2.1051 -0.3366 -0.2445
  116MOL   H18128011   6.291   6.647   2.857  1.1973 -1.3191 -0.6294
  116MOL   C18228012   6.275   7.023   3.231 -0.4095 -0.8824 -0.1909
  116MOL   C18328013   6.413   7.078   3.197  0.0465 -0.5775  0.3335
  116MOL   O18428014   6.399   7.225   3.199  0.2348 -0.3315  0.0042
  116MOL   C18528015   6.421   7.307   3.083 -0.0247  0.4788 -0.6967
  116MOL   C18628016   6.400   7.451   3.101 -0.0341 -0.0401  0.1243
  116MOL   O18728017   6.475   7.268   2.982  0.6028  0.6834  0.2322
  116MOL   H18828018   6.201   7.080   3.175 -0.5646 -0.0730  0.8347
  116MOL   H18928019   6.250   7.046   3.335 -1.5824 -1.1560 -0.4103
  116MOL   H19028020   6.429   7.043   3.095  0.3310 -2.1396  0.9000
  116MOL   H19128021   6.388   7.494   3.001  0.0050 -0.1693  0.0644
  116MOL   H19228022   6.474   7.506   3.159  0.7335 -0.9683  0.0345
  116MOL   H19328023   6.306   7.457   3.156 -1.0794 -1.8452 -1.4032
  116MOL   C19428024   6.527   7.027   3.295 -0.5033  0.1011  0.2943
  116MOL   C19528025   6.661   7.070   3.240  0.5593  0.8581 -1.1277
  116MOL   O19628026   6.755   7.033   3.341  0.8828 -0.7601 -0.0021
  116MOL   C19728027   6.789   7.107   3.448 -0.1287  0.2717 -1.2248
  116MOL   C19828028   6.921   7.061   3.503  0.3260 -1.2060 -0.2826
  116MOL   O19928029   6.738   7.212   3.485 -0.5098  0.0886  0.6116
  116MOL   H20028030   6.510   7.045   3.402  2.8369  0.3179  0.8236
  116MOL   H20128031   6.513   6.919   3.301 -0.0049 -0.2227 -3.6424
  116MOL   H20228032   6.659   7.177   3.223 -1.9320  1.3138  1.5228
  116MOL   H20328033   6.902   7.015   3.601 -0.1343 -0.1718  0.1198
  116MOL   H20428034   6.973   7.155   3.522  0.8232 -1.4543 -0.4204
  116MOL   H20528035   6.968   6.991   3.435  2.1622  1.2000 -1.5454
  116MOL   C20628036   6.715   6.994   3.115  0.4355  0.3673 -0.3356
  116MOL   C20728037   6.797   7.091   3.027  0.2898  0.7600 -0.1874
  116MOL   O20828038   6.926   7.112   3.091  0.3314 -0.1863  0.1332
  116MOL   C20928039   6.958   7.232   3.146 -0.2576  0.3093 -0.2766
  116MOL   C21028040   7.100   7.229   3.199 -0.7344  0.2623  0.1704
  116MOL   O21128041   6.899   7.337   3.160  0.6130  0.7330 -0.7670
  116MOL   H21228042   6.760   6.898   3.140 -0.1570  0.7892  2.4625
  116MOL   H21328043   6.626   6.967   3.058  0.5250 -0.4800 -0.0874
  116MOL   H21428044   6.741   7.185   3.024  0.7139  1.0970  1.7407
  116MOL   H21528045   7.110   7.236   3.307 -3.0152  2.8029  0.2945
  116MOL   H21628046   7.158   7.315   3.164  0.4090  1.1069  3.9523
  116MOL   H21728047   7.160   7.145   3.165 -1.4272  0.0224 -0.4706
  116MOL   C21828048   6.805   7.047   2.879  0.1980 -0.5459 -0.0927
  116MOL   C21928049   6.886   6.912   2.863  1.0003  0.0991  0.2975
  116MOL   O22028050   6.805   6.807   2.802  0.0506 -0.5141 -0.5895
  116MOL   C22128051   6.741   6.713   2.870  0.8795 -0.0831  1.0045
  116MOL   C22228052   6.705   6.602   2.772  0.8189 -0.0163 -0.8033
  116MOL   O22328053   6.719   6.710   2.991  0.0928  0.1786 -0.2626
  116MOL   H22428054   6.707   7.039   2.832  0.3869 -0.6572 -0.4717
  116MOL   H22528055   6.851   7.136   2.837  1.8270 -1.0339  0.6186
  116MOL   H22628056   6.931   6.878   2.956 -1.9581  0.2009  1.8295
  116MOL   H22728057   6.785   6.550   2.719 -1.1495 -4.3234  0.1807
  116MOL   H22828058   6.625   6.646   2.712 -0.1385 -0.6625 -0.0174
  116MOL   H22928059   6.651   6.531   2.834 -0.1023  0.9463 -0.4828
  116MOL   C23028060   7.005   6.937   2.775 -0.6515  0.2287 -0.0104
  116MOL   C23128061   7.115   7.025   2.846 -0.0115 -0.1086 -0.8086
  116MOL   O23228062   7.230   7.045   2.775 -0.4681  0.0037 -0.2780
  116MOL   C23328063   7.335   7.118   2.830 -0.1451 -0.2650 -0.0100
  116MOL   C23428064   7.452   7.138   2.736  0.0920  0.4840  0.0498
  116MOL   O23528065   7.334   7.164   2.940 -0.0613  0.1675  0.2627
  116MOL   H23628066   7.049   6.838   2.763  1.7596  1.1222  1.1881
  116MOL   H23728067   6.980   6.977   2.676  0.1835 -1.5563 -0.9559
  116MOL   H23828068   7.140   6.977   2.941  2.3516  2.0339 -0.2771
  116MOL   H23928069   7.429   7.154   2.630  0.4867 -2.4257 -0.5241
  116MOL   H24028070   7.512   7.048   2.744  1.8158  1.6603  0.7344
  116MOL   H24128071   7.519   7.220   2.762 -0.5032  0.3090  2.1865
  116MOL   H24228072   7.084   7.125   2.875  0.0424 -0.3003 -0.0794
  117MOL     C128073   1.125   3.185   7.877 -0.2530 -0.0147 -0.3167
  117MOL     C228074   1.213   3.071   7.827  0.5042  0.3370 -0.2368
  117MOL     O328075   1.248   3.005   7.948  0.1581  0.6899  0.0842
  117MOL     C428076   1.371   3.023   8.009 -0.4087  0.1523  0.2482
  117MOL     C528077   1.386   2.948   0.116 -0.6253  0.0126  0.1183
  117MOL     O628078   1.456   3.103   7.967  0.5878  0.6323  0.0271
  117MOL     H728079   1.180   3.262   7.932 -0.9682 -0.2291  0.7107
  117MOL     H828080   1.034   3.152   7.927 -0.3736  0.0550 -0.4883
  117MOL     H928081   1.299   3.113   7.776 -0.2873  0.0480 -1.8466
  117MOL    H1028082   1.304   2.981   0.180 -0.0426  2.1374 -0.1998
  117MOL    H1128083   1.478   2.986   0.161  0.1362  0.5454 -1.8679
  117MOL    H1228084   1.386   2.843   0.090 -3.7104 -0.4089  1.5941
  117MOL    H1328085   1.101   3.226   7.778  0.4288 -2.8762 -1.7131
  117MOL    C1428086   1.137   2.973   7.733  0.3998  0.1482  0.5861
  117MOL    C1528087   1.236   2.885   7.639 -0.0376  0.2524 -0.2570
  117MOL    O1628088   1.254   2.772   7.726 -0.0497  0.2034  0.2571
  117MOL    C1728089   1.379   2.732   7.758 -0.7922 -0.2400  0.3982
  117MOL    C1828090   1.385   2.600   7.839 -0.6098  0.0789 -0.1838
  117MOL    O1928091   1.484   2.789   7.729  0.5434 -0.0973 -0.4804
  117MOL    H2028092   1.063   2.912   7.784 -1.8223 -0.0731 -2.7612
  117MOL    H2128093   1.069   3.033   7.672 -0.0566 -1.3829 -0.4280
  117MOL    H2228094   1.325   2.947   7.629 -1.7928  2.8264 -0.4682
  117MOL    H2328095   1.407   2.627   7.942 -2.4867  0.5628  0.1249
  117MOL    H2428096   1.446   2.519   7.799 -1.1185 -0.6584  0.5125
  117MOL    H2528097   1.289   2.548   7.838 -0.9105  0.6110  0.6196
  117MOL    C2628098   1.174   2.829   7.510 -0.6140  0.0809  1.3887
  117MOL    C2728099   1.182   2.929   7.386 -0.4275  0.3266  0.0955
  117MOL    O2828100   1.204   3.062   7.429  0.1982  0.4062 -0.5523
  117MOL    C2928101   1.119   3.160   7.391  0.2483  0.0093 -0.7695
  117MOL    C3028102   1.127   3.275   7.485 -0.4589  0.8482 -0.5407
  117MOL    O3128103   1.031   3.158   7.312  0.0325  0.3042 -0.2693
  117MOL    H3228104   1.228   2.741   7.473 -1.1809  0.4360 -0.3512
  117MOL    H3328105   1.071   2.800   7.529  0.0279 -2.0145  1.8015
  117MOL    H3428106   1.086   2.934   7.335 -1.3655  0.3552  1.8047
  117MOL    H3528107   1.229   3.313   7.477  0.2405 -0.6522  0.7759
  117MOL    H3628108   1.113   3.239   7.587 -3.2261  2.5495 -0.2925
  117MOL    H3728109   1.052   3.350   7.465 -0.2906  1.9747  2.7495
  117MOL    C3828110   1.290   2.887   7.284  0.1187 -0.1311  0.0663
  117MOL    C3928111   1.277   2.953   7.145 -0.5152  0.6303  0.0481
  117MOL    O4028112   1.381   2.895   7.062  0.5484 -0.0809 -0.6524
  117MOL    C4128113   1.477   2.975   7.012 -0.1854  0.9949 -0.4019
  117MOL    C4228114   1.552   2.918   6.893 -0.0661  0.4048  0.4079
  117MOL    O4328115   1.503   3.091   7.055 -0.2508  0.2126  0.4672
  117MOL    H4428116   1.376   2.941   7.323 -1.2651  0.4497  2.3760
  117MOL    H4528117   1.299   2.779   7.284 -0.6390 -0.2000  0.8268
  117MOL    H4628118   1.295   3.059   7.164  1.0528 -0.0595  2.5627
  117MOL    H4728119   1.660   2.935   6.899  0.1912 -0.6840 -0.7968
  117MOL    H4828120   1.512   2.969   6.805  0.0461  0.0563  0.1564
  117MOL    H4928121   1.535   2.812   6.881 -0.2116  0.3443  1.1379
  117MOL    C5028122   1.138   2.930   7.082 -1.4320 -0.2607 -0.6241
  117MOL    C5128123   1.126   2.961   6.933 -0.0204 -0.0678  0.0895
  117MOL    O5228124   1.009   2.904   6.877  0.0395 -0.1779  0.0346
  117MOL    C5328125   1.012   2.780   6.825  0.0577 -0.1243  0.1218
  117MOL    C5428126   0.873   2.726   6.795  0.2095 -0.2902 -0.0713
  117MOL    O5528127   1.108   2.708   6.811 -0.2033 -0.2247  0.2752
  117MOL    H5628128   1.115   2.823   7.086  0.3080 -0.8715 -4.8317
  117MOL    H5728129   1.062   2.978   7.143  0.1601 -0.9990  2.0478
  117MOL    H5828130   1.211   2.910   6.887 -0.3479 -2.3648  1.9406
  117MOL    H5928131   0.795   2.797   6.823 -0.1616 -0.9950  0.7218
  117MOL    H6028132   0.846   2.642   6.859  1.2771  0.3633  1.2664
  117MOL    H6128133   0.856   2.712   6.688  1.2912  2.3161 -0.6289
  117MOL    C6228134   1.125   3.112   6.902  0.7235  0.0999 -0.6670
  117MOL    C6328135   1.113   3.149   6.755 -0.7594  0.1641 -0.6003
  117MOL    O6428136   1.096   3.290   6.730  0.0169 -0.2174  0.0554
  117MOL    C6528137   0.995   3.337   6.654  0.2445 -0.1539  0.0537
  117MOL    C6628138   0.982   3.486   6.644  0.0657 -0.4249  0.2812
  117MOL    O6728139   0.939   3.271   6.567 -0.8930 -0.2041 -0.0101
  117MOL    H6828140   1.036   3.148   6.954  0.7624 -1.9859  0.8929
  117MOL    H6928141   1.210   3.162   6.948  0.4397  0.8306 -0.9141
  117MOL    H7028142   1.029   3.087   6.725 -0.7430 -0.1817  0.0595
  117MOL    H7128143   0.878   3.504   6.616 -0.0699  0.1168  1.1094
  117MOL    H7228144   1.050   3.526   6.568 -1.3902 -2.1456 -2.0049
  117MOL    H7328145   1.014   3.540   6.733  0.0544  2.3248 -1.2864
  117MOL    C7428146   1.242   3.119   6.674  0.2154 -0.1830 -0.0201
  117MOL    C7528147   1.229   3.126   6.520 -0.1897  0.2234  0.2297
  117MOL    O7628148   1.356   3.148   6.459 -0.2798 -0.9064  0.4382
  117MOL    C7728149   1.382   3.268   6.402 -0.4606  0.1656  0.2986
  117MOL    C7828150   1.523   3.276   6.359  0.0291 -0.5173  0.3246
  117MOL    O7928151   1.297   3.351   6.368  0.1426 -0.4979  0.2908
  117MOL    H8028152   1.325   3.185   6.699 -0.5413  0.9003 -0.3277
  117MOL    H8128153   1.284   3.025   6.709 -3.0298 -1.3389  0.9881
  117MOL    H8228154   1.162   3.205   6.484 -1.2587 -1.1284 -0.7970
  117MOL    H8328155   1.563   3.174   6.359  0.0568 -0.5214 -1.8777
  117MOL    H8428156   1.587   3.346   6.412  0.3676 -0.2747 -0.4029
  117MOL    H8528157   1.518   3.299   6.253 -3.6592 -0.3296  0.4941
  117MOL    C8628158   1.189   2.988   6.474 -1.3114 -0.1521 -0.7024
  117MOL    C8728159   1.152   2.991   6.324  0.0642 -0.0429  0.5977
  117MOL    O8828160   1.143   2.860   6.286  0.3339  0.1807  0.3064
  117MOL    C8928161   1.228   2.810   6.191 -0.7018  0.2665  0.0612
  117MOL    C9028162   1.179   2.676   6.139 -0.0642  0.9085 -0.7640
  117MOL    O9128163   1.332   2.864   6.145 -0.0269  0.3850 -0.3471
  117MOL    H9228164   1.281   2.929   6.481  0.4865  2.4906 -1.1755
  117MOL    H9328165   1.106   2.952   6.534 -2.2469  2.9513 -0.0154
  117MOL    H9428166   1.229   3.045   6.270 -1.1732  1.5678  0.3936
  117MOL    H9528167   1.259   2.634   6.078 -0.4867 -1.1087  0.0275
  117MOL    H9628168   1.088   2.705   6.086 -0.6356 -2.5650 -1.8806
  117MOL    H9728169   1.141   2.611   6.218  1.0316  1.6570  0.4010
  117MOL    C9828170   1.024   3.077   6.284 -0.0685  0.0066  0.0822
  117MOL    C9928171   1.054   3.153   6.148  0.1562  0.0894 -0.3500
  117MOL   O10028172   1.028   3.054   6.051 -0.4364 -0.6245 -0.3030
  117MOL   C10128173   1.089   3.049   5.927  0.2587 -0.4647  0.0218
  117MOL   C10228174   1.075   2.920   5.854 -0.6080  0.3624  0.8517
  117MOL   O10328175   1.147   3.144   5.880 -0.4425 -0.8368 -0.2466
  117MOL   H10428176   0.932   3.020   6.287 -2.5339  3.7095 -1.9246
  117MOL   H10528177   1.003   3.147   6.365  1.5130 -1.8454  2.1372
  117MOL   H10628178   1.158   3.184   6.152 -0.2968  1.4169  1.9336
  117MOL   H10728179   1.168   2.884   5.811  0.6426  1.0483  2.9212
  117MOL   H10828180   1.001   2.917   5.774 -0.1023 -1.7027  0.4408
  117MOL   H10928181   1.050   2.849   5.932  0.0472 -1.4886 -0.5981
  117MOL   C11028182   0.955   3.274   6.144 -0.2707  0.0805 -0.9321
  117MOL   C11128183   1.000   3.390   6.055  0.2896 -0.2476  0.3500
  117MOL   O11228184   0.883   3.476   6.037  0.4395 -0.6955  0.4666
  117MOL   C11328185   0.770   3.443   5.980 -0.5846 -0.2881  0.3006
  117MOL   C11428186   0.695   3.575   5.950 -0.1513  0.6242 -0.3600
  117MOL   O11528187   0.723   3.334   5.960  0.7146 -0.0028 -0.0673
  117MOL   H11628188   0.866   3.222   6.109 -0.5254 -1.4930  1.8275
  117MOL   H11728189   0.918   3.310   6.240  0.5244  0.5181 -0.7893
  117MOL   H11828190   1.023   3.347   5.958  1.0345  0.2825  0.2871
  117MOL   H11928191   0.596   3.542   5.920 -1.0705  3.3958 -0.5187
  117MOL   H12028192   0.739   3.620   5.861 -0.4717 -0.8031 -1.2491
  117MOL   H12128193   0.688   3.645   6.034 -0.8421  0.2106 -0.0735
  117MOL   C12228194   1.124   3.462   6.102 -0.1527 -0.4023 -0.2841
  117MOL   C12328195   1.189   3.544   5.989  0.0506  0.1254 -0.3736
  117MOL   O12428196   1.103   3.651   5.940  0.1711 -0.7408  0.3025
  117MOL   C12528197   1.048   3.654   5.821 -1.1923 -0.4174 -0.8157
  117MOL   C12628198   0.966   3.783   5.798 -0.1279  0.2198 -0.0498
  117MOL   O12728199   1.078   3.579   5.732 -0.2075  0.1242  0.5159
  117MOL   H12828200   1.107   3.528   6.187  2.1898  1.1059 -0.9357
  117MOL   H12928201   1.201   3.397   6.143 -0.8562  0.1215  1.9224
  117MOL   H13028202   1.210   3.477   5.906  1.1306 -0.0221  0.0153
  117MOL   H13128203   0.875   3.755   5.746 -0.0682 -2.2204  1.0705
  117MOL   H13228204   1.026   3.857   5.745  2.0529 -2.1051 -0.9773
  117MOL   H13328205   0.925   3.828   5.888  2.4494 -0.4849  1.5416
  117MOL   C13428206   1.326   3.599   6.040 -0.3043 -0.4084 -0.2539
  117MOL   C13528207   1.432   3.496   6.072  0.5599 -0.2366  0.4262
  117MOL   O13628208   1.442   3.408   5.960 -0.6366 -0.0210 -0.4153
  117MOL   C13728209   1.442   3.272   5.974  0.0188 -0.2958  0.1997
  117MOL   C13828210   1.480   3.210   5.840  0.6680 -0.3411  0.2895
  117MOL   O13928211   1.408   3.204   6.072 -0.0016  0.2873  0.1158
  117MOL   H14028212   1.366   3.667   5.965  3.4075 -0.0022  1.9689
  117MOL   H14128213   1.294   3.638   6.136 -1.9260 -0.7694 -0.6344
  117MOL   H14228214   1.391   3.440   6.156  0.2791 -0.8029 -0.0857
  117MOL   H14328215   1.404   3.139   5.808 -0.3777 -0.0709  2.0905
  117MOL   H14428216   1.581   3.169   5.834  0.9258 -0.3001  3.2629
  117MOL   H14528217   1.476   3.289   5.766  1.3771  1.0295  1.6695
  117MOL   C14628218   1.566   3.546   6.121  0.1256  0.3741  0.0500
  117MOL   C14728219   1.564   3.671   6.223  0.8786 -0.1599  0.6934
  117MOL   O14828220   1.490   3.641   6.343 -0.1222 -0.4850  0.0752
  117MOL   C14928221   1.382   3.716   6.384  0.4280 -0.2827 -0.3783
  117MOL   C15028222   1.320   3.669   6.510 -0.3446  0.6964 -0.2914
  117MOL   O15128223   1.338   3.814   6.327  0.2934 -0.5466  0.3948
  117MOL   H15228224   1.628   3.460   6.143  0.8774  1.2610  1.4508
  117MOL   H15328225   1.602   3.590   6.027 -2.1483  1.4852 -0.3359
  117MOL   H15428226   1.517   3.758   6.178  1.3368 -0.3646 -0.2077
  117MOL   H15528227   1.371   3.725   6.589  1.3816  1.4964 -1.9328
  117MOL   H15628228   1.349   3.565   6.518 -0.8126  0.6764  1.4345
  117MOL   H15728229   1.211   3.670   6.515 -0.4153  2.5992 -1.5070
  117MOL   C15828230   1.704   3.713   6.254 -1.0643  0.3021  0.1350
  117MOL   C15928231   1.721   3.835   6.350  0.5946 -0.1898 -0.4427
  117MOL   O16028232   1.864   3.834   6.393  0.0233 -0.1389  0.1114
  117MOL   C16128233   1.902   3.783   6.510  0.3152 -0.6641 -0.1517
  117MOL   C16228234   2.051   3.803   6.556 -0.0420 -0.1335  0.3538
  117MOL   O16328235   1.819   3.726   6.585  0.1795  0.2466 -0.4218
  117MOL   H16428236   1.747   3.630   6.311  0.3557  1.2478  0.4714
  117MOL   H16528237   1.768   3.729   6.167  0.1069  0.5579  1.0278
  117MOL   H16628238   1.656   3.811   6.434  1.0390  0.1363 -0.0017
  117MOL   H16728239   2.096   3.892   6.511  1.7350 -1.4299 -0.5193
  117MOL   H16828240   2.106   3.717   6.518 -1.7341 -0.6556 -0.9428
  117MOL   H16928241   2.059   3.805   6.665  3.5601  0.7968  0.1541
  117MOL   C17028242   1.679   3.978   6.299  0.4572 -0.2530  0.8080
  117MOL   C17128243   1.706   4.079   6.412 -0.3512 -1.1396  0.0911
  117MOL   O17228244   1.693   4.208   6.356 -0.3360 -0.4328 -0.3068
  117MOL   C17328245   1.794   4.276   6.296 -0.5663 -0.5485  0.0979
  117MOL   C17428246   1.753   4.423   6.283  0.7488  0.1194  0.1917
  117MOL   O17528247   1.911   4.240   6.281 -0.3635  0.0626  0.0134
  117MOL   H17628248   1.740   4.001   6.212 -0.2185  1.5560  0.7948
  117MOL   H17728249   1.573   3.977   6.271 -0.2501  0.8570  3.2934
  117MOL   H17828250   1.808   4.058   6.447  0.9637  4.1538 -0.1974
  117MOL   H17928251   1.843   4.482   6.263 -0.4950  1.6565 -0.8978
  117MOL   H18028252   1.716   4.455   6.379 -2.9890  0.3448 -1.2644
  117MOL   H18128253   1.677   4.444   6.208  0.9550 -0.2092 -0.1148
  117MOL   C18228254   1.607   4.079   6.530 -0.7776 -0.6335  0.1726
  117MOL   C18328255   1.660   4.139   6.661 -0.3322 -0.2635  0.0748
  117MOL   O18428256   1.733   4.263   6.642  0.0013  0.2887 -0.1343
  117MOL   C18528257   1.865   4.267   6.663 -0.2472 -0.1544 -0.2534
  117MOL   C18628258   1.927   4.405   6.647 -0.3202 -0.0789  0.6799
  117MOL   O18728259   1.945   4.173   6.680 -0.3685 -0.6686  0.4514
  117MOL   H18828260   1.515   4.119   6.488 -1.1360 -0.5961  0.9941
  117MOL   H18928261   1.582   3.975   6.549  0.3866 -1.1049 -0.7837
  117MOL   H19028262   1.727   4.073   6.717 -0.6212 -0.5162  0.1212
  117MOL   H19128263   1.902   4.444   6.549 -1.2437 -1.0831  0.5117
  117MOL   H19228264   2.033   4.399   6.669 -0.5356 -1.1051  1.4821
  117MOL   H19328265   1.877   4.468   6.721 -1.7061  0.0274 -0.3263
  117MOL   C19428266   1.535   4.179   6.748 -0.6140  0.2671  0.0706
  117MOL   C19528267   1.477   4.314   6.707  0.2054  0.0579 -0.2428
  117MOL   O19628268   1.413   4.319   6.579 -0.4413  0.4755 -0.4452
  117MOL   C19728269   1.415   4.430   6.502  0.4334 -0.4616 -0.0815
  117MOL   C19828270   1.332   4.412   6.375 -0.3659  0.0325 -0.9242
  117MOL   O19928271   1.475   4.537   6.525 -0.3703  0.2978 -0.6591
  117MOL   H20028272   1.462   4.098   6.743  1.1750 -1.3757  0.0383
  117MOL   H20128273   1.562   4.193   6.853  2.1114 -1.2247 -0.3707
  117MOL   H20228274   1.562   4.381   6.700 -0.7831  1.2680 -0.9357
  117MOL   H20328275   1.385   4.354   6.300 -0.3379  1.2977 -1.9084
  117MOL   H20428276   1.298   4.512   6.346  0.7486  0.8999  0.6387
  117MOL   H20528277   1.248   4.351   6.406 -0.6530  1.1378  0.5593
  117MOL   C20628278   1.384   4.370   6.823 -0.5730 -0.1770  0.7172
  117MOL   C20728279   1.268   4.275   6.881  0.5061 -0.3419 -0.0076
  117MOL   O20828280   1.228   4.340   7.002 -0.5257 -0.2670 -0.4957
  117MOL   C20928281   1.154   4.453   7.014 -0.1322 -0.4715  0.0974
  117MOL   C21028282   1.138   4.499   7.154  0.3927  0.1913 -0.1946
  117MOL   O21128283   1.090   4.497   6.919  0.0136  0.2403  0.6434
  117MOL   H21228284   1.446   4.397   6.908  0.8824 -1.7293  0.1873
  117MOL   H21328285   1.340   4.466   6.794  0.8843  0.0113 -0.9690
  117MOL   H21428286   1.308   4.176   6.902  0.2575 -0.2404  0.9602
  117MOL   H21528287   1.035   4.480   7.185  0.6346  0.0197  0.5034
  117MOL   H21628288   1.149   4.606   7.168 -1.5942  0.2366  1.1750
  117MOL   H21728289   1.202   4.445   7.223 -1.9303 -4.7145 -1.6054
  117MOL   C21828290   1.158   4.255   6.776 -1.1055  0.0220  1.3183
  117MOL   C21928291   1.173   4.123   6.701 -0.6953 -0.2358  0.0762
  117MOL   O22028292   1.148   4.014   6.790  0.0775  0.1817 -0.1538
  117MOL   C22128293   1.230   3.907   6.804  0.0940 -0.1031 -0.2132
  117MOL   C22228294   1.165   3.798   6.886 -0.3977 -0.1220 -0.8432
  117MOL   O22328295   1.345   3.896   6.754 -0.1042 -0.0874  0.8322
  117MOL   H22428296   1.059   4.258   6.821 -0.8343  3.6009  1.8599
  117MOL   H22528297   1.147   4.339   6.707  0.2524  0.6444  1.8210
  117MOL   H22628298   1.278   4.115   6.673 -0.3647 -2.9731  1.9243
  117MOL   H22728299   1.214   3.781   6.981  1.0158 -2.9668 -2.0007
  117MOL   H22828300   1.171   3.707   6.825  0.0069  0.4645 -1.6872
  117MOL   H22928301   1.063   3.822   6.916 -0.5844  0.2504 -1.7556
  117MOL   C23028302   1.091   4.105   6.572  0.9737  0.7315 -0.6133
  117MOL   C23128303   1.102   3.969   6.507  0.3605 -0.7744 -0.1797
  117MOL   O23228304   1.030   3.955   6.385 -0.0461 -0.4721  0.2677
  117MOL   C23328305   0.995   3.834   6.334  0.5407  0.0963 -0.4099
  117MOL   C23428306   0.912   3.854   6.207 -0.1438  0.3137 -0.4135
  117MOL   O23528307   1.012   3.725   6.383  0.5540 -0.1111  0.0569
  117MOL   H23628308   0.983   4.102   6.588  1.0747 -0.6759 -0.0658
  117MOL   H23728309   1.109   4.183   6.498  0.1061  0.6280 -0.9322
  117MOL   H23828310   1.067   3.897   6.580 -1.3085 -1.5408 -1.6886
  117MOL   H23928311   0.857   3.946   6.224  1.3724  1.3441 -0.9388
  117MOL   H24028312   0.841   3.772   6.195  1.0517 -1.3286  3.0758
  117MOL   H24128313   0.985   3.861   6.126  0.2794  2.0106  0.0907
  117MOL   H24228314   1.205   3.948   6.480 -0.6197 -2.3492 -2.9035
  118MOL     C128315   2.747   7.558   5.951 -0.2622 -0.6918  0.2337
  118MOL     C228316   2.804   7.698   5.932 -0.1246  0.3881 -0.1370
  118MOL     O328317   2.931   7.696   5.868  0.6276  0.7771 -0.0735
  118MOL     C428318   3.036   7.661   5.933 -0.8637 -0.2323 -0.7946
  118MOL     C528319   3.159   7.671   5.845  1.1172 -0.3528 -0.3037
  118MOL     O628320   3.047   7.645   6.056  0.2634  0.4079 -0.5964
  118MOL     H728321   2.687   7.556   6.042  0.1442  2.0313  0.5787
  118MOL     H828322   2.821   7.485   5.983  0.3616  0.0776  0.5523
  118MOL     H928323   2.809   7.747   6.029  0.0315 -1.8113  0.9730
  118MOL    H1028324   3.176   7.576   5.795  0.2417 -0.1214 -1.0400
  118MOL    H1128325   3.239   7.686   5.918  2.8180  0.0166 -2.1780
  118MOL    H1228326   3.151   7.755   5.776 -1.6450 -1.2946 -1.1897
  118MOL    H1328327   2.694   7.507   5.871 -0.6957 -0.7280  0.5429
  118MOL    C1428328   2.718   7.792   5.846 -0.3375  0.8893  0.5163
  118MOL    C1528329   2.592   7.834   5.916  0.2414  0.1961 -0.3322
  118MOL    O1628330   2.623   7.908   6.037  0.0491  0.0705  0.2577
  118MOL    C1728331   2.537   7.924   6.132 -0.4425 -0.5850 -0.4239
  118MOL    C1828332   2.603   7.996   6.254  0.4315 -0.0101 -0.5214
  118MOL    O1928333   2.419   7.886   6.134  0.8026 -0.3150  0.0811
  118MOL    H2028334   2.776   7.883   5.826 -0.2805  0.5980 -0.6777
  118MOL    H2128335   2.692   7.753   5.748  4.0371 -0.8107 -0.0972
  118MOL    H2228336   2.539   7.747   5.956 -0.1709  0.7605  0.3716
  118MOL    H2328337   2.674   0.051   6.222  2.3784 -1.7328 -0.3792
  118MOL    H2428338   2.648   7.917   6.315  0.6603  0.6671  0.1970
  118MOL    H2528339   2.522   0.012   6.317 -0.7707 -1.9870 -0.8601
  118MOL    C2628340   2.494   7.912   5.828  0.1068  0.2787  0.6888
  118MOL    C2728341   2.349   7.856   5.848 -0.1227  0.2034 -0.3171
  118MOL    O2828342   2.279   7.922   5.746 -0.1434  0.1785  0.3549
  118MOL    C2928343   2.181   8.016   5.780 -0.3805 -0.3540  0.4770
  118MOL    C3028344   2.099   0.046   5.658 -0.6925  0.3012 -0.2214
  118MOL    O3128345   2.161   0.029   5.895  0.3447 -0.0590 -0.3105
  118MOL    H3228346   2.494   8.011   5.873 -1.6543  0.0142  1.2699
  118MOL    H3328347   2.518   7.909   5.722  1.4502  1.2612  0.9490
  118MOL    H3428348   2.310   7.890   5.944 -0.7281 -0.8999 -0.1640
  118MOL    H3528349   2.113   0.154   5.655  1.3103  0.0463 -0.8038
  118MOL    H3628350   1.991   0.042   5.672 -0.6785  2.9410  0.8367
  118MOL    H3728351   2.131   0.008   5.560 -1.1655  0.0237 -0.2687
  118MOL    C3828352   2.321   7.708   5.832 -0.3131 -0.4140 -0.5834
  118MOL    C3928353   2.173   7.680   5.853  0.0705 -0.4328 -0.4445
  118MOL    O4028354   2.154   7.548   5.803  0.2253 -0.2997 -0.0693
  118MOL    C4128355   2.069   7.524   5.700  0.7774  0.4537  0.0311
  118MOL    C4228356   2.028   7.379   5.707 -0.0064  0.5147 -0.2055
  118MOL    O4328357   2.008   7.602   5.630  0.6119  0.6719 -0.1482
  118MOL    H4428358   2.365   7.682   5.736  0.5635  0.6346 -0.4767
  118MOL    H4528359   2.381   7.652   5.905  2.1053  0.7938 -1.6008
  118MOL    H4628360   2.115   7.749   5.791  1.8302 -1.3539 -3.2276
  118MOL    H4728361   2.042   7.347   5.811  0.6440 -1.1858 -0.8033
  118MOL    H4828362   2.108   7.327   5.654  0.1795  1.0050 -0.4094
  118MOL    H4928363   1.940   7.335   5.660 -0.7093  1.3789  0.3002
  118MOL    C5028364   2.141   7.683   6.001 -0.9650 -0.0656 -0.4157
  118MOL    C5128365   2.000   7.734   6.042 -0.2473 -0.0612  0.2293
  118MOL    O5228366   1.901   7.648   5.987 -0.1672  0.1650  0.5415
  118MOL    C5328367   1.814   7.699   5.896  0.0026  0.3659 -0.0327
  118MOL    C5428368   1.708   7.602   5.862 -1.0637  0.3375  0.1545
  118MOL    O5528369   1.815   7.815   5.850  0.0491  0.0292  0.0291
  118MOL    H5628370   2.155   7.584   6.043  0.4628 -0.3531 -1.5504
  118MOL    H5728371   2.212   7.744   6.058 -0.4695  0.5729 -1.7059
  118MOL    H5828372   2.002   7.840   6.017  0.5191 -0.2205 -0.4204
  118MOL    H5928373   1.724   7.515   5.926 -1.1003  1.6569  1.9864
  118MOL    H6028374   1.719   7.563   5.761 -1.0777  0.1619  0.2217
  118MOL    H6128375   1.609   7.636   5.892 -1.0062  1.9544 -1.4164
  118MOL    C6228376   1.973   7.739   6.196  0.0459 -0.5208  0.0014
  118MOL    C6328377   1.840   7.798   6.245  0.1512  0.3732 -0.1932
  118MOL    O6428378   1.810   7.914   6.173  0.3201 -0.5577 -0.0250
  118MOL    C6528379   1.818   0.009   6.231  0.5015 -0.2362  0.2533
  118MOL    C6628380   1.830   0.128   6.132  0.8052  0.2721  0.5021
  118MOL    O6728381   1.825   0.029   6.353 -0.3222  0.5999  0.2856
  118MOL    H6828382   1.994   7.642   6.241  0.7728 -1.0693 -1.5044
  118MOL    H6928383   2.053   7.800   6.239  0.4709 -1.4631  0.5539
  118MOL    H7028384   1.862   7.821   6.349  1.1002  2.4685 -0.8364
  118MOL    H7128385   1.828   0.094   6.028  1.1344 -1.0391  0.9097
  118MOL    H7228386   1.927   0.169   6.157  1.6957 -2.0035  0.8824
  118MOL    H7328387   1.753   0.205   6.139  0.5853  0.3744 -2.4166
  118MOL    C7428388   1.725   7.696   6.250 -0.1784  0.8921 -0.5061
  118MOL    C7528389   1.691   7.641   6.387  0.6536 -0.4424  0.2139
  118MOL    O7628390   1.627   7.746   6.458 -0.2734 -0.4461 -0.4139
  118MOL    C7728391   1.699   7.800   6.566  0.0869 -0.0595  0.0479
  118MOL    C7828392   1.628   7.921   6.616  0.4911  0.3617  0.2244
  118MOL    O7928393   1.797   7.753   6.624 -0.3925 -0.4095  0.1299
  118MOL    H8028394   1.636   7.737   6.201 -0.4405  1.9232  0.7938
  118MOL    H8128395   1.756   7.615   6.185 -0.1213 -1.0177  1.8266
  118MOL    H8228396   1.788   7.609   6.427  1.8186  1.6795 -0.8060
  118MOL    H8328397   1.680   7.969   6.699 -2.0110 -1.0580  2.6850
  118MOL    H8428398   1.533   7.890   6.659 -0.0091  0.9006 -0.4730
  118MOL    H8528399   1.603   7.998   6.542  1.0542 -0.9737 -1.4084
  118MOL    C8628400   1.592   7.527   6.392  0.4213  0.0910 -0.2993
  118MOL    C8728401   1.577   7.460   6.525 -0.1318 -0.0452  0.5112
  118MOL    O8828402   1.476   7.358   6.510 -0.0883 -0.6650  0.7294
  118MOL    C8928403   1.409   7.313   6.625  0.2093  0.3516  0.0200
  118MOL    C9028404   1.298   7.213   6.596  0.6115 -0.5458 -0.7641
  118MOL    O9128405   1.436   7.333   6.739 -0.6883  0.2463 -1.1721
  118MOL    H9228406   1.496   7.564   6.356  1.0803  1.2188 -0.9370
  118MOL    H9328407   1.622   7.450   6.321 -0.9601  1.0321 -1.9399
  118MOL    H9428408   1.555   7.542   6.594 -0.4872  0.8538 -0.6603
  118MOL    H9528409   1.306   7.116   6.646 -0.2164 -0.3708 -0.2915
  118MOL    H9628410   1.289   7.182   6.491  1.0480 -2.2490 -0.3140
  118MOL    H9728411   1.208   7.267   6.625 -0.5406 -1.2169 -2.9777
  118MOL    C9828412   1.709   7.400   6.572  0.1386 -1.0038 -0.2341
  118MOL    C9928413   1.798   7.303   6.488 -0.2943 -0.5021  0.7908
  118MOL   O10028414   1.919   7.299   6.547  0.0978 -0.3728  0.0826
  118MOL   C10128415   2.034   7.361   6.492  0.1218  0.1867  0.6932
  118MOL   C10228416   2.145   7.360   6.589 -0.1456  0.2736  0.8609
  118MOL   O10328417   2.048   7.423   6.383 -0.7157 -0.6628 -0.2947
  118MOL   H10428418   1.771   7.486   6.595 -0.0877 -0.7864 -0.4405
  118MOL   H10528419   1.700   7.359   6.673 -0.7720  1.0009  0.5151
  118MOL   H10628420   1.801   7.336   6.384  1.0048 -3.7426 -0.2652
  118MOL   H10728421   2.150   7.427   6.675 -0.1727  1.3699  0.0164
  118MOL   H10828422   2.239   7.379   6.538 -0.5418 -1.4922 -0.5725
  118MOL   H10928423   2.157   7.259   6.627  0.5016  1.2626  3.3790
  118MOL   C11028424   1.747   7.160   6.484 -0.0441 -0.1037 -0.0999
  118MOL   C11128425   1.834   7.060   6.426  0.2950  0.1106 -0.2755
  118MOL   O11228426   1.882   6.954   6.518 -0.3372 -0.3519 -0.4385
  118MOL   C11328427   2.020   6.928   6.533 -0.1096 -0.3036  0.7942
  118MOL   C11428428   2.061   6.836   6.648  0.5105 -0.0798  0.0379
  118MOL   O11528429   2.107   6.995   6.476 -0.2098  0.5971  0.4042
  118MOL   H11628430   1.715   7.127   6.583 -1.9807  0.7719 -0.4038
  118MOL   H11728431   1.652   7.167   6.430  0.6662 -0.8645 -1.4646
  118MOL   H11828432   1.922   7.119   6.399  0.3063  1.1964  2.0442
  118MOL   H11928433   2.079   6.740   6.600 -0.6459  0.6586 -1.9287
  118MOL   H12028434   1.980   6.819   6.720  0.3103  0.5136 -0.0455
  118MOL   H12128435   2.155   6.868   6.692  0.9329 -0.0780 -0.8754
  118MOL   C12228436   1.770   7.007   6.295 -0.6747  0.0253  0.0090
  118MOL   C12328437   1.771   7.103   6.177 -0.4024  0.2710 -0.3704
  118MOL   O12428438   1.912   7.132   6.138  0.1773 -0.4220  0.1213
  118MOL   C12528439   1.946   7.256   6.097  0.8026  0.6043 -0.1814
  118MOL   C12628440   2.090   7.266   6.065  0.7304 -0.7090  0.0924
  118MOL   O12728441   1.869   7.349   6.069 -0.0554  0.4020 -0.0490
  118MOL   H12828442   1.836   6.926   6.265 -0.7793 -0.0962  0.1104
  118MOL   H12928443   1.673   6.960   6.310 -2.0651  2.0981 -2.0440
  118MOL   H13028444   1.712   7.192   6.198 -0.5257  0.2819 -0.7493
  118MOL   H13128445   2.127   7.365   6.090  0.6767 -1.0199  1.4457
  118MOL   H13228446   2.128   7.254   5.964  3.8874  1.1617  1.0018
  118MOL   H13328447   2.143   7.203   6.138 -0.2259 -1.3604  0.2377
  118MOL   C13428448   1.705   7.047   6.050  0.1208 -0.3314 -0.3544
  118MOL   C13528449   1.552   7.035   6.052 -0.2352  0.3023  0.6041
  118MOL   O13628450   1.502   7.167   6.084 -0.3484  0.2661  0.3969
  118MOL   C13728451   1.446   7.177   6.200 -0.3397  0.2480  0.1440
  118MOL   C13828452   1.348   7.292   6.208 -0.0607 -0.4301  0.6256
  118MOL   O13928453   1.454   7.104   6.292 -0.2789  0.6545 -0.3688
  118MOL   H14028454   1.743   7.098   5.962  1.6532  1.3409  1.2182
  118MOL   H14128455   1.734   6.943   6.038 -1.6759 -0.8928  0.0346
  118MOL   H14228456   1.536   6.958   6.128  0.1864  0.1960  0.5869
  118MOL   H14328457   1.247   7.254   6.227 -0.4058  0.2911  0.2636
  118MOL   H14428458   1.340   7.347   6.114 -1.5150  0.1646  1.0790
  118MOL   H14528459   1.373   7.361   6.288  1.8382  0.4037 -0.6542
  118MOL   C14628460   1.489   6.972   5.926  0.1461 -0.3863 -1.2225
  118MOL   C14728461   1.531   7.035   5.788 -0.2082  0.3675 -0.3541
  118MOL   O14828462   1.497   6.950   5.690 -0.4319  0.1981  0.9709
  118MOL   C14928463   1.571   6.847   5.650 -0.5290 -0.1772 -0.5772
  118MOL   C15028464   1.496   6.761   5.549 -0.0470  0.0721 -0.1762
  118MOL   O15128465   1.679   6.805   5.695  0.9013 -0.0913  0.5249
  118MOL   H15228466   1.517   6.867   5.938 -0.9288 -0.5161  0.1915
  118MOL   H15328467   1.381   6.982   5.929 -0.0738 -2.4411 -1.5478
  118MOL   H15428468   1.640   7.041   5.795 -0.1118 -0.9841 -0.6726
  118MOL   H15528469   1.389   6.770   5.565 -0.4149 -1.9033 -1.3878
  118MOL   H15628470   1.534   6.659   5.545  0.6948  0.2689  1.4850
  118MOL   H15728471   1.510   6.796   5.446 -0.7401  0.7467 -0.0465
  118MOL   C15828472   1.478   7.178   5.760  0.1259 -0.5968 -0.6129
  118MOL   C15928473   1.329   7.184   5.706  0.9015 -0.0293 -0.0113
  118MOL   O16028474   1.245   7.188   5.824  0.3856 -0.5362 -0.4029
  118MOL   C16128475   1.147   7.100   5.830 -0.3749 -0.2831  0.2949
  118MOL   C16228476   1.067   7.110   5.963  0.1377  0.0838  0.4102
  118MOL   O16328477   1.112   7.019   5.749 -0.2851  0.9583  0.1119
  118MOL   H16428478   1.488   7.245   5.845  0.2948 -0.3599 -0.8208
  118MOL   H16528479   1.549   7.209   5.683  0.2594 -0.7977 -0.5682
  118MOL   H16628480   1.309   7.107   5.631 -3.4711  1.4733 -0.5069
  118MOL   H16728481   1.122   7.060   6.043 -0.5787  0.3986  1.1066
  118MOL   H16828482   0.964   7.076   5.972 -0.2854  1.7281  2.0705
  118MOL   H16928483   1.066   7.209   6.008 -1.2569  0.4770 -0.4389
  118MOL   C17028484   1.303   7.315   5.630 -0.5539 -0.6774  0.5900
  118MOL   C17128485   1.362   7.308   5.487 -0.2528 -0.0675 -0.3862
  118MOL   O17228486   1.289   7.204   5.415 -0.2655  0.2436  0.4088
  118MOL   C17328487   1.356   7.095   5.367  0.8311  0.4655  0.4789
  118MOL   C17428488   1.259   6.987   5.327 -0.0821  0.5734  0.3682
  118MOL   O17528489   1.477   7.074   5.366  0.4545 -0.0747 -0.0438
  118MOL   H17628490   1.198   7.341   5.620  0.1603  1.8536 -0.6754
  118MOL   H17728491   1.366   7.393   5.672 -0.1630 -0.5338 -0.2572
  118MOL   H17828492   1.466   7.276   5.493  0.3659  1.3815 -2.6809
  118MOL   H17928493   1.304   6.888   5.333  1.4361  1.2477  0.4032
  118MOL   H18028494   1.234   7.002   5.222  0.1986  0.2946  0.2622
  118MOL   H18128495   1.171   6.990   5.391  0.3984 -0.9916  1.1329
  118MOL   C18228496   1.337   7.438   5.402 -0.8009  0.6976 -0.2727
  118MOL   C18328497   1.416   7.444   5.268  0.1499  0.2632  0.2612
  118MOL   O18428498   1.327   7.393   5.165  0.1138  0.2483 -0.4583
  118MOL   C18528499   1.362   7.342   5.047  0.0771 -0.5936  0.5374
  118MOL   C18628500   1.245   7.298   4.959  0.4232 -0.2431 -0.2571
  118MOL   O18728501   1.475   7.328   5.006 -0.1612 -0.1709  0.0793
  118MOL   H18828502   1.228   7.442   5.391 -0.8369  1.6887  0.4628
  118MOL   H18928503   1.367   7.521   5.466  2.3083  0.6031 -1.5297
  118MOL   H19028504   1.492   7.367   5.280 -1.2069 -0.9537  1.3780
  118MOL   H19128505   1.213   7.195   4.969 -2.2607  0.6458  0.6122
  118MOL   H19228506   1.263   7.321   4.854 -1.4869  1.4507 -0.2387
  118MOL   H19328507   1.149   7.336   4.993  0.1150 -0.6281 -0.7115
  118MOL   C19428508   1.471   7.576   5.229  0.5296  0.2284  0.1621
  118MOL   C19528509   1.596   7.621   5.311  0.0970  0.0814  0.1295
  118MOL   O19628510   1.698   7.525   5.299  0.1145 -0.1207 -0.4008
  118MOL   C19728511   1.732   7.447   5.410  0.6890 -0.1555 -0.2441
  118MOL   C19828512   1.832   7.343   5.372 -0.4778  1.4712 -0.0441
  118MOL   O19928513   1.687   7.445   5.526  0.0817  0.2094 -0.4683
  118MOL   H20028514   1.512   7.566   5.128 -0.2068 -0.3964 -0.0710
  118MOL   H20128515   1.391   7.650   5.229  1.9785  1.8751  3.3101
  118MOL   H20228516   1.553   7.618   5.411 -0.4066 -0.8148 -0.1043
  118MOL   H20328517   1.781   7.251   5.398 -0.5361  1.2062 -1.0669
  118MOL   H20428518   1.914   7.346   5.444 -1.4593  1.1212  1.0964
  118MOL   H20528519   1.860   7.343   5.267  1.3155  0.1322  0.4163
  118MOL   C20628520   1.643   7.761   5.276 -0.2621  0.6599 -0.2431
  118MOL   C20728521   1.738   7.824   5.381  0.2678 -0.4419  0.4020
  118MOL   O20828522   1.762   7.957   5.334  0.3092  0.3106 -0.7386
  118MOL   C20928523   1.873   7.994   5.280 -0.2206 -0.0854  0.5481
  118MOL   C21028524   1.890   0.123   5.268 -0.3186 -1.1009 -0.2945
  118MOL   O21128525   1.963   7.918   5.247  0.2536  0.4717 -0.2000
  118MOL   H21228526   1.697   7.753   5.181 -0.4132  0.2680 -0.2951
  118MOL   H21328527   1.551   7.819   5.270 -1.3779 -1.1264 -0.6735
  118MOL   H21428528   1.832   7.770   5.378  1.0495  0.9829 -1.7041
  118MOL   H21528529   1.961   0.160   5.195 -0.3410 -0.8023 -0.1683
  118MOL   H21628530   1.939   0.160   5.358  0.6357 -1.4493 -0.6647
  118MOL   H21728531   1.798   0.180   5.256 -0.0115 -0.2164  1.3763
  118MOL   C21828532   1.697   7.830   5.531  0.7200  0.6688 -0.1418
  118MOL   C21928533   1.579   7.925   5.572  0.0135  0.2307 -0.0876
  118MOL   O22028534   1.458   7.846   5.601  0.1199  0.2316  1.0549
  118MOL   C22128535   1.354   7.837   5.517 -0.8434 -0.2059 -0.8298
  118MOL   C22228536   1.248   7.731   5.537 -0.4797 -0.9150 -0.3476
  118MOL   O22328537   1.359   7.900   5.411  0.1378 -0.0689  0.0422
  118MOL   H22428538   1.680   7.730   5.572  0.0558 -0.1668 -2.3886
  118MOL   H22528539   1.790   7.858   5.580  0.8745 -2.3378  1.4572
  118MOL   H22628540   1.570   7.997   5.490  0.6582  1.2413  0.7217
  118MOL   H22728541   1.152   7.762   5.579 -0.2172 -0.8431  0.2098
  118MOL   H22828542   1.287   7.650   5.598  0.6083 -0.8016 -0.8828
  118MOL   H22928543   1.210   7.683   5.447  0.9317 -0.3195 -1.2780
  118MOL   C23028544   1.618   8.005   5.697  0.5233  0.6348 -0.1812
  118MOL   C23128545   1.545   0.121   5.697  0.4297 -0.8960 -0.2853
  118MOL   O23228546   1.598   0.214   5.798 -0.1653 -0.2316  0.1301
  118MOL   C23328547   1.596   0.343   5.765 -0.1089  0.5880  0.2253
  118MOL   C23428548   1.619   0.427   5.896  0.2059 -0.5274  0.6415
  118MOL   O23528549   1.583   0.398   5.656 -0.0517  0.3225 -0.2136
  118MOL   H23628550   1.593   7.956   5.791  0.6964  3.3509  1.3433
  118MOL   H23728551   1.724   0.004   5.708  0.5650 -0.5611  1.8073
  118MOL   H23828552   1.439   0.116   5.722  1.0297  1.4821  3.1208
  118MOL   H23928553   1.690   0.379   5.964  1.1159 -0.0413  0.0375
  118MOL   H24028554   1.521   0.439   5.942 -0.1540 -2.9087  0.5494
  118MOL   H24128555   1.664   0.524   5.878 -2.4597  1.0549  2.1304
  118MOL   H24228556   1.551   0.156   5.594  1.8624 -2.8088 -0.8899
  119MOL     C128557   6.814   3.603   5.723  0.6332 -0.0240 -0.0783
  119MOL     C228558   6.670   3.602   5.771 -0.2357  0.2533  0.3967
  119MOL     O328559   6.624   3.734   5.785  0.3480 -0.1637  0.0723
  119MOL     C428560   6.577   3.784   5.902  0.0578  0.1957  0.6453
  119MOL     C528561   6.515   3.920   5.905 -0.0761 -0.5361  0.6767
  119MOL     O628562   6.571   3.716   6.000  0.3040 -0.0502  0.4143
  119MOL     H728563   6.877   3.635   5.806  1.3014 -0.1441 -0.5317
  119MOL     H828564   6.820   3.676   5.642 -1.5041  0.5221  0.2238
  119MOL     H928565   6.682   3.558   5.870  0.8609 -1.5202 -0.4898
  119MOL    H1028566   6.407   3.907   5.909 -0.4067  1.1866 -1.6629
  119MOL    H1128567   6.551   3.977   5.819 -0.7566  1.7041  1.8261
  119MOL    H1228568   6.554   3.968   5.995  1.5721  0.0941 -0.3405
  119MOL    H1328569   6.832   3.502   5.686  0.9573  0.0674 -0.1686
  119MOL    C1428570   6.572   3.515   5.692 -0.2065  0.1608  0.3070
  119MOL    C1528571   6.585   3.357   5.692  0.2289  0.4596 -0.1575
  119MOL    O1628572   6.561   3.320   5.831  0.4136 -0.4232 -0.4182
  119MOL    C1728573   6.614   3.206   5.885 -0.3658  0.1252  0.0457
  119MOL    C1828574   6.571   3.186   6.028 -0.8301  0.5202  0.1197
  119MOL    O1928575   6.691   3.130   5.829  0.2363  0.3334 -0.2781
  119MOL    H2028576   6.478   3.535   5.744  0.3176  2.4161  0.4301
  119MOL    H2128577   6.562   3.563   5.595 -0.8197  0.5517  0.5574
  119MOL    H2228578   6.688   3.329   5.667  0.5901  2.7345 -1.2911
  119MOL    H2328579   6.642   3.114   6.066 -2.1279 -1.0985 -0.4761
  119MOL    H2428580   6.470   3.153   6.051 -0.4691  0.2348  1.2935
  119MOL    H2528581   6.600   3.281   6.074  1.0124 -0.8025  1.7546
  119MOL    C2628582   6.485   3.277   5.603 -0.9157  0.5193 -0.0733
  119MOL    C2728583   6.538   3.250   5.456  0.2124 -0.2164  0.3378
  119MOL    O2828584   6.562   3.371   5.384  0.0488  0.0825  0.0821
  119MOL    C2928585   6.470   3.421   5.308  0.0389 -0.6668 -0.6082
  119MOL    C3028586   6.521   3.550   5.241 -0.6980 -0.5277  0.2650
  119MOL    O3128587   6.347   3.402   5.315  0.6774 -0.0606  0.4015
  119MOL    H3228588   6.469   3.177   5.643  1.1799  1.0659  2.2834
  119MOL    H3328589   6.389   3.329   5.598 -1.9332 -1.2548  0.9109
  119MOL    H3428590   6.458   3.207   5.395  0.0139  1.1602 -0.4019
  119MOL    H3528591   6.445   3.623   5.268 -2.5563 -2.8149  1.4339
  119MOL    H3628592   6.537   3.538   5.134 -0.0929  0.6373  0.2145
  119MOL    H3728593   6.612   3.590   5.284 -0.9691  0.9718 -0.5237
  119MOL    C3828594   6.673   3.179   5.452  0.9621 -0.0348  0.2123
  119MOL    C3928595   6.718   3.120   5.319 -0.2723  1.2459 -0.1177
  119MOL    O4028596   6.795   3.218   5.246  0.2451 -0.0972  0.3727
  119MOL    C4128597   6.753   3.269   5.129  0.7138  0.3707 -0.2334
  119MOL    C4228598   6.864   3.334   5.045 -0.0194 -0.6089 -0.3588
  119MOL    O4328599   6.633   3.273   5.086  0.0289 -0.2882  0.2479
  119MOL    H4428600   6.754   3.234   5.499  0.5989 -0.9622  1.9586
  119MOL    H4528601   6.656   3.087   5.508 -1.1300  0.0843 -0.1779
  119MOL    H4628602   6.623   3.101   5.269 -0.9468 -0.1319  1.6023
  119MOL    H4728603   6.856   3.322   4.937 -1.1982 -0.1253 -0.3336
  119MOL    H4828604   6.960   3.289   5.068  1.5338  3.4962  1.7465
  119MOL    H4928605   6.860   3.436   5.082  1.0637 -0.3812 -0.8496
  119MOL    C5028606   6.814   3.000   5.325  0.9839 -0.6144  0.0841
  119MOL    C5128607   6.858   2.952   5.186  0.0580  0.6323 -0.4385
  119MOL    O5228608   6.971   2.872   5.202 -0.2678  0.2378  0.6640
  119MOL    C5328609   7.091   2.925   5.174 -0.3594 -0.4178 -0.1523
  119MOL    C5428610   7.204   2.826   5.201 -0.0451 -0.8218  0.7081
  119MOL    O5528611   7.114   3.035   5.130 -0.8095  0.3207 -0.4108
  119MOL    H5628612   6.902   3.021   5.385 -1.8098  0.0585  4.1755
  119MOL    H5728613   6.769   2.918   5.381 -0.7903  0.7201  0.6979
  119MOL    H5828614   6.884   3.034   5.121  0.1720  0.5202 -0.5331
  119MOL    H5928615   7.237   2.781   5.107 -0.5656  2.2167 -0.9945
  119MOL    H6028616   7.164   2.744   5.262 -2.0574 -0.4812 -0.1202
  119MOL    H6128617   7.290   2.873   5.249 -1.2892  0.6457  1.5132
  119MOL    C6228618   6.748   2.863   5.113 -0.2508  0.3908  0.4449
  119MOL    C6328619   6.718   2.730   5.157 -0.4856  0.3523 -0.5072
  119MOL    O6428620   6.626   2.733   5.265 -0.2663  0.3698 -0.1369
  119MOL    C6528621   6.597   2.624   5.342  0.8374  0.2292 -0.3321
  119MOL    C6628622   6.477   2.653   5.433 -0.2517  0.7181  0.4098
  119MOL    O6728623   6.653   2.516   5.342  0.2763  0.0924  0.1327
  119MOL    H6828624   6.660   2.926   5.098  0.1046  1.7904  3.7533
  119MOL    H6928625   6.785   2.863   5.011  0.0267 -0.4845  0.5426
  119MOL    H7028626   6.809   2.681   5.192 -1.6569  0.9818  3.6941
  119MOL    H7128627   6.439   2.562   5.480  0.5009  0.2054  0.0347
  119MOL    H7228628   6.388   2.690   5.382  0.5023  1.4492 -0.4015
  119MOL    H7328629   6.487   2.738   5.501 -1.4340  1.2345 -0.0419
  119MOL    C7428630   6.668   2.644   5.036 -0.0190 -0.3443 -0.3600
  119MOL    C7528631   6.785   2.622   4.928  0.3825  0.5782 -0.5946
  119MOL    O7628632   6.907   2.565   4.977  0.7373 -0.6261 -0.0113
  119MOL    C7728633   7.030   2.620   4.960  0.0209  0.1826  0.0010
  119MOL    C7828634   7.138   2.529   5.018  0.1237 -0.0149  0.0244
  119MOL    O7928635   7.054   2.726   4.903 -0.2640 -0.4482 -0.1018
  119MOL    H8028636   6.649   2.544   5.074  1.2195 -0.7378 -0.7402
  119MOL    H8128637   6.577   2.683   4.990 -0.3540  0.0784  0.6411
  119MOL    H8228638   6.817   2.718   4.886 -1.2104  0.8834 -1.1481
  119MOL    H8328639   7.223   2.515   4.950  0.4918 -0.2604  0.5305
  119MOL    H8428640   7.088   2.433   5.030 -1.8431  0.3787 -4.2456
  119MOL    H8528641   7.184   2.563   5.111 -1.8679 -1.8465  1.7274
  119MOL    C8628642   6.743   2.538   4.799  0.2501  0.1277 -0.1836
  119MOL    C8728643   6.805   2.596   4.670  0.0044  0.1094 -0.7527
  119MOL    O8828644   6.814   2.490   4.573 -0.1158  0.0115 -0.0040
  119MOL    C8928645   6.934   2.425   4.557 -0.0162  0.4488 -1.0047
  119MOL    C9028646   6.948   2.320   4.449 -0.5462 -0.1392  0.3619
  119MOL    O9128647   7.026   2.437   4.640 -0.3767  0.5464 -0.4444
  119MOL    H9228648   6.774   2.435   4.810 -1.7046 -0.5296 -0.6865
  119MOL    H9328649   6.635   2.531   4.789  0.3282  1.4369 -2.2729
  119MOL    H9428650   6.900   2.643   4.695 -0.9649  1.7149  0.0011
  119MOL    H9528651   6.978   2.224   4.490 -1.8235 -2.2902 -3.5162
  119MOL    H9628652   7.020   2.363   4.381 -0.5802 -1.1240 -0.3036
  119MOL    H9728653   6.846   2.324   4.411 -0.1513 -0.2919 -0.7164
  119MOL    C9828654   6.719   2.705   4.602 -0.6240  0.2801  1.1659
  119MOL    C9928655   6.716   2.842   4.666 -0.3383  0.2949  0.0640
  119MOL   O10028656   6.854   2.889   4.684  0.2049  0.0827 -0.5458
  119MOL   C10128657   6.876   2.991   4.768  0.3001  0.1626  0.4023
  119MOL   C10228658   7.028   3.022   4.773  0.0881  0.5702 -0.0630
  119MOL   O10328659   6.798   3.058   4.842 -0.2105 -0.0537 -0.1026
  119MOL   H10428660   6.764   2.715   4.503  2.4103 -0.9309  2.3734
  119MOL   H10528661   6.618   2.667   4.585 -0.5668  0.8242 -0.4281
  119MOL   H10628662   6.673   2.833   4.766  1.2250 -0.2148  0.7003
  119MOL   H10728663   7.060   3.105   4.709  1.3294  0.2844  0.1704
  119MOL   H10828664   7.083   2.933   4.743  0.2754 -0.0399  1.9973
  119MOL   H10928665   7.046   3.042   4.879  2.1026  0.0775 -0.2875
  119MOL   C11028666   6.642   2.959   4.587 -0.1191  0.6008  0.3041
  119MOL   C11128667   6.499   2.915   4.551  0.1592  0.0940 -1.0838
  119MOL   O11228668   6.416   2.952   4.664 -0.0741  0.2751  0.5164
  119MOL   C11328669   6.412   2.864   4.770  0.1722  0.2088 -0.5969
  119MOL   C11428670   6.358   2.931   4.896  0.1069 -0.3350  0.0960
  119MOL   O11528671   6.435   2.740   4.774 -0.3339  0.0227 -0.1980
  119MOL   H11628672   6.653   3.055   4.636  1.5538  1.2136 -1.2147
  119MOL   H11728673   6.691   2.965   4.490 -1.1742 -1.6001 -0.4075
  119MOL   H11828674   6.471   2.814   4.521  0.4950  0.6192 -3.2507
  119MOL   H11928675   6.249   2.934   4.905  0.1832  1.1109  0.5470
  119MOL   H12028676   6.374   3.038   4.886  0.4080 -0.5848 -2.5574
  119MOL   H12128677   6.397   2.895   4.991 -0.4250 -0.8432  0.1276
  119MOL   C12228678   6.437   3.001   4.446 -0.1983  0.3268  0.7039
  119MOL   C12328679   6.308   2.935   4.393 -0.1499  0.1638  0.0850
  119MOL   O12428680   6.240   3.045   4.329  0.2771 -0.5601 -0.2585
  119MOL   C12528681   6.113   3.069   4.359  0.0297 -0.6679  0.0406
  119MOL   C12628682   6.069   3.200   4.303  0.1396  0.1174 -0.4203
  119MOL   O12728683   6.035   3.002   4.423  0.0824  0.2688  0.2565
  119MOL   H12828684   6.419   3.101   4.484 -2.1442  0.9848 -1.8162
  119MOL   H12928685   6.513   3.003   4.369 -0.8655  1.2295  0.0602
  119MOL   H13028686   6.255   2.884   4.473 -0.9982 -0.7222 -1.0320
  119MOL   H13128687   6.038   3.270   4.381 -0.4630  0.5440 -1.0390
  119MOL   H13228688   5.983   3.181   4.238  0.0857  0.5430 -0.4710
  119MOL   H13328689   6.148   3.248   4.246 -0.0895  0.0537 -0.7938
  119MOL   C13428690   6.323   2.848   4.267  0.4651 -0.5010 -0.2736
  119MOL   C13528691   6.396   2.704   4.290 -0.2952  0.0714  0.2028
  119MOL   O13628692   6.301   2.627   4.365 -0.5162 -0.0307 -0.0731
  119MOL   C13728693   6.349   2.551   4.466  0.1025  0.2452 -0.8150
  119MOL   C13828694   6.240   2.489   4.558 -0.1941 -0.8094 -0.1052
  119MOL   O13928695   6.466   2.530   4.486 -0.1088  0.0366  0.1666
  119MOL   H14028696   6.224   2.834   4.222  0.1888 -1.2917  0.5557
  119MOL   H14128697   6.383   2.895   4.189  0.5631 -0.2702 -0.0591
  119MOL   H14228698   6.488   2.715   4.347 -0.1699 -2.2089  0.5050
  119MOL   H14328699   6.220   2.390   4.516  0.8323 -0.3483 -1.7198
  119MOL   H14428700   6.144   2.540   4.562 -0.0901 -0.7015  1.5147
  119MOL   H14528701   6.282   2.470   4.657 -0.0935 -1.7279 -0.3193
  119MOL   C14628702   6.430   2.633   4.161 -0.2547  0.3557 -0.2698
  119MOL   C14728703   6.537   2.698   4.071 -0.0985 -0.0565 -0.5213
  119MOL   O14828704   6.663   2.655   4.107 -0.1833 -0.3313  0.1914
  119MOL   C14928705   6.735   2.703   4.206 -0.4593 -0.0355  0.1391
  119MOL   C15028706   6.874   2.644   4.210  0.6667 -0.0594 -0.8287
  119MOL   O15128707   6.701   2.801   4.275 -0.1482 -0.2735  0.2029
  119MOL   H15228708   6.438   2.527   4.183 -2.1350  0.0037 -1.1396
  119MOL   H15328709   6.337   2.629   4.104  1.4893  1.6912 -3.3488
  119MOL   H15428710   6.535   2.807   4.074 -2.5418 -0.1207  1.7746
  119MOL   H15528711   6.949   2.717   4.241  1.7563 -1.5499  0.0924
  119MOL   H15628712   6.908   2.609   4.113  3.6047 -1.8985  0.7985
  119MOL   H15728713   6.889   2.563   4.281  2.4256  0.4198 -0.6247
  119MOL   C15828714   6.516   2.653   3.923 -0.7759 -0.6685 -0.3131
  119MOL   C15928715   6.596   2.735   3.815 -0.1459  0.6310  0.1835
  119MOL   O16028716   6.736   2.719   3.816 -0.6227 -0.3189 -0.2835
  119MOL   C16128717   6.814   2.834   3.848 -0.9712  0.0260 -0.1533
  119MOL   C16228718   6.968   2.794   3.839 -0.2152 -0.6375 -0.0149
  119MOL   O16328719   6.775   2.952   3.858  0.3657 -0.3124  0.1377
  119MOL   H16428720   6.548   2.550   3.905  2.5937  0.0897  0.9855
  119MOL   H16528721   6.410   2.652   3.895 -1.0003 -0.7000  0.5293
  119MOL   H16628722   6.580   2.839   3.840 -0.1834  1.0867 -1.6724
  119MOL   H16728723   6.994   2.711   3.904 -0.7986 -1.9655 -1.4410
  119MOL   H16828724   7.021   2.886   3.863  0.2416 -1.1051  0.7957
  119MOL   H16928725   6.982   2.763   3.735 -0.8779 -1.8879  0.2669
  119MOL   C17028726   6.547   2.709   3.675 -0.3506  0.1114  0.2625
  119MOL   C17128727   6.413   2.792   3.638 -0.1651  0.7006 -0.5171
  119MOL   O17228728   6.450   2.920   3.624 -0.3543  0.1454 -0.5471
  119MOL   C17328729   6.437   3.013   3.717 -0.5823  0.2124  0.7938
  119MOL   C17428730   6.487   3.152   3.680  0.2666  0.6975 -0.2878
  119MOL   O17528731   6.385   3.000   3.830 -1.3147  0.2497  0.2281
  119MOL   H17628732   6.628   2.728   3.604 -1.0167  0.9133 -0.2923
  119MOL   H17728733   6.531   2.603   3.658  0.1644 -0.0275  0.6183
  119MOL   H17828734   6.343   2.779   3.721  0.2061 -0.6135 -0.4109
  119MOL   H17928735   6.492   3.175   3.573  0.2437  3.9841  0.3510
  119MOL   H18028736   6.590   3.171   3.712  1.2133 -1.6522 -1.8044
  119MOL   H18128737   6.423   3.223   3.731  0.1815  1.4540 -1.4216
  119MOL   C18228738   6.357   2.743   3.506 -0.0475 -0.0780  0.1639
  119MOL   C18328739   6.208   2.797   3.483  0.9619  0.5554  0.4671
  119MOL   O18428740   6.220   2.916   3.412  0.1769 -0.7874 -0.2461
  119MOL   C18528741   6.132   3.022   3.409 -0.5826 -0.3847 -0.0975
  119MOL   C18628742   6.187   3.148   3.360 -1.0920 -0.1669 -0.9094
  119MOL   O18728743   6.015   3.020   3.456  0.6186 -0.2552 -0.0395
  119MOL   H18828744   6.413   2.783   3.422 -0.4563 -0.4599 -0.2935
  119MOL   H18928745   6.351   2.634   3.512 -1.5545 -0.0893 -1.1628
  119MOL   H19028746   6.167   2.807   3.584  0.2656  0.3510  0.2061
  119MOL   H19128747   6.269   3.181   3.423 -1.2512  1.0710 -1.3373
  119MOL   H19228748   6.115   3.229   3.348  0.1594  1.1413  0.2629
  119MOL   H19328749   6.230   3.133   3.261 -0.0348  0.8061 -0.6050
  119MOL   C19428750   6.117   2.687   3.417  0.4779  1.0583 -0.4419
  119MOL   C19528751   6.087   2.564   3.511 -0.5057 -0.2642  0.4869
  119MOL   O19628752   6.042   2.612   3.635  0.4357 -0.3078 -0.3941
  119MOL   C19728753   6.096   2.564   3.754 -0.0488  0.7432 -0.1576
  119MOL   C19828754   6.041   2.646   3.868  0.3555 -0.2352 -0.2519
  119MOL   O19928755   6.173   2.476   3.767  0.0129 -0.2789  0.1071
  119MOL   H20028756   6.024   2.737   3.389 -2.8264 -3.8899  1.1628
  119MOL   H20128757   6.165   2.649   3.327  2.2729  0.3004  0.7906
  119MOL   H20228758   6.179   2.511   3.535  0.2097  1.0848  0.7713
  119MOL   H20328759   6.065   2.590   3.958 -0.2536 -1.2989 -0.7445
  119MOL   H20428760   5.933   2.654   3.860  0.1682 -1.3545  0.9711
  119MOL   H20528761   6.094   2.741   3.865  1.0888 -0.6791 -1.7900
  119MOL   C20628762   5.980   2.480   3.434  0.0612  0.7394 -0.2893
  119MOL   C20728763   6.048   2.382   3.327 -0.4656  0.0123 -0.1303
  119MOL   O20828764   6.123   2.279   3.395  0.4678  0.4170  0.4019
  119MOL   C20928765   6.233   2.229   3.332  0.3698 -0.9059  0.2586
  119MOL   C21028766   6.300   2.114   3.404  0.5204 -0.7030 -0.5221
  119MOL   O21128767   6.288   2.266   3.227  0.2479 -0.1263  0.3400
  119MOL   H21228768   5.931   2.406   3.497 -0.8735  0.8137 -0.9089
  119MOL   H21328769   5.901   2.543   3.392 -0.7812 -0.2507 -0.2326
  119MOL   H21428770   6.115   2.433   3.258 -0.6571  2.4639  1.4404
  119MOL   H21528771   6.265   2.021   3.360 -1.7541 -0.5882  0.9941
  119MOL   H21628772   6.277   2.130   3.509 -1.4365 -0.9845 -0.8917
  119MOL   H21728773   6.409   2.126   3.403  0.3579  1.0049 -0.1207
  119MOL   C21828774   5.947   2.303   3.235  0.0021 -0.3542  0.3282
  119MOL   C21928775   5.855   2.398   3.152 -0.1781 -0.3143 -0.8585
  119MOL   O22028776   5.928   2.475   3.052  0.2930  0.2112  0.5711
  119MOL   C22128777   5.948   2.603   3.062 -0.2211  0.2161 -0.3737
  119MOL   C22228778   6.025   2.659   2.950  0.6313 -0.1510  0.8371
  119MOL   O22328779   5.907   2.683   3.154 -0.4265  0.1217 -0.0031
  119MOL   H22428780   5.983   2.232   3.161  1.4750  1.6761 -0.9628
  119MOL   H22528781   5.888   2.248   3.309  0.8504 -1.6450  0.0606
  119MOL   H22628782   5.816   2.466   3.227  0.9423 -1.6602  0.9894
  119MOL   H22728783   5.980   2.632   2.855 -0.0929 -0.1960  1.1897
  119MOL   H22828784   6.123   2.611   2.955 -0.1902 -2.0570 -0.5895
  119MOL   H22928785   6.040   2.767   2.962 -0.8906  0.2174 -0.3490
  119MOL   C23028786   5.732   2.326   3.083 -1.0325  0.3555 -0.0758
  119MOL   C23128787   5.641   2.247   3.179 -0.2147 -0.0711  0.2140
  119MOL   O23228788   5.541   2.185   3.097  0.4040 -0.6703 -0.7918
  119MOL   C23328789   5.412   2.166   3.129 -0.2901  0.1216 -0.0755
  119MOL   C23428790   5.331   2.092   3.022 -0.1022  0.1207  0.2678
  119MOL   O23528791   5.359   2.217   3.224  0.0898  0.4647 -0.5663
  119MOL   H23628792   5.684   2.399   3.019  0.6776 -0.4328 -2.3323
  119MOL   H23728793   5.769   2.258   3.005  3.4909  2.4277  0.0993
  119MOL   H23828794   5.601   2.320   3.250 -1.4163 -0.8560  0.3583
  119MOL   H23928795   5.396   2.062   2.940 -1.8711 -0.7556 -0.8416
  119MOL   H24028796   5.248   2.150   2.983  1.2174  1.8025 -0.1345
  119MOL   H24128797   5.284   2.009   3.074  0.0474 -0.4395 -0.4860
  119MOL   H24228798   5.693   2.169   3.234  0.3690 -0.2276 -0.5414
  120MOL     C128799   2.061   0.046   1.821 -0.0458 -0.4841 -0.0645
  120MOL     C228800   2.137   7.950   1.753 -0.2426 -0.4635  0.3599
  120MOL     O328801   2.043   7.839   1.730 -0.2167  0.7725 -0.1510
  120MOL     C428802   2.078   7.717   1.749 -0.8180  0.2798 -0.3442
  120MOL     C528803   1.968   7.617   1.729  0.6485  0.4390  0.3966
  120MOL     O628804   2.189   7.678   1.786 -0.5567 -0.5098 -0.3806
  120MOL     H728805   2.027   0.029   1.923 -0.6163  2.4825  0.2936
  120MOL     H828806   1.982   0.080   1.755 -0.4815  1.6652  1.4873
  120MOL     H928807   2.217   7.914   1.819  1.3544 -0.1525 -1.3514
  120MOL    H1028808   2.006   7.515   1.734 -1.4346 -0.3848  0.3311
  120MOL    H1128809   1.920   7.637   1.633  0.0460  3.9751  1.3417
  120MOL    H1228810   1.885   7.619   1.800 -0.3303 -0.1287 -0.7259
  120MOL    H1328811   2.120   0.137   1.835  0.8385 -1.2492  1.3193
  120MOL    C1428812   2.191   7.991   1.615 -0.0809  0.0636 -0.0070
  120MOL    C1528813   2.325   0.042   1.616  0.1564 -0.2992  0.0859
  120MOL    O1628814   2.427   7.975   1.662 -0.0015  0.3227  0.0519
  120MOL    C1728815   2.500   8.004   1.780  0.0947  0.3250  0.4733
  120MOL    C1828816   2.618   7.908   1.812 -0.0452 -0.0073 -0.4201
  120MOL    O1928817   2.469   0.076   1.849 -0.3838  0.0144  0.2925
  120MOL    H2028818   2.208   7.908   1.546  0.1972  0.5470 -0.5214
  120MOL    H2128819   2.109   0.021   1.566 -1.1010 -1.0873  0.4550
  120MOL    H2228820   2.321   0.118   1.694  1.6193  0.4078 -0.5087
  120MOL    H2328821   2.669   7.922   1.907 -0.7696  0.2134 -0.0593
  120MOL    H2428822   2.688   7.903   1.729  0.9731 -0.4665  0.4647
  120MOL    H2528823   2.574   7.808   1.810  1.1188 -0.5757  1.1120
  120MOL    C2628824   2.383   0.109   1.494 -0.4261  0.8619 -0.1221
  120MOL    C2728825   2.294   0.222   1.442 -0.3846 -0.3059  0.5270
  120MOL    O2828826   2.291   0.336   1.539 -0.0014 -0.3485 -0.2267
  120MOL    C2928827   2.187   0.350   1.617 -0.7543  0.0733 -0.4060
  120MOL    C3028828   2.216   0.439   1.739 -0.0742  1.4972  0.4997
  120MOL    O3128829   2.088   0.285   1.611  0.2062  0.2317  0.1321
  120MOL    H3228830   2.483   0.149   1.517  0.5031 -1.1844 -0.5373
  120MOL    H3328831   2.395   0.029   1.421 -2.7585  1.0881 -0.7908
  120MOL    H3428832   2.192   0.185   1.433 -0.0486 -1.0139 -0.3568
  120MOL    H3528833   2.131   0.446   1.807 -1.0825 -1.1948 -0.4308
  120MOL    H3628834   2.252   0.539   1.714  1.0624  0.5352 -1.8428
  120MOL    H3728835   2.304   0.397   1.788  0.2436  0.5295 -0.8593
  120MOL    C3828836   2.350   0.282   1.309  0.8544  0.4786  0.2397
  120MOL    C3928837   2.241   0.339   1.217  0.2583  0.4405 -0.3003
  120MOL    O4028838   2.166   0.440   1.278  0.0257  0.5841 -0.2385
  120MOL    C4128839   2.030   0.428   1.280  0.2612 -0.4851 -0.0170
  120MOL    C4228840   1.965   0.557   1.336  0.3314 -0.0711 -0.1458
  120MOL    O4328841   1.963   0.328   1.251  0.4448 -0.4992  0.5335
  120MOL    H4428842   2.423   0.363   1.319 -0.6713  1.8282  0.7748
  120MOL    H4528843   2.399   0.201   1.255  0.0755  0.4037 -0.3709
  120MOL    H4628844   2.172   0.259   1.192 -2.2911  2.4045  0.2227
  120MOL    H4728845   1.930   0.611   1.248 -0.8329  0.6048  0.7241
  120MOL    H4828846   2.035   0.617   1.395 -1.4242  0.5744  1.3202
  120MOL    H4928847   1.884   0.538   1.407  0.1212  0.8857 -0.1154
  120MOL    C5028848   2.295   0.370   1.078  0.1783 -0.5682  0.1914
  120MOL    C5128849   2.390   0.486   1.052  0.1865  0.0207 -0.2464
  120MOL    O5228850   2.404   0.473   0.911  0.2942 -0.0518  0.4699
  120MOL    C5328851   2.513   0.415   0.849  0.1860  0.8685  0.9757
  120MOL    C5428852   2.519   0.429   0.698 -0.2559 -1.2317 -0.6279
  120MOL    O5528853   2.593   0.337   0.904 -0.1928  0.4793  0.6280
  120MOL    H5628854   2.336   0.277   1.039 -0.3570 -1.1771  1.0671
  120MOL    H5728855   2.206   0.392   1.020 -0.3963 -0.8302  0.9742
  120MOL    H5828856   2.483   0.476   1.108  0.6694 -0.5263 -1.1266
  120MOL    H5928857   2.610   0.384   0.658  1.0513  1.0651 -0.3795
  120MOL    H6028858   2.508   0.529   0.656  0.2338 -0.9616 -0.1254
  120MOL    H6128859   2.441   0.367   0.654 -0.7746 -0.2690 -1.0827
  120MOL    C6228860   2.327   0.620   1.073  0.4453  0.1249  0.2145
  120MOL    C6328861   2.421   0.732   1.027  0.1022  0.4290 -0.0932
  120MOL    O6428862   2.352   0.856   1.034 -0.2486 -0.5839 -0.1249
  120MOL    C6528863   2.302   0.907   0.926  0.6290 -0.9805  0.3237
  120MOL    C6628864   2.227   1.040   0.954 -0.7020 -0.0604 -0.7932
  120MOL    O6728865   2.319   0.866   0.806 -0.0942 -0.1314 -0.0503
  120MOL    H6828866   2.237   0.618   1.011  0.4568  0.8685  0.1740
  120MOL    H6928867   2.296   0.627   1.177  0.4008 -0.0207  0.2112
  120MOL    H7028868   2.446   0.699   0.927 -1.2468 -0.0041 -0.2913
  120MOL    H7128869   2.139   1.059   0.892 -1.3467 -0.8726 -0.1351
  120MOL    H7228870   2.288   1.127   0.931 -1.7827  1.1486  0.8213
  120MOL    H7328871   2.211   1.051   1.061 -2.9918  0.7411 -1.1802
  120MOL    C7428872   2.549   0.751   1.115  0.3474 -0.1816  0.4728
  120MOL    C7528873   2.677   0.781   1.034  0.4109 -0.1782  0.9854
  120MOL    O7628874   2.651   0.888   0.947 -0.5055 -0.6340  0.6465
  120MOL    C7728875   2.726   0.909   0.837  0.5303 -0.1868 -0.1839
  120MOL    C7828876   2.702   1.041   0.771  0.5322 -0.7868  0.4421
  120MOL    O7928877   2.809   0.822   0.800  0.7686 -0.1538  0.3485
  120MOL    H8028878   2.531   0.828   1.190 -2.5355 -0.5982  0.2733
  120MOL    H8128879   2.567   0.667   1.182  2.4478  0.6085  0.9483
  120MOL    H8228880   2.696   0.686   0.984 -0.6595 -0.2488  0.6991
  120MOL    H8328881   2.767   1.063   0.686  0.4184  0.4572  0.6654
  120MOL    H8428882   2.711   1.128   0.835  0.5273 -1.6796  1.6632
  120MOL    H8528883   2.602   1.057   0.730  0.7712  0.1985  0.2235
  120MOL    C8628884   2.809   0.812   1.110 -0.0159  0.2010  0.4453
  120MOL    C8728885   2.851   0.702   1.202  0.1871 -0.3788 -0.9497
  120MOL    O8828886   2.882   0.584   1.121 -0.7612 -0.0325 -0.0961
  120MOL    C8928887   2.818   0.465   1.145  0.6305  0.1423 -0.2923
  120MOL    C9028888   2.869   0.347   1.056  0.3325 -0.4130 -1.1986
  120MOL    O9128889   2.732   0.442   1.231 -0.9325  0.2593 -0.6634
  120MOL    H9228890   2.897   0.823   1.047 -0.0934 -1.3753  0.0238
  120MOL    H9328891   2.801   0.911   1.154  1.0954  0.4474  0.1126
  120MOL    H9428892   2.759   0.679   1.256 -0.0831  0.1364 -1.1843
  120MOL    H9528893   2.972   0.326   1.088  0.1504  1.0936  0.4224
  120MOL    H9628894   2.875   0.378   0.952 -0.7529 -0.7262 -1.3505
  120MOL    H9728895   2.806   0.260   1.071  0.3535 -0.3063 -0.4703
  120MOL    C9828896   2.954   0.731   1.312 -0.7881 -0.3835  0.7159
  120MOL    C9928897   2.974   0.627   1.410 -0.9532  0.4165  0.5195
  120MOL   O10028898   3.074   0.669   1.503  0.1861 -0.7778 -0.1227
  120MOL   C10128899   3.171   0.586   1.538 -0.0728 -0.1449  0.3768
  120MOL   C10228900   3.286   0.654   1.609  0.4195  0.8282 -0.3466
  120MOL   O10328901   3.172   0.470   1.503 -0.0910  0.0346  0.3194
  120MOL   H10428902   3.048   0.757   1.261  0.3306 -1.7285  2.0573
  120MOL   H10528903   2.924   0.820   1.367 -0.6456 -1.1081  1.9820
  120MOL   H10628904   3.004   0.539   1.353 -1.8702  0.3738  0.0901
  120MOL   H10728905   3.360   0.692   1.540  0.8998  2.0139  0.7984
  120MOL   H10828906   3.337   0.580   1.671  0.7835  1.5574  0.2290
  120MOL   H10928907   3.245   0.729   1.677 -2.0879  0.2782 -1.1954
  120MOL   C11028908   2.851   0.599   1.497 -0.3494 -0.3139 -0.4141
  120MOL   C11128909   2.858   0.478   1.591  0.0271  1.0407 -0.0203
  120MOL   O11228910   2.750   0.497   1.676 -0.0384  0.8701  0.3811
  120MOL   C11328911   2.771   0.578   1.786 -0.4558 -0.1097 -0.4786
  120MOL   C11428912   2.644   0.600   1.869  0.0567  0.0526 -0.4100
  120MOL   O11528913   2.874   0.637   1.817  0.4411  0.1783 -0.1313
  120MOL   H11628914   2.827   0.690   1.552 -1.8663 -0.1703 -1.3106
  120MOL   H11728915   2.761   0.579   1.440 -2.3265  1.1330  2.1068
  120MOL   H11828916   2.953   0.490   1.643 -0.5004  0.0656  1.2034
  120MOL   H11928917   2.569   0.662   1.818  0.7438  1.4908  0.2991
  120MOL   H12028918   2.677   0.652   1.959 -0.3026 -1.1698  0.4391
  120MOL   H12128919   2.607   0.503   1.902  1.3588 -0.7378 -1.2466
  120MOL   C12228920   2.834   0.335   1.526 -0.2613  0.9047 -0.0937
  120MOL   C12328921   2.894   0.228   1.613 -0.0444 -0.0767  0.7067
  120MOL   O12428922   2.817   0.225   1.729 -0.6864 -0.2425  0.1669
  120MOL   C12528923   2.874   0.256   1.851 -0.8319  0.7624  0.6736
  120MOL   C12628924   2.770   0.246   1.962 -0.6189  0.3015  0.3629
  120MOL   O12728925   2.997   0.272   1.876  0.2001 -0.1005 -0.1104
  120MOL   H12828926   2.728   0.315   1.512 -0.3212  0.6532  0.6807
  120MOL   H12928927   2.888   0.332   1.431 -1.7272 -1.7369 -0.9034
  120MOL   H13028928   3.003   0.232   1.622  0.0943  1.0591 -1.3842
  120MOL   H13128929   2.802   0.168   2.031  0.7397 -0.5317 -1.1553
  120MOL   H13228930   2.671   0.226   1.921 -0.9940  2.8135 -0.0679
  120MOL   H13328931   2.761   0.339   2.017  0.0973  0.9258 -0.5483
  120MOL   C13428932   2.886   0.091   1.550  0.3828  0.2969  0.0087
  120MOL   C13528933   2.974   0.057   1.422  0.0472 -0.4761 -1.0065
  120MOL   O13628934   3.107   0.090   1.452 -0.2237  1.1298  0.8886
  120MOL   C13728935   3.187   0.165   1.367 -0.1668  0.2686 -0.7628
  120MOL   C13828936   3.328   0.184   1.418 -0.4529  0.3335  0.2939
  120MOL   O13928937   3.150   0.215   1.261  0.0139 -0.1816  0.0502
  120MOL   H14028938   2.917   0.015   1.622 -1.7023 -2.3399 -1.7820
  120MOL   H14128939   2.780   0.068   1.536  0.2336  0.7473  0.3749
  120MOL   H14228940   2.933   0.123   1.346 -0.5199 -1.0698 -1.2141
  120MOL   H14328941   3.390   0.209   1.331  1.4593 -1.2227  1.1619
  120MOL   H14428942   3.365   0.085   1.445  0.1117  0.3945 -0.2309
  120MOL   H14528943   3.339   0.253   1.501  1.7121  1.0078 -0.5167
  120MOL   C14628944   2.965   7.938   1.365 -0.4766  0.4017  0.2448
  120MOL   C14728945   3.027   7.920   1.217 -0.7180 -0.3260 -0.7509
  120MOL   O14828946   3.029   7.778   1.214  1.0339  0.1732  0.0967
  120MOL   C14928947   3.141   7.718   1.156 -0.6843  0.2194  0.4701
  120MOL   C15028948   3.144   7.563   1.168  0.0582  0.2526  0.1081
  120MOL   O15128949   3.228   7.778   1.087  0.0336 -0.3122 -0.5341
  120MOL   H15228950   3.004   7.865   1.436  0.9705  0.2032 -0.7327
  120MOL   H15328951   2.858   7.919   1.361 -0.3949  0.0661 -0.4566
  120MOL   H15428952   3.129   7.958   1.219 -1.0151  0.4941 -1.0180
  120MOL   H15528953   3.165   7.544   1.273 -0.9323  0.0328  0.2719
  120MOL   H15628954   3.216   7.522   1.097 -0.3196 -1.3995  0.6480
  120MOL   H15728955   3.048   7.517   1.144  0.2707  0.4858 -1.2028
  120MOL   C15828956   2.936   7.968   1.097 -0.2348 -0.4122  0.4891
  120MOL   C15928957   2.983   7.962   0.948 -0.1310 -0.2795  0.7240
  120MOL   O16028958   2.870   7.998   0.867 -0.4978 -0.2078 -0.5359
  120MOL   C16128959   2.833   7.938   0.757 -0.1043  0.3915 -0.6407
  120MOL   C16228960   2.700   7.999   0.702  0.5809  0.7457 -0.2326
  120MOL   O16328961   2.888   7.842   0.698 -0.3792  0.1981  0.0032
  120MOL   H16428962   2.838   7.921   1.105  0.0352 -1.2683 -1.0623
  120MOL   H16528963   2.922   0.054   1.109 -1.0071 -0.3593 -0.8348
  120MOL   H16628964   2.995   7.856   0.928 -1.1482 -0.5895  1.6927
  120MOL   H16728965   2.650   0.034   0.781 -2.3338 -1.5994 -0.3275
  120MOL   H16828966   2.634   7.921   0.666  1.7685 -1.4085  2.1204
  120MOL   H16928967   2.723   0.045   0.619  2.0874  0.0548 -0.4005
  120MOL   C17028968   3.111   0.022   0.920 -0.3391 -0.2638  0.3312
  120MOL   C17128969   3.178   8.019   0.783  0.0716 -0.1386 -0.3082
  120MOL   O17228970   3.300   0.073   0.779 -0.4341 -0.2227  0.0682
  120MOL   C17328971   3.299   0.199   0.740  0.1399  0.6530  0.4548
  120MOL   C17428972   3.437   0.259   0.773  0.2088  0.0003 -0.1105
  120MOL   O17528973   3.203   0.257   0.705  0.0960 -0.2525  0.1634
  120MOL   H17628974   3.082   0.124   0.947  0.5772  0.0911  0.0022
  120MOL   H17728975   3.187   8.014   0.993  1.0028  1.6467 -0.2334
  120MOL   H17828976   3.105   0.012   0.704 -1.7687  0.6661  1.4844
  120MOL   H17928977   3.487   0.212   0.858  1.1549  0.2814 -0.5002
  120MOL   H18028978   3.444   0.364   0.801  0.9962 -0.0196 -0.2041
  120MOL   H18128979   3.486   0.260   0.675  0.9833  1.8062  0.2804
  120MOL   C18228980   3.227   7.870   0.778 -0.4108  0.8313 -0.1264
  120MOL   C18328981   3.298   7.813   0.652  0.6886 -0.0988 -0.3010
  120MOL   O18428982   3.392   7.910   0.611  0.3254  0.0476  0.7623
  120MOL   C18528983   3.407   7.939   0.480  0.2265 -0.5587 -0.1006
  120MOL   C18628984   3.505   0.033   0.461 -0.1596 -0.2816 -0.1363
  120MOL   O18728985   3.343   7.890   0.391  0.5770 -0.1374  0.6152
  120MOL   H18828986   3.295   7.853   0.861 -1.7491  1.1569  1.0608
  120MOL   H18928987   3.145   7.800   0.796  0.7300 -0.1372  1.4332
  120MOL   H19028988   3.214   7.813   0.583 -1.0760 -0.8455  1.7919
  120MOL   H19128989   3.545   0.035   0.360  0.4448 -4.2201 -0.0583
  120MOL   H19228990   3.587   0.016   0.531  1.1873 -0.7635 -1.7913
  120MOL   H19328991   3.469   0.134   0.479  1.9561  0.1317  2.1775
  120MOL   C19428992   3.347   7.668   0.654  0.3720 -0.4623  0.1095
  120MOL   C19528993   3.433   7.618   0.770  0.4614 -0.4407 -0.9195
  120MOL   O19628994   3.437   7.476   0.772  0.3829  0.2515 -0.5999
  120MOL   C19728995   3.439   7.401   0.891 -0.3878 -0.4306 -0.0554
  120MOL   C19828996   3.468   7.257   0.854  0.9186 -0.4738  0.1998
  120MOL   O19928997   3.431   7.437   1.004 -0.0079  0.6183  0.1975
  120MOL   H20028998   3.258   7.605   0.658  1.1157 -1.6174 -1.1974
  120MOL   H20128999   3.386   7.656   0.553  1.9905 -0.5208  0.7296
  120MOL   H20229000   3.396   7.670   0.859  0.3708 -1.6143 -0.2486
  120MOL   H20329001   3.570   7.230   0.882  1.0825 -0.4570 -0.3619
  120MOL   H20429002   3.451   7.237   0.748 -3.1024 -1.1547  0.9209
  120MOL   H20529003   3.397   7.193   0.905  0.8743  1.0936  2.1459
  120MOL   C20629004   3.573   7.675   0.748  0.3203  0.0287 -0.2539
  120MOL   C20729005   3.639   7.685   0.887 -0.5873  0.5365 -0.8401
  120MOL   O20829006   3.774   7.682   0.874 -0.1931 -0.4993  0.4266
  120MOL   C20929007   3.857   7.618   0.956  0.2522 -0.2892 -0.7079
  120MOL   C21029008   3.992   7.636   0.921 -0.8706  0.7832  1.1905
  120MOL   O21129009   3.816   7.551   1.051  0.1746 -0.0202 -0.3773
  120MOL   H21229010   3.634   7.611   0.685  3.6897  0.5142  2.3680
  120MOL   H21329011   3.579   7.768   0.691 -1.5358  2.1470  2.8503
  120MOL   H21429012   3.608   7.594   0.938  0.4586 -0.9002 -2.7511
  120MOL   H21529013   4.057   7.608   1.003  2.2528  2.2147 -0.6831
  120MOL   H21629014   4.022   7.736   0.893  0.4551  0.5454  1.7480
  120MOL   H21729015   4.008   7.572   0.834 -0.7215 -0.1470  1.8933
  120MOL   C21829016   3.596   7.821   0.958 -1.0747  0.5790  0.7255
  120MOL   C21929017   3.639   7.825   1.112 -0.2492  0.0872  0.2510
  120MOL   O22029018   3.645   7.962   1.158  0.6002  0.0531 -0.1327
  120MOL   C22129019   3.754   8.009   1.220 -0.2356  0.1299 -0.0817
  120MOL   C22229020   3.735   0.134   1.263 -0.3728  1.2555 -0.3436
  120MOL   O22329021   3.852   7.943   1.257 -0.1674 -0.1563  0.4027
  120MOL   H22429022   3.650   7.895   0.899 -1.9795 -0.6606 -1.7319
  120MOL   H22529023   3.488   7.835   0.945 -0.9204 -0.3972 -1.9128
  120MOL   H22629024   3.736   7.777   1.122 -1.1810 -1.8730  0.0236
  120MOL   H22729025   3.801   0.146   1.349  0.1823 -2.6705 -0.1557
  120MOL   H22829026   3.632   0.153   1.293  0.5961  1.7137  2.9648
  120MOL   H22929027   3.758   0.209   1.187 -0.2761  2.9054  1.2666
  120MOL   C23029028   3.534   7.753   1.205  0.3033 -0.4003 -0.1169
  120MOL   C23129029   3.580   7.746   1.352  0.4328 -0.2664  1.1493
  120MOL   O23229030   3.480   7.681   1.428 -0.3687  0.2354 -0.2516
  120MOL   C23329031   3.370   7.740   1.471  0.6959  0.1724 -0.0135
  120MOL   C23429032   3.287   7.649   1.560 -0.0960  0.0438 -0.3245
  120MOL   O23529033   3.332   7.853   1.444  0.2340 -0.2834  0.3050
  120MOL   H23629034   3.440   7.809   1.200  0.0089 -0.8416  0.3958
  120MOL   H23729035   3.526   7.653   1.161  1.9479 -0.0071 -1.3561
  120MOL   H23829036   3.600   7.849   1.382  0.5669  0.4572 -1.2566
  120MOL   H23929037   3.206   7.695   1.616 -0.8635 -1.1068 -0.4779
  120MOL   H24029038   3.357   7.608   1.633  2.7531  2.1358 -1.7859
  120MOL   H24129039   3.241   7.567   1.504 -1.8766  0.4651  0.4969
  120MOL   H24229040   3.678   7.699   1.364  0.5635 -0.0859  0.8003
  121MOL     C129041   2.595   6.750   0.036 -0.2064  0.6270 -0.1700
  121MOL     C229042   2.737   6.728   8.000  0.6169  0.1478  0.4540
  121MOL     O329043   2.748   6.611   7.923  0.3958 -0.2691  0.0731
  121MOL     C429044   2.809   6.504   7.982  0.3110 -0.0136  0.5373
  121MOL     C529045   2.817   6.387   7.885  0.3462  0.5867 -0.9625
  121MOL     O629046   2.835   6.497   0.081  0.3576 -0.6998 -0.4673
  121MOL     H729047   2.566   6.671   0.105  0.9428  1.5986  1.4432
  121MOL     H829048   2.536   6.737   7.966  0.4750  0.6151 -0.6064
  121MOL     H929049   2.805   6.718   0.063  0.0805 -1.0098  0.7588
  121MOL    H1029050   2.775   6.431   7.794  1.1732 -1.6054 -2.4506
  121MOL    H1129051   2.756   6.300   7.909 -1.0156  1.6847 -0.3748
  121MOL    H1229052   2.919   6.354   7.863 -0.7798 -2.5728 -1.7607
  121MOL    H1329053   2.581   6.844   0.089  2.6219  0.6177  0.6271
  121MOL    C1429054   2.781   6.840   7.908  0.1500  0.5276 -0.1330
  121MOL    C1529055   2.927   6.851   7.885 -0.1518 -0.0161  0.4248
  121MOL    O1629056   2.969   6.957   7.801  0.3691 -0.5104  0.0774
  121MOL    C1729057   2.948   6.949   7.669  0.5550  0.3166 -0.3528
  121MOL    C1829058   3.005   7.071   7.598  0.5257  0.0054  0.1845
  121MOL    O1929059   2.897   6.853   7.610 -0.1412  0.0003  0.7453
  121MOL    H2029060   2.722   6.829   7.817  0.2034 -2.5125  0.1546
  121MOL    H2129061   2.741   6.928   7.959  1.5190 -0.7093  3.2295
  121MOL    H2229062   2.946   6.761   7.827  1.3695 -1.1155  2.5930
  121MOL    H2329063   3.051   7.045   7.504 -0.3950 -0.4747 -0.1372
  121MOL    H2429064   3.092   7.106   7.653 -0.2500 -0.2786  1.6446
  121MOL    H2529065   2.930   7.150   7.586  0.7560  0.3165  0.7313
  121MOL    C2629066   3.017   6.845   8.010 -0.5476  0.0760  0.1736
  121MOL    C2729067   3.020   6.983   0.062 -0.5417  0.1234 -0.0350
  121MOL    O2829068   2.918   6.982   0.164 -0.1731 -0.1257 -0.3738
  121MOL    C2929069   2.861   7.097   0.204  0.3346 -0.1539 -0.3037
  121MOL    C3029070   2.742   7.073   0.301  0.0906  0.0472 -0.2742
  121MOL    O3129071   2.876   7.209   0.159 -0.0600  0.1669  0.3900
  121MOL    H3229072   3.002   6.761   0.057 -0.6239 -0.7523 -0.8588
  121MOL    H3329073   3.110   6.820   7.958 -1.5681 -2.4092 -0.5287
  121MOL    H3429074   3.000   7.064   8.014 -0.0228  1.0402  0.8722
  121MOL    H3529075   2.652   7.066   0.240  0.1231 -0.5768 -0.2630
  121MOL    H3629076   2.739   7.156   0.371 -1.1618 -0.0746 -0.1765
  121MOL    H3729077   2.768   6.981   0.354  1.2177 -0.2867 -1.3755
  121MOL    C3829078   3.152   7.005   0.127 -0.1395 -0.0458  0.0623
  121MOL    C3929079   3.195   7.149   0.142 -0.7220  0.9906 -0.0449
  121MOL    O4029080   3.328   7.166   0.174  0.6299 -0.4872 -0.2935
  121MOL    C4129081   3.365   7.165   0.301  0.3076 -0.2589 -0.3139
  121MOL    C4229082   3.522   7.168   0.312 -0.2963 -0.1877 -0.1448
  121MOL    O4329083   3.290   7.173   0.399  0.0627  0.0891  0.4924
  121MOL    H4429084   3.141   6.968   0.228  1.6745 -1.0114 -0.0724
  121MOL    H4529085   3.232   6.944   0.084 -0.2369 -1.1716  1.4492
  121MOL    H4629086   3.129   7.211   0.203 -2.4432  0.2724 -1.1297
  121MOL    H4729087   3.565   7.151   0.411  0.6604 -0.8131 -0.6600
  121MOL    H4829088   3.549   7.269   0.282 -1.1276 -0.4269 -1.7715
  121MOL    H4929089   3.559   7.100   0.235 -1.3938 -1.3160  0.3034
  121MOL    C5029090   3.183   7.220   0.001  0.5749 -0.6497  0.0607
  121MOL    C5129091   3.244   7.364   0.004 -0.0691  0.4961  0.2479
  121MOL    O5229092   3.246   7.398   7.885 -0.4173 -0.4963  0.2494
  121MOL    C5329093   3.372   7.390   7.823  0.4617 -0.3812  0.2510
  121MOL    C5429094   3.360   7.423   7.674  0.3248 -0.3447  0.0067
  121MOL    O5529095   3.480   7.359   7.877  0.9748  0.1640 -0.4743
  121MOL    H5629096   3.231   7.155   7.949 -1.7182  0.3099 -2.3958
  121MOL    H5729097   3.076   7.227   8.003  0.4791 -1.9282  0.0818
  121MOL    H5829098   3.340   7.385   0.052 -0.5300  2.0710  0.4860
  121MOL    H5929099   3.326   7.526   7.663 -3.2721 -1.3128  1.3367
  121MOL    H6029100   3.288   7.348   7.642  0.0933 -0.1289  0.0198
  121MOL    H6129101   3.456   7.401   7.626  1.2126  0.2799  1.4569
  121MOL    C6229102   3.151   7.464   0.091 -0.1473 -0.1101  0.2317
  121MOL    C6329103   3.203   7.520   0.227 -0.3244 -0.9013  0.4604
  121MOL    O6429104   3.321   7.587   0.193  0.2235  0.9729  0.2340
  121MOL    C6529105   3.433   7.567   0.268  0.0908  0.4692  0.4982
  121MOL    C6629106   3.557   7.633   0.207  0.2489  0.3846  0.2754
  121MOL    O6729107   3.445   7.486   0.361  0.4565  0.3224 -0.2990
  121MOL    H6829108   3.126   7.548   0.026  0.4992 -0.4512 -0.4809
  121MOL    H6929109   3.060   7.411   0.118  0.7791 -1.1403  1.3973
  121MOL    H7029110   3.225   7.441   0.298 -0.0066 -2.4487 -1.2967
  121MOL    H7129111   3.563   7.736   0.242 -1.0914  0.7265 -0.4523
  121MOL    H7229112   3.534   7.636   0.100 -0.8293  1.3582  0.5216
  121MOL    H7329113   3.652   7.582   0.223 -0.4213 -0.7876  0.5435
  121MOL    C7429114   3.102   7.619   0.292  0.0379 -0.2687 -1.0749
  121MOL    C7529115   2.988   7.562   0.371  0.5275 -0.3124  0.7119
  121MOL    O7629116   3.033   7.506   0.489 -0.2610  0.3140 -0.6568
  121MOL    C7729117   3.024   7.373   0.503  0.1989 -0.3221 -0.3233
  121MOL    C7829118   3.093   7.322   0.631  0.2557 -0.1560 -0.5296
  121MOL    O7929119   2.955   7.302   0.429  0.0781  0.0677  0.5635
  121MOL    H8029120   3.154   7.671   0.372 -2.9651 -0.8067  1.3211
  121MOL    H8129121   3.075   7.706   0.233  1.8234  0.8669 -0.2444
  121MOL    H8229122   2.938   7.496   0.301  1.2853  1.5769 -1.6538
  121MOL    H8329123   3.115   7.411   0.691  0.5304 -0.6033  0.0393
  121MOL    H8429124   3.182   7.271   0.595  1.3027  0.4889  1.0768
  121MOL    H8529125   3.031   7.241   0.670 -1.9158  0.8340 -1.8212
  121MOL    C8629126   2.878   7.662   0.403 -0.0512  0.1023  0.2267
  121MOL    C8729127   2.803   7.711   0.273  0.4626  0.7939  0.2674
  121MOL    O8829128   2.717   7.602   0.240  0.1377 -0.4202 -0.2076
  121MOL    C8929129   2.684   7.577   0.113 -0.2276  0.6379 -0.2290
  121MOL    C9029130   2.592   7.455   0.097 -0.5527  0.4275 -0.2070
  121MOL    O9129131   2.712   7.643   0.014  0.4437 -0.2303 -0.1259
  121MOL    H9229132   2.807   7.636   0.481 -1.0058  0.4896 -0.4877
  121MOL    H9329133   2.939   7.741   0.447  3.3087 -1.3453 -1.7121
  121MOL    H9429134   2.857   7.738   0.183 -0.3910 -0.6218 -0.6868
  121MOL    H9529135   2.485   7.476   0.109 -0.2515  2.0152 -0.1548
  121MOL    H9629136   2.620   7.379   0.170  0.9857  1.6145  0.4867
  121MOL    H9729137   2.593   7.422   8.015 -5.5337 -0.3025 -0.1648
  121MOL    C9829138   2.727   7.835   0.309  0.5351 -0.3209 -0.5464
  121MOL    C9929139   2.787   7.976   0.280  0.3532  0.0310  0.4298
  121MOL   O10029140   2.708   0.053   0.341  0.2643  0.4456 -0.2931
  121MOL   C10129141   2.632   0.128   0.265 -0.2126 -1.2827 -0.3480
  121MOL   C10229142   2.544   0.220   0.351 -0.5303 -0.4533  0.0129
  121MOL   O10329143   2.617   0.128   0.144 -0.2317 -0.3013 -0.0845
  121MOL   H10429144   2.632   7.846   0.257  0.5714  1.1839 -0.3410
  121MOL   H10529145   2.693   7.824   0.412  3.6515 -0.3564  0.5425
  121MOL   H10629146   2.791   7.997   0.173 -0.8319  0.5616  0.4858
  121MOL   H10729147   2.474   0.156   0.405  0.8114 -0.5765  1.6358
  121MOL   H10829148   2.494   0.285   0.279  0.9524 -0.4657 -1.0568
  121MOL   H10929149   2.609   0.289   0.404 -2.5900  0.4418  1.4325
  121MOL   C11029150   2.932   7.989   0.341 -0.0538  1.0323  0.3482
  121MOL   C11129151   3.001   0.104   0.317  0.3910  0.2216  0.8355
  121MOL   O11229152   2.992   0.176   0.438  0.0009  0.2634 -0.1297
  121MOL   C11329153   2.927   0.293   0.445  0.4216  0.5412  0.2810
  121MOL   C11429154   2.935   0.347   0.582 -0.5118  0.5300 -0.7889
  121MOL   O11529155   2.856   0.342   0.357  0.0494 -0.0372 -0.5494
  121MOL   H11629156   2.929   7.954   0.444  0.1632 -0.0036  0.0091
  121MOL   H11729157   3.002   7.917   0.297 -1.2517  0.9839 -1.5467
  121MOL   H11829158   2.957   0.145   0.226  1.6738 -0.5804 -0.1608
  121MOL   H11929159   2.953   0.266   0.652  0.7039  1.1938 -0.3226
  121MOL   H12029160   2.847   0.403   0.616  0.5825  0.5583  2.1606
  121MOL   H12129161   3.024   0.409   0.589  0.5228 -0.5312 -3.9392
  121MOL   C12229162   3.151   0.085   0.289  0.7305  0.1399  0.8323
  121MOL   C12329163   3.219   0.219   0.241  0.0826 -0.0844  0.3464
  121MOL   O12429164   3.297   0.282   0.342 -0.1770  0.0544 -0.0208
  121MOL   C12529165   3.310   0.416   0.338 -0.1341  0.6612  0.3371
  121MOL   C12629166   3.394   0.454   0.455  0.5635 -0.2874 -0.5984
  121MOL   O12729167   3.259   0.500   0.264  0.5407 -0.2790  0.1547
  121MOL   H12829168   3.200   0.050   0.380  1.6039  0.7234  0.5972
  121MOL   H12929169   3.169   0.014   0.208  1.4251  0.3828  0.7663
  121MOL   H13029170   3.137   0.281   0.202  1.4024  2.7131  1.9148
  121MOL   H13129171   3.502   0.440   0.448  0.5302  0.0693 -1.9585
  121MOL   H13229172   3.372   0.376   0.528 -1.0174 -0.0667 -0.8259
  121MOL   H13329173   3.375   0.550   0.505 -1.5014 -2.3155  2.7131
  121MOL   C13429174   3.321   0.198   0.125 -0.2466 -0.3698 -0.2563
  121MOL   C13529175   3.256   0.167   8.007  0.1923 -0.3556  0.1748
  121MOL   O13629176   3.150   0.256   7.987  0.0136 -0.2513 -0.2222
  121MOL   C13729177   3.026   0.207   7.968 -0.5965  0.1134  0.4509
  121MOL   C13829178   2.922   0.314   7.957 -0.2319 -0.3641  0.0728
  121MOL   O13929179   2.989   0.089   7.965 -0.3198  0.1240  0.2138
  121MOL   H14029180   3.379   0.288   0.107 -0.8265  0.1260  0.3112
  121MOL   H14129181   3.388   0.116   0.150  0.5879  0.1986 -0.6446
  121MOL   H14229182   3.221   0.064   8.007  0.3222 -0.4107 -0.8545
  121MOL   H14329183   2.880   0.333   0.034 -0.0280 -2.8119  0.6707
  121MOL   H14429184   2.834   0.291   7.897  0.3333 -1.3504 -0.3999
  121MOL   H14529185   2.958   0.411   7.924 -0.5089 -0.0144  0.8081
  121MOL   C14629186   3.366   0.187   7.900  0.5055 -0.5675 -0.8867
  121MOL   C14729187   3.480   0.082   7.900  0.3030  0.2591 -0.3575
  121MOL   O14829188   3.425   7.972   7.876  0.5074  0.4539 -0.0987
  121MOL   C14929189   3.403   7.884   7.971  0.1253  0.1845 -0.5707
  121MOL   C15029190   3.357   7.748   7.922 -0.5888 -0.5206 -0.7661
  121MOL   O15129191   3.415   7.911   0.068 -0.7355 -0.4158  0.2599
  121MOL   H15229192   3.322   0.182   7.800 -1.8615  2.2970 -0.0541
  121MOL   H15329193   3.414   0.284   7.909  1.9924 -1.5000  1.6421
  121MOL   H15429194   3.526   0.087   7.999  1.5250  1.4630 -0.9666
  121MOL   H15529195   3.438   7.676   7.917  1.7410  2.0475 -1.0481
  121MOL   H15629196   3.318   7.762   7.822  0.0770  1.5410 -0.7710
  121MOL   H15729197   3.277   7.709   7.986 -0.5748  0.3050 -0.2346
  121MOL   C15829198   3.584   0.110   7.791 -0.5226 -0.5167  0.3833
  121MOL   C15929199   3.661   0.247   7.801  0.2086  0.5169 -0.2247
  121MOL   O16029200   3.762   0.245   7.903 -0.0231  0.1454 -0.0180
  121MOL   C16129201   3.741   0.293   0.005 -0.2199 -0.0047 -0.0630
  121MOL   C16229202   3.861   0.287   0.088  0.1081 -0.3700 -0.5877
  121MOL   O16329203   3.634   0.334   0.055 -0.2187  0.2017 -0.1389
  121MOL   H16429204   3.665   0.036   7.792 -0.4347 -0.4199  0.2312
  121MOL   H16529205   3.530   0.100   7.697 -2.0588 -0.4819  1.2474
  121MOL   H16629206   3.593   0.332   7.812 -1.3191 -0.1785 -3.7251
  121MOL   H16729207   3.929   0.215   0.043  2.5092  0.5769  1.4432
  121MOL   H16829208   3.834   0.258   0.190 -0.8760  0.5959 -0.5667
  121MOL   H16929209   3.902   0.387   0.090 -0.9909  0.1185 -1.8468
  121MOL   C17029210   3.745   0.269   7.673 -0.5162  0.2999 -0.1512
  121MOL   C17129211   3.801   0.413   7.650  0.4749  0.1269  0.7347
  121MOL   O17229212   3.903   0.450   7.742  0.3305  0.2417  0.0382
  121MOL   C17329213   3.912   0.580   7.782 -0.2098 -0.1753 -0.6152
  121MOL   C17429214   4.034   0.611   7.865  0.1525 -0.1643  0.2426
  121MOL   O17529215   3.825   0.667   7.764  0.3165  0.4530 -0.0175
  121MOL   H17629216   3.826   0.197   7.664 -1.0532 -0.1935 -1.0955
  121MOL   H17729217   3.682   0.243   7.589  0.8850 -1.7093 -0.6188
  121MOL   H17829218   3.715   0.479   7.649 -0.0875 -0.6008 -0.3010
  121MOL   H17929219   4.110   0.536   7.846 -0.2337 -0.6204  0.5038
  121MOL   H18029220   4.004   0.621   7.969 -1.8361  0.6028 -0.3836
  121MOL   H18129221   4.086   0.706   7.848 -0.0680 -0.0921 -0.0407
  121MOL   C18229222   3.875   0.403   7.511 -0.5332 -0.2708 -0.6662
  121MOL   C18329223   3.925   0.545   7.456  0.2376 -0.1869 -0.2283
  121MOL   O18429224   3.975   0.533   7.329 -0.5991 -0.0361 -0.1381
  121MOL   C18529225   4.111   0.523   7.308  0.1917  0.0038  0.4524
  121MOL   C18629226   4.148   0.527   7.159 -0.1560  0.2727  0.3096
  121MOL   O18729227   4.186   0.517   7.402 -0.1806 -0.3248 -0.0634
  121MOL   H18829228   3.959   0.333   7.513  0.1915  0.6382  0.7791
  121MOL   H18929229   3.811   0.366   7.430  0.8661 -0.5437 -1.6665
  121MOL   H19029230   3.982   0.591   7.536 -1.9849  1.2305  0.5911
  121MOL   H19129231   4.063   0.530   7.092 -0.6593 -0.9309  0.8644
  121MOL   H19229232   4.209   0.437   7.144  0.5744  0.5599  1.4498
  121MOL   H19329233   4.208   0.617   7.146  0.8132 -0.8015 -3.0635
  121MOL   C19429234   3.802   0.642   7.442  0.4719 -0.2586 -0.1480
  121MOL   C19529235   3.832   0.792   7.409 -0.2280 -0.4713 -0.5828
  121MOL   O19629236   3.881   0.801   7.276 -0.0598  0.2334 -0.0079
  121MOL   C19729237   3.961   0.905   7.236 -0.2047 -0.5611  0.6242
  121MOL   C19829238   3.985   0.895   7.086  0.6379  0.8517  0.6429
  121MOL   O19929239   4.000   1.000   7.299  0.4205 -0.2115  0.4965
  121MOL   H20029240   3.730   0.601   7.371  0.5769  0.6421 -0.7746
  121MOL   H20129241   3.741   0.650   7.532  0.8352  1.3627 -0.0422
  121MOL   H20229242   3.915   0.825   7.472 -1.7726 -2.1177  2.4371
  121MOL   H20329243   3.933   0.976   7.034 -1.8491  1.0228  3.2568
  121MOL   H20429244   3.956   0.804   7.033  0.1852  1.9115 -0.9973
  121MOL   H20529245   4.093   0.898   7.073  0.6900 -1.4606  0.3911
  121MOL   C20629246   3.713   0.884   7.419  0.7602  0.5933 -0.6427
  121MOL   C20729247   3.679   0.922   7.557  0.1972  0.2498  1.1420
  121MOL   O20829248   3.748   1.041   7.571 -0.0166 -0.2639 -0.3971
  121MOL   C20929249   3.837   1.060   7.664  0.3022 -0.2621  0.1463
  121MOL   C21029250   3.881   1.197   7.663 -0.0230 -0.0200 -0.3316
  121MOL   O21129251   3.888   0.977   7.730  0.2897 -0.2593 -0.3341
  121MOL   H21229252   3.726   0.969   7.352  2.4676  1.5351  0.8493
  121MOL   H21329253   3.633   0.829   7.368  0.6056 -0.3811  0.6244
  121MOL   H21429254   3.716   0.841   7.619 -0.6063  0.2496  1.6248
  121MOL   H21529255   3.963   1.221   7.731 -1.0164  0.8722  0.5711
  121MOL   H21629256   3.799   1.254   7.705 -1.0656 -0.4728 -1.7197
  121MOL   H21729257   3.911   1.237   7.566 -0.5344  0.5009 -0.2717
  121MOL   C21829258   3.537   0.952   7.586 -0.5114 -0.1536 -0.9459
  121MOL   C21929259   3.434   0.841   7.601 -0.0496 -0.0582  0.4478
  121MOL   O22029260   3.455   0.787   7.731  0.6784  0.2130  0.0357
  121MOL   C22129261   3.497   0.660   7.730  0.0208 -0.0231  0.0858
  121MOL   C22229262   3.504   0.606   7.871  0.1812 -0.0074 -0.5022
  121MOL   O22329263   3.505   0.580   7.632 -0.4514 -0.8074  0.5072
  121MOL   H22429264   3.527   1.010   7.678  0.3313  0.0874 -1.0061
  121MOL   H22529265   3.499   1.026   7.516 -1.8220  1.2594  1.1956
  121MOL   H22629266   3.443   0.768   7.521  2.4364 -0.4642  1.0427
  121MOL   H22729267   3.601   0.556   7.879  0.9520  1.5255 -0.0775
  121MOL   H22829268   3.413   0.546   7.881 -0.1367  0.6926  0.9928
  121MOL   H22929269   3.510   0.687   7.943  2.8036 -0.2855 -0.3476
  121MOL   C23029270   3.293   0.898   7.589  0.1557  0.1398  0.1930
  121MOL   C23129271   3.178   0.795   7.576  0.4381 -0.2290 -0.7459
  121MOL   O23229272   3.054   0.857   7.548 -0.0875 -0.3975  0.0540
  121MOL   C23329273   3.005   0.865   7.421 -0.0578  0.6490 -0.3302
  121MOL   C23429274   2.882   0.943   7.407 -0.7729  0.0724 -0.2231
  121MOL   O23529275   3.066   0.821   7.325  0.1669  0.2022  0.2740
  121MOL   H23629276   3.272   0.962   7.675  0.2756  1.6139 -0.8682
  121MOL   H23729277   3.280   0.971   7.509  0.9344 -0.0153 -0.0721
  121MOL   H23829278   3.167   0.749   7.674  0.6591  2.1996  0.4525
  121MOL   H23929279   2.800   0.874   7.426  0.3112 -0.9772  0.7331
  121MOL   H24029280   2.884   0.964   7.300 -0.0861 -2.1203 -0.6591
  121MOL   H24129281   2.881   1.030   7.474  1.9498 -0.2376  0.2794
  121MOL   H24229282   3.207   0.719   7.503 -1.4879 -1.7385  0.0108
  122MOL     C129283   1.947   6.652   7.006 -0.2576  0.4452  0.9930
  122MOL     C229284   2.015   6.517   7.036  0.2604  0.4884 -0.2117
  122MOL     O329285   2.052   6.512   7.170 -0.6814  0.0564 -0.7293
  122MOL     C429286   2.178   6.556   7.203 -0.9508  0.0653  0.6939
  122MOL     C529287   2.193   6.552   7.352  0.2813  0.1673 -0.1668
  122MOL     O629288   2.269   6.587   7.133 -0.0099  0.0593  0.0492
  122MOL     H729289   2.012   6.739   7.013  0.3361  0.0745  0.1391
  122MOL     H829290   1.865   6.670   7.076 -1.0876 -0.6912  0.3178
  122MOL     H929291   2.101   6.505   6.971  0.2617  3.4661 -0.8167
  122MOL    H1029292   2.151   6.650   7.377  1.7963  0.5192  1.0589
  122MOL    H1129293   2.295   6.557   7.390  0.6269  0.0128 -1.0692
  122MOL    H1229294   2.136   6.470   7.395 -0.1803 -0.1938 -1.4350
  122MOL    H1329295   1.909   6.654   6.904 -2.1767 -0.0463  1.6648
  122MOL    C1429296   1.916   6.407   7.022 -0.3264  0.0547  0.7523
  122MOL    C1529297   1.830   6.400   6.901  0.1451 -0.1702 -0.3400
  122MOL    O1629298   1.915   6.412   6.783  0.1780 -0.5855  0.0197
  122MOL    C1729299   1.872   6.484   6.669  0.8593  1.1235  0.5164
  122MOL    C1829300   1.954   6.457   6.550  0.3055  0.1096 -0.3501
  122MOL    O1929301   1.769   6.545   6.658  0.3005 -0.5798  0.0868
  122MOL    H2029302   1.975   6.315   7.033 -3.7229 -2.3109  0.0742
  122MOL    H2129303   1.847   6.401   7.106  0.9676  3.5572  2.1452
  122MOL    H2229304   1.760   6.482   6.919 -0.3816 -1.0569  1.8049
  122MOL    H2329305   2.011   6.548   6.530 -2.4672  2.2076  0.8015
  122MOL    H2429306   1.905   6.412   6.464 -0.0829 -1.0336  0.4622
  122MOL    H2529307   2.030   6.384   6.575  2.7611  1.7206 -2.8280
  122MOL    C2629308   1.755   6.264   6.904 -0.6191 -0.0340 -0.2677
  122MOL    C2729309   1.634   6.249   6.807  0.1634 -0.1583 -0.5365
  122MOL    O2829310   1.555   6.138   6.855  0.7043 -0.8533  0.1559
  122MOL    C2929311   1.586   6.016   6.815 -0.6201  0.0420 -0.1562
  122MOL    C3029312   1.511   5.904   6.898  0.3111 -0.1860  0.4389
  122MOL    O3129313   1.659   5.987   6.720  0.3519 -0.2320  0.2211
  122MOL    H3229314   1.821   6.180   6.883 -1.5114 -0.9853  0.6588
  122MOL    H3329315   1.714   6.247   7.004 -1.5885  2.8225 -0.1522
  122MOL    H3429316   1.665   6.230   6.705 -2.4797 -1.3190 -1.1677
  122MOL    H3529317   1.439   5.948   6.966 -0.1960  1.2109 -0.9659
  122MOL    H3629318   1.584   5.834   6.938  1.2970 -0.0078 -0.9816
  122MOL    H3729319   1.452   5.846   6.826 -0.7402  2.4591 -0.9010
  122MOL    C3829320   1.540   6.372   6.814 -0.2816 -0.6662 -0.6481
  122MOL    C3929321   1.400   6.362   6.740 -0.3027 -0.4121  0.5166
  122MOL    O4029322   1.323   6.474   6.774  0.5187  0.3408 -0.1933
  122MOL    C4129323   1.191   6.465   6.761 -0.9598 -0.1178 -0.0273
  122MOL    C4229324   1.110   6.588   6.809  0.8664  0.4185 -0.1269
  122MOL    O4329325   1.131   6.367   6.729 -0.3161 -0.4727 -0.0297
  122MOL    H4429326   1.506   6.391   6.916  0.8316  0.5147 -0.4855
  122MOL    H4529327   1.598   6.458   6.781  1.5658 -1.0691  1.3840
  122MOL    H4629328   1.339   6.280   6.777 -1.3914  0.5338  0.8346
  122MOL    H4729329   1.146   6.637   6.900 -0.3529  1.2740 -0.0970
  122MOL    H4829330   1.007   6.555   6.823  0.7197  1.2982  1.0156
  122MOL    H4929331   1.112   6.659   6.727 -0.0550 -0.5187 -0.9669
  122MOL    C5029332   1.420   6.365   6.584 -0.0732 -1.0032 -0.4956
  122MOL    C5129333   1.420   6.229   6.509  0.4037 -0.1318 -0.5488
  122MOL    O5229334   1.547   6.175   6.514 -0.0765  0.3650 -0.9011
  122MOL    C5329335   1.630   6.180   6.405  0.3341  0.8168  0.4985
  122MOL    C5429336   1.765   6.110   6.420 -1.0496  0.2399  0.0501
  122MOL    O5529337   1.590   6.222   6.296  0.0096  0.5255 -0.9904
  122MOL    H5629338   1.329   6.406   6.541 -0.3759 -1.2041 -0.0465
  122MOL    H5729339   1.507   6.427   6.561 -0.2342 -1.1821 -1.6060
  122MOL    H5829340   1.391   6.245   6.406  1.8532  1.8110 -0.6718
  122MOL    H5929341   1.765   6.014   6.369 -1.7571  1.1023 -1.6363
  122MOL    H6029342   1.784   6.076   6.521  1.6820 -1.7638 -1.0869
  122MOL    H6129343   1.837   6.183   6.383 -0.2757 -0.9784 -0.8844
  122MOL    C6229344   1.325   6.118   6.555 -0.2202 -0.1158 -0.8397
  122MOL    C6329345   1.280   6.023   6.442  0.2306  0.3207 -0.3075
  122MOL    O6429346   1.389   5.947   6.382 -0.0542  0.5998  0.0824
  122MOL    C6529347   1.380   5.894   6.259 -0.0849 -0.2807 -0.1442
  122MOL    C6629348   1.509   5.822   6.227  0.2206  0.3984 -0.4071
  122MOL    O6729349   1.282   5.898   6.180  0.1026  0.3434  0.0059
  122MOL    H6829350   1.369   6.060   6.636  1.1605 -1.9994 -2.8341
  122MOL    H6929351   1.241   6.174   6.594  1.4519  2.0633 -0.2346
  122MOL    H7029352   1.230   6.087   6.369 -1.5091  0.6159  1.1192
  122MOL    H7129353   1.534   5.749   6.304  1.5605  0.8749 -0.3681
  122MOL    H7229354   1.579   5.905   6.236 -1.0896  1.5456 -0.7799
  122MOL    H7329355   1.515   5.792   6.122  1.6037  0.8155 -0.4599
  122MOL    C7429356   1.178   5.922   6.507  0.4140  0.5359  0.1488
  122MOL    C7529357   1.042   5.984   6.532 -0.7324 -0.5209 -0.1080
  122MOL    O7629358   0.986   5.979   6.400  0.1328  0.3314  0.0618
  122MOL    C7729359   0.978   6.085   6.326 -0.4340 -0.9700  0.2839
  122MOL    C7829360   0.918   6.053   6.192 -0.2743 -0.0503  0.3024
  122MOL    O7929361   1.030   6.199   6.350  0.1180  0.2104 -0.6730
  122MOL    H8029362   1.167   5.840   6.437  1.7304  0.7655 -0.3463
  122MOL    H8129363   1.224   5.883   6.598  1.9104 -0.8735 -1.1993
  122MOL    H8229364   1.047   6.087   6.567  0.4319 -0.2743 -0.9570
  122MOL    H8329365   0.825   6.109   6.190 -0.8357 -1.0306 -0.7790
  122MOL    H8429366   0.895   5.948   6.175 -1.2372  0.6697 -3.1756
  122MOL    H8529367   0.971   6.092   6.105  0.0249  0.8549  0.8792
  122MOL    C8629368   0.938   5.906   6.611  0.1236  0.9657 -0.2358
  122MOL    C8729369   0.912   5.954   6.756  0.1654  0.1241  0.2138
  122MOL    O8829370   0.817   5.858   6.812  0.6500  0.6337 -0.0775
  122MOL    C8929371   0.700   5.896   6.875 -0.1958  0.4608  0.2274
  122MOL    C9029372   0.618   5.784   6.921  0.2251 -0.1603 -0.0679
  122MOL    O9129373   0.669   6.015   6.895  0.2867 -0.1241  0.3818
  122MOL    H9229374   0.837   5.916   6.571  0.1686 -0.0011 -0.6143
  122MOL    H9329375   0.960   5.799   6.609 -0.3539  0.7722  2.6182
  122MOL    H9429376   0.882   6.058   6.756 -0.0424  0.0696 -0.4222
  122MOL    H9529377   0.519   5.827   6.936  0.5143 -0.2628  2.3580
  122MOL    H9629378   0.659   5.730   7.006 -1.6630  0.5326  1.3099
  122MOL    H9729379   0.605   5.702   6.850  0.5468  0.2289 -0.5775
  122MOL    C9829380   1.037   5.941   6.845  0.0502 -0.0768  0.4286
  122MOL    C9929381   1.017   5.994   6.991  0.2094  0.2529 -0.0169
  122MOL   O10029382   1.143   5.972   7.055 -0.0658 -0.3269 -0.2094
  122MOL   C10129383   1.165   5.848   7.123 -0.0663 -0.0057  0.2945
  122MOL   C10229384   1.307   5.832   7.181 -0.6629  0.1572 -0.2870
  122MOL   O10329385   1.083   5.759   7.123  0.0067  0.0814 -0.0504
  122MOL   H10429386   1.072   5.838   6.838  0.5418  0.1500 -0.6051
  122MOL   H10529387   1.123   5.985   6.794 -0.5374 -3.9293 -4.3171
  122MOL   H10629388   0.932   5.944   7.037  1.3268 -2.4005 -0.7958
  122MOL   H10729389   1.359   5.927   7.191  1.6069 -0.8700 -1.8346
  122MOL   H10829390   1.353   5.749   7.127 -3.6426 -2.2439  0.7127
  122MOL   H10929391   1.285   5.796   7.282  1.0320 -0.2321 -0.0313
  122MOL   C11029392   1.006   6.147   7.003 -0.3636  0.6402 -0.9003
  122MOL   C11129393   1.008   6.209   7.151  0.4212 -0.0141  0.7039
  122MOL   O11229394   0.974   6.355   7.156  0.4670  0.7857  0.6435
  122MOL   C11329395   1.067   6.448   7.146  0.1307  0.4931 -0.1555
  122MOL   C11429396   1.009   6.590   7.151  0.1954  0.2349  0.1876
  122MOL   O11529397   1.183   6.433   7.113 -0.7737  0.2921  0.6758
  122MOL   H11629398   1.086   6.188   6.941  1.0291 -0.4287  0.1545
  122MOL   H11729399   0.917   6.181   6.951  1.5360 -0.3314 -4.9518
  122MOL   H11829400   1.112   6.198   7.179  0.5244 -2.4850 -0.5377
  122MOL   H11929401   1.061   6.657   7.219 -1.3068  2.0160 -0.3800
  122MOL   H12029402   0.901   6.578   7.158  0.0530 -0.1699 -2.1431
  122MOL   H12129403   1.031   6.636   7.054  0.0840  2.0657  1.0143
  122MOL   C12229404   0.929   6.136   7.262  0.4423  0.2255  0.0975
  122MOL   C12329405   0.785   6.183   7.284 -0.0990  0.5313  0.4624
  122MOL   O12429406   0.699   6.187   7.171  0.0915 -0.1954 -0.4084
  122MOL   C12529407   0.610   6.287   7.163  0.8450 -0.3610 -0.0009
  122MOL   C12629408   0.541   6.297   7.022  0.5034  0.5292 -0.1853
  122MOL   O12729409   0.582   6.368   7.249  0.3068 -0.0141  0.2382
  122MOL   H12829410   0.934   6.028   7.252 -3.0619  0.0874 -0.8255
  122MOL   H12929411   0.974   6.149   7.361  1.0028  0.7462 -0.2213
  122MOL   H13029412   0.803   6.283   7.323  0.2255  0.1905  1.1955
  122MOL   H13129413   0.622   6.311   6.951  0.3173 -0.9828 -0.7158
  122MOL   H13229414   0.473   6.381   7.010 -1.2272 -0.9760 -1.1409
  122MOL   H13329415   0.491   6.201   7.006  0.4947  0.3333  0.9365
  122MOL   C13429416   0.705   6.104   7.391 -0.0312  1.1140 -0.4720
  122MOL   C13529417   0.767   6.116   7.535 -0.2338 -0.4508 -0.2000
  122MOL   O13629418   0.700   6.232   7.575  0.3694  0.5247 -1.2082
  122MOL   C13729419   0.772   6.345   7.608  0.7571 -0.9767 -0.1903
  122MOL   C13829420   0.692   6.454   7.674 -0.5129 -0.1332  0.1021
  122MOL   O13929421   0.892   6.364   7.581  0.1134  0.5199  0.3680
  122MOL   H14029422   0.600   6.132   7.399 -0.3999 -0.8328  2.0182
  122MOL   H14129423   0.695   6.000   7.362 -1.2901  0.8138  0.9880
  122MOL   H14229424   0.871   6.147   7.541 -0.9051  1.4779  2.8073
  122MOL   H14329425   0.595   6.448   7.625 -0.3285  3.1739 -0.7840
  122MOL   H14429426   0.732   6.556   7.670 -0.0062 -0.2635  1.3536
  122MOL   H14529427   0.683   6.425   7.779  0.4722  1.8718  0.7763
  122MOL   C14629428   0.732   5.987   7.627 -0.2375  0.2851  0.9353
  122MOL   C14729429   0.816   5.864   7.619 -0.1346  0.1281  0.5968
  122MOL   O14829430   0.830   5.823   7.479  0.0983  0.2020  0.0491
  122MOL   C14929431   0.789   5.699   7.441 -0.3587  0.3559  1.0225
  122MOL   C15029432   0.781   5.694   7.289  0.4847  0.6525 -0.2765
  122MOL   O15129433   0.761   5.602   7.512  0.3786 -0.4187 -0.0105
  122MOL   H15229434   0.730   6.031   7.727 -3.4579  0.9280  0.6628
  122MOL   H15329435   0.630   5.950   7.619 -0.8646  1.6575  2.2503
  122MOL   H15429436   0.777   5.784   7.681  0.8495  0.2433  1.3678
  122MOL   H15529437   0.822   5.603   7.246 -0.0288  0.7269 -0.9487
  122MOL   H15629438   0.834   5.779   7.246  0.7244  1.7083  2.0446
  122MOL   H15729439   0.674   5.697   7.264  0.2917  0.0111  0.4807
  122MOL   C15829440   0.955   5.891   7.671  0.1012  0.6513  0.5055
  122MOL   C15929441   0.957   5.919   7.824 -0.2693 -0.5883  0.2749
  122MOL   O16029442   0.925   5.801   7.895  0.6519 -0.1266  0.4087
  122MOL   C16129443   0.855   5.813   8.004  0.2848  1.0261  0.1063
  122MOL   C16229444   0.822   5.686   0.049 -0.0273 -0.2273 -0.5387
  122MOL   O16329445   0.821   5.920   0.039 -0.5381 -0.6708  0.2054
  122MOL   H16429446   1.018   5.805   7.647  0.5396  0.7721  1.2023
  122MOL   H16529447   0.996   5.971   7.609 -0.5228 -0.4145 -1.3026
  122MOL   H16629448   0.892   6.004   7.847  1.3606  1.3504 -1.9750
  122MOL   H16729449   0.770   5.627   7.995 -0.2142  0.6605 -1.1157
  122MOL   H16829450   0.757   5.689   0.136  1.1088  0.8245  0.2858
  122MOL   H16929451   0.918   5.638   0.066  1.4678  2.4515 -1.1638
  122MOL   C17029452   1.103   5.952   7.867 -1.4090 -0.3664  0.4598
  122MOL   C17129453   1.129   6.104   7.892  0.1354  0.8293  0.9553
  122MOL   O17229454   1.056   6.146   8.002 -0.6349 -0.9918 -0.1100
  122MOL   C17329455   0.950   6.218   7.992 -0.7740  0.5003  0.9092
  122MOL   C17429456   0.874   6.231   0.106 -1.1045 -0.0343  1.0363
  122MOL   O17529457   0.920   6.282   7.895  0.4363 -0.0642 -0.4465
  122MOL   H17629458   1.129   5.892   7.954  3.5036 -0.7184 -1.0858
  122MOL   H17729459   1.172   5.914   7.791 -0.6013 -0.7601  1.3789
  122MOL   H17829460   1.114   6.166   7.803  0.8478 -1.5300 -0.8599
  122MOL   H17929461   0.774   6.269   0.085 -1.3365 -1.8847 -1.4696
  122MOL   H18029462   0.936   6.282   0.179  1.3319  1.5545 -2.0449
  122MOL   H18129463   0.853   6.134   0.153 -0.1627 -0.1949  1.1319
  122MOL   C18229464   1.283   6.121   7.910 -0.0091  0.2900 -0.3498
  122MOL   C18329465   1.365   6.123   7.788 -0.6811  0.5023  0.9346
  122MOL   O18429466   1.345   6.244   7.704 -0.4278 -0.1612  0.5327
  122MOL   C18529467   1.274   6.232   7.596 -0.8107 -1.1197  0.4006
  122MOL   C18629468   1.242   6.366   7.531 -0.1559 -0.2924  0.2890
  122MOL   O18729469   1.234   6.125   7.553  0.4898  0.1198  0.3007
  122MOL   H18829470   1.309   6.216   7.956 -1.0014  0.4954 -0.2022
  122MOL   H18929471   1.312   6.045   7.983  0.2486 -1.1533 -1.9329
  122MOL   H19029472   1.334   6.030   7.739  0.8060  1.5859 -2.2142
  122MOL   H19129473   1.273   6.451   7.592 -2.4535  0.5552  0.3186
  122MOL   H19229474   1.135   6.375   7.516 -0.3171 -1.5692  0.6834
  122MOL   H19329475   1.292   6.383   7.435  1.0277 -3.3040  0.3219
  122MOL   C19429476   1.511   6.099   7.817  0.2250 -0.3917 -0.4905
  122MOL   C19529477   1.552   5.956   7.856  0.1030 -0.4547 -0.0266
  122MOL   O19629478   1.507   5.857   7.757 -0.4831  0.0942  0.1122
  122MOL   C19729479   1.433   5.757   7.796 -0.0183  0.1056  0.3244
  122MOL   C19829480   1.415   5.654   7.682 -0.2807  0.1272 -0.0557
  122MOL   O19929481   1.369   5.741   7.896  0.5969  0.1719 -0.1730
  122MOL   H20029482   1.568   6.119   7.727 -1.5043 -0.8429 -1.7081
  122MOL   H20129483   1.549   6.177   7.883  0.4016  1.6291 -2.9174
  122MOL   H20229484   1.499   5.956   7.951 -0.6519  2.2904 -0.3912
  122MOL   H20329485   1.418   5.701   7.584 -4.3371  0.5712 -0.0439
  122MOL   H20429486   1.316   5.609   7.688  0.0940 -0.4929  1.7863
  122MOL   H20529487   1.480   5.567   7.685 -1.8650 -1.0544  0.7874
  122MOL   C20629488   1.702   5.957   7.888 -0.6266  0.0048 -0.2509
  122MOL   C20729489   1.740   5.829   7.964  1.2374 -0.1137 -0.0515
  122MOL   O20829490   1.876   5.818   7.936 -0.0307 -0.8301 -0.0267
  122MOL   C20929491   1.927   5.697   7.916 -0.3837 -0.0167  0.1165
  122MOL   C21029492   2.075   5.716   7.887  0.3687  0.2571 -0.0337
  122MOL   O21129493   1.877   5.591   7.905 -0.7726  0.0504 -0.1735
  122MOL   H21229494   1.746   5.960   7.789 -0.6882  0.2575 -0.2717
  122MOL   H21329495   1.731   6.052   7.933 -0.3211 -0.9738  1.6601
  122MOL   H21429496   1.676   5.747   7.929  0.9637  0.2468 -0.4059
  122MOL   H21529497   2.107   5.617   7.854 -1.8977 -0.7402  0.6939
  122MOL   H21629498   2.136   5.756   7.967 -0.3643  0.3015  0.5048
  122MOL   H21729499   2.097   5.773   7.796  2.4397  1.7135  1.3403
  122MOL   C21829500   1.718   5.835   0.102  0.5153 -0.6554  0.0301
  122MOL   C21929501   1.650   5.714   0.173 -0.4715 -0.3538  0.2884
  122MOL   O22029502   1.721   5.684   0.285  0.3013 -0.4121 -0.6351
  122MOL   C22129503   1.777   5.562   0.320 -0.2399 -0.1728  0.1408
  122MOL   C22229504   1.849   5.560   0.458 -0.3188 -0.7375  0.2050
  122MOL   O22329505   1.759   5.459   0.253  0.4950 -0.0540  0.1568
  122MOL   H22429506   1.813   5.855   0.152  0.4191  1.8623 -0.7713
  122MOL   H22529507   1.676   5.935   0.108  1.5417 -0.0527 -2.0968
  122MOL   H22629508   1.671   5.635   0.100 -0.3625 -1.6208  1.6664
  122MOL   H22729509   1.789   5.612   0.533 -0.7294  0.6319 -1.0578
  122MOL   H22829510   1.945   5.612   0.453 -0.1905 -0.6594  2.6137
  122MOL   H22929511   1.868   5.457   0.489 -1.9387 -0.6178  1.6891
  122MOL   C23029512   1.500   5.737   0.202 -0.4677 -0.4911  0.5490
  122MOL   C23129513   1.412   5.625   0.264 -0.4901  0.5103  0.2391
  122MOL   O23229514   1.362   5.536   0.166 -0.3619 -0.4018 -0.4859
  122MOL   C23329515   1.254   5.565   0.099 -0.5286  0.1838  0.4047
  122MOL   C23429516   1.210   5.452   0.008 -0.4479 -0.0031 -0.2209
  122MOL   O23529517   1.180   5.660   0.118 -0.1937 -0.4769  0.1123
  122MOL   H23629518   1.501   5.812   0.281  1.8080  0.3810 -0.2597
  122MOL   H23729519   1.450   5.800   0.128  0.8694 -0.7085 -0.5729
  122MOL   H23829520   1.330   5.670   0.320 -0.9674 -0.4031  0.2791
  122MOL   H23929521   1.232   5.485   7.927 -1.2539 -0.6625 -0.6130
  122MOL   H24029522   1.105   5.432   0.027 -0.2214 -0.2165  0.8213
  122MOL   H24129523   1.273   5.365   0.028 -1.4957 -0.8235 -0.4595
  122MOL   H24229524   1.473   5.569   0.335 -0.1338 -0.2687 -0.6796
  123MOL     C129525   2.263   3.658   1.962  0.2228 -0.6356  0.4941
  123MOL     C229526   2.320   3.801   1.964  0.7548 -0.7486  0.6718
  123MOL     O329527   2.402   3.813   2.076 -0.0609 -0.0097  0.0699
  123MOL     C429528   2.424   3.933   2.137  0.8908  0.1044 -0.3053
  123MOL     C529529   2.512   3.928   2.264  0.3271 -0.1358 -0.2228
  123MOL     O629530   2.394   4.039   2.089 -0.4339  0.3295 -0.1255
  123MOL     H729531   2.182   3.654   2.034 -1.4014  0.0984 -1.2318
  123MOL     H829532   2.341   3.582   1.953  1.1788  0.3567  0.2356
  123MOL     H929533   2.236   3.866   1.989  2.2642  0.9936  1.3246
  123MOL    H1029534   2.550   3.828   2.281  2.2741  0.6761  0.2939
  123MOL    H1129535   2.443   3.954   2.345 -0.0084  2.0311 -1.1549
  123MOL    H1229536   2.592   4.002   2.257 -0.4987  0.8228  0.1778
  123MOL    H1329537   2.198   3.644   1.875  0.4712  1.6766 -0.1166
  123MOL    C1429538   2.399   3.830   1.837 -0.1606  0.1995  0.4835
  123MOL    C1529539   2.322   3.872   1.712 -0.1472  0.2680  0.2972
  123MOL    O1629540   2.254   3.996   1.732 -0.2805  0.0125  0.4687
  123MOL    C1729541   2.119   3.999   1.744  0.4810 -0.3722  0.3047
  123MOL    C1829542   2.068   4.117   1.820  0.5152  0.3501  0.0650
  123MOL    O1929543   2.043   3.910   1.704 -0.1726  0.1794 -0.0896
  123MOL    H2029544   2.482   3.896   1.859  1.6479 -1.6773 -0.5819
  123MOL    H2129545   2.460   3.743   1.813 -0.7665 -0.7262  2.1749
  123MOL    H2229546   2.249   3.793   1.693 -0.2082  0.2889  0.4445
  123MOL    H2329547   1.964   4.113   1.851  0.0461  1.5865 -1.2880
  123MOL    H2429548   2.080   4.217   1.778 -0.7112  0.6682  0.4466
  123MOL    H2529549   2.136   4.124   1.906 -1.0581  2.3842  1.2094
  123MOL    C2629550   2.410   3.893   1.588  0.2791 -0.5450 -0.1294
  123MOL    C2729551   2.542   3.977   1.607 -0.3486 -0.1096  0.1588
  123MOL    O2829552   2.637   3.948   1.501  0.4080 -0.0439 -0.0487
  123MOL    C2929553   2.734   3.857   1.506  0.3197  0.3014 -0.2979
  123MOL    C3029554   2.835   3.877   1.393 -0.1276 -0.1401 -0.0510
  123MOL    O3129555   2.756   3.782   1.602  0.1599 -0.3508 -0.3465
  123MOL    H3229556   2.445   3.796   1.552 -1.2562 -1.0917 -0.1790
  123MOL    H3329557   2.359   3.942   1.505  1.4136  0.1557 -0.4230
  123MOL    H3429558   2.590   3.937   1.697  2.2787  1.3094 -0.5713
  123MOL    H3529559   2.874   3.776   1.376  1.5635  0.6929 -1.2750
  123MOL    H3629560   2.921   3.936   1.425  1.6914 -3.1557  0.7995
  123MOL    H3729561   2.795   3.914   1.299 -3.4228 -1.2846  0.8566
  123MOL    C3829562   2.508   4.130   1.615  0.0396 -0.2118  0.5238
  123MOL    C3929563   2.631   4.218   1.620 -0.4609 -0.0722 -0.2518
  123MOL    O4029564   2.593   4.351   1.598  0.2338 -0.2286 -0.7673
  123MOL    C4129565   2.661   4.428   1.506 -0.2775  0.0633 -0.3619
  123MOL    C4229566   2.611   4.570   1.502  0.1919 -0.2170  0.1984
  123MOL    O4329567   2.741   4.392   1.425  0.0592  0.5752 -0.7866
  123MOL    H4429568   2.456   4.163   1.525  0.6120 -2.3099 -0.6248
  123MOL    H4529569   2.439   4.149   1.697 -1.4081  0.5513 -0.8674
  123MOL    H4629570   2.700   4.188   1.541 -1.1354 -1.3269 -0.3824
  123MOL    H4729571   2.522   4.546   1.443  0.8485 -1.0597 -0.4694
  123MOL    H4829572   2.676   4.632   1.441 -1.4027  0.8735 -0.4476
  123MOL    H4929573   2.594   4.621   1.597  0.7960  1.5321 -0.6156
  123MOL    C5029574   2.704   4.202   1.761  0.9482  1.0177  0.0326
  123MOL    C5129575   2.841   4.268   1.762 -0.2979  0.5916  0.0401
  123MOL    O5229576   2.886   4.242   1.894 -0.0442 -0.5482  0.1729
  123MOL    C5329577   2.862   4.322   1.999 -0.4320 -0.1247  0.0162
  123MOL    C5429578   2.918   4.265   2.131  0.3908 -0.1281  0.3417
  123MOL    O5529579   2.805   4.430   1.988  0.1538 -0.1628 -0.1453
  123MOL    H5629580   2.650   4.258   1.838 -0.0562 -0.6968  0.5961
  123MOL    H5729581   2.707   4.102   1.802 -1.1412  0.9478  0.0629
  123MOL    H5829582   2.834   4.375   1.747 -1.5978  0.8207  2.0680
  123MOL    H5929583   2.884   4.312   2.223  2.6226  1.3168  0.4649
  123MOL    H6029584   3.026   4.273   2.129  0.2168  2.9972  0.5114
  123MOL    H6129585   2.901   4.157   2.132 -0.5798 -0.0002 -0.7133
  123MOL    C6229586   2.950   4.205   1.674  0.2048 -0.3852  0.1018
  123MOL    C6329587   3.093   4.221   1.721  0.4196  0.2926 -0.1468
  123MOL    O6429588   3.169   4.129   1.633 -0.0267 -0.1270 -0.4737
  123MOL    C6529589   3.274   4.052   1.683 -0.3534  0.1594 -0.4682
  123MOL    C6629590   3.345   3.969   1.572  0.5345  0.1260  0.6821
  123MOL    O6729591   3.311   4.052   1.803  0.2499  0.2951 -0.6035
  123MOL    H6829592   2.923   4.100   1.662  2.4565 -0.8777 -0.9186
  123MOL    H6929593   2.943   4.231   1.568  1.4207  0.7404  0.2925
  123MOL    H7029594   3.103   4.189   1.825 -1.3555 -1.4060 -0.4669
  123MOL    H7129595   3.312   3.985   1.469  1.0051  0.0066  0.5132
  123MOL    H7229596   3.336   3.863   1.593 -1.5834 -0.3080 -2.0530
  123MOL    H7329597   3.448   4.003   1.570  1.0252 -1.3934  0.1209
  123MOL    C7429598   3.139   4.365   1.697  0.0157  0.2973 -0.2672
  123MOL    C7529599   3.261   4.413   1.779 -0.0274 -0.3309  0.7587
  123MOL    O7629600   3.287   4.545   1.722 -0.3274 -0.0228  0.0373
  123MOL    C7729601   3.408   4.592   1.711 -0.3247 -0.2856 -0.0440
  123MOL    C7829602   3.411   4.724   1.626 -0.1164 -0.3709  1.0859
  123MOL    O7929603   3.504   4.535   1.757  0.1422 -0.1953  0.5071
  123MOL    H8029604   3.163   4.359   1.591 -1.4639  2.8232 -0.7780
  123MOL    H8129605   3.056   4.434   1.714  0.5382  0.9190 -0.2482
  123MOL    H8229606   3.350   4.352   1.762  0.4215 -0.3987  3.1276
  123MOL    H8329607   3.420   4.702   1.520  1.5927 -1.9511  1.5302
  123MOL    H8429608   3.486   4.793   1.664  0.0141 -0.2079  0.5371
  123MOL    H8529609   3.308   4.759   1.621 -1.6134 -4.6280 -0.7667
  123MOL    C8629610   3.225   4.422   1.930  0.2570  0.2577 -0.0097
  123MOL    C8729611   3.353   4.455   2.015  0.2909  0.0918 -0.2886
  123MOL    O8829612   3.322   4.482   2.153  0.3516  0.0923  0.4976
  123MOL    C8929613   3.312   4.601   2.208 -0.1039 -0.2992  0.0208
  123MOL    C9029614   3.275   4.590   2.351  0.4254 -0.4336 -0.0333
  123MOL    O9129615   3.325   4.709   2.151 -0.6368  0.1549 -0.5277
  123MOL    H9229616   3.139   4.488   1.945  0.8198  0.5940  1.9145
  123MOL    H9329617   3.182   4.327   1.963  0.2083  0.4336  0.4375
  123MOL    H9429618   3.399   4.542   1.968 -1.5092  0.9630 -0.4946
  123MOL    H9529619   3.313   4.678   2.404 -1.3479  0.5581 -0.3634
  123MOL    H9629620   3.327   4.504   2.394 -1.6489 -1.3652  0.6779
  123MOL    H9729621   3.169   4.590   2.375  0.8331  2.0929  2.0497
  123MOL    C9829622   3.442   4.336   2.015 -0.2575 -0.1369  0.5117
  123MOL    C9929623   3.564   4.348   2.110 -0.1063  0.5496  0.2748
  123MOL   O10029624   3.635   4.222   2.107  0.0394 -0.0065 -0.0108
  123MOL   C10129625   3.596   4.128   2.198  1.1196  0.5042 -0.2303
  123MOL   C10229626   3.675   3.996   2.179 -0.0080 -0.2136  0.5923
  123MOL   O10329627   3.519   4.144   2.288  0.1755  0.1168  0.8276
  123MOL   H10429628   3.382   4.250   2.043  1.7100 -1.2899  1.2590
  123MOL   H10529629   3.492   4.324   1.919 -0.7459  1.8853 -0.0109
  123MOL   H10629630   3.528   4.369   2.210  0.4281 -2.0784  1.0413
  123MOL   H10729631   3.713   3.981   2.078  0.3045 -2.0208  0.9715
  123MOL   H10829632   3.606   3.918   2.212  1.2613 -1.5003  0.2541
  123MOL   H10929633   3.764   4.001   2.242  1.4566  0.1938 -1.4431
  123MOL   C11029634   3.665   4.458   2.078  0.4801 -0.1900  0.3298
  123MOL   C11129635   3.743   4.498   2.199 -1.1039 -0.5038  0.5612
  123MOL   O11229636   3.853   4.574   2.155  0.3960 -0.3063  0.3220
  123MOL   C11329637   3.977   4.544   2.195  0.8776 -0.4397 -0.3558
  123MOL   C11429638   4.087   4.623   2.127  0.1353  0.3544 -0.3597
  123MOL   O11529639   4.012   4.461   2.274  0.4827  0.4356  0.0811
  123MOL   H11629640   3.733   4.435   1.995 -0.3206 -0.8752 -0.1408
  123MOL   H11729641   3.617   4.542   2.029  1.7352  1.1199  1.3212
  123MOL   H11829642   3.775   4.403   2.242  0.1390 -0.4551 -0.2236
  123MOL   H11929643   4.056   4.722   2.093 -0.9507  0.8347  1.9348
  123MOL   H12029644   4.121   4.565   2.041  0.2483  0.5508 -0.4492
  123MOL   H12129645   4.175   4.639   2.190 -0.0186  2.0031 -0.5439
  123MOL   C12229646   3.667   4.579   2.305 -0.0360  0.0837  0.5720
  123MOL   C12329647   3.736   4.645   2.424 -0.3887 -0.6952 -0.4949
  123MOL   O12429648   3.636   4.702   2.510 -0.0453 -0.2216 -0.8104
  123MOL   C12529649   3.629   4.839   2.522 -0.1783  0.7962  0.2407
  123MOL   C12629650   3.529   4.888   2.630 -0.0741  0.0263  0.1484
  123MOL   O12729651   3.700   4.916   2.452  0.1246 -0.1367 -0.4640
  123MOL   H12829652   3.627   4.663   2.247  1.9247  0.7885  0.1785
  123MOL   H12929653   3.591   4.516   2.350  0.2860 -0.0271  0.9607
  123MOL   H13029654   3.807   4.723   2.398  1.1928 -1.5643  1.1062
  123MOL   H13129655   3.447   4.816   2.629  0.8533 -1.0312 -0.3915
  123MOL   H13229656   3.493   4.988   2.607 -1.3059 -0.2364  0.8856
  123MOL   H13329657   3.581   4.889   2.726 -0.0961  0.0675  0.1599
  123MOL   C13429658   3.794   4.537   2.515 -0.5962 -0.8456 -1.4678
  123MOL   C13529659   3.892   4.608   2.610  0.4324 -0.1674  0.0027
  123MOL   O13629660   3.837   4.622   2.742 -0.4081  0.5304  0.0086
  123MOL   C13729661   3.877   4.719   2.828 -0.3925  0.7547 -0.3097
  123MOL   C13829662   3.793   4.724   2.951  0.9090  0.2538  0.2265
  123MOL   O13929663   3.963   4.808   2.809 -0.0902  0.1489  0.3180
  123MOL   H14029664   3.714   4.481   2.562 -1.4930  1.6516  0.0787
  123MOL   H14129665   3.848   4.465   2.453  0.3403 -0.7220 -0.8197
  123MOL   H14229666   3.903   4.713   2.586 -1.9285 -0.1241 -1.0925
  123MOL   H14329667   3.735   4.633   2.967 -0.2670  0.3796 -2.7730
  123MOL   H14429668   3.725   4.806   2.929  0.2299 -0.0141  1.2751
  123MOL   H14529669   3.854   4.757   3.035  0.4362  0.0705  0.6448
  123MOL   C14629670   4.035   4.550   2.612 -0.4064 -0.5630  0.4965
  123MOL   C14729671   4.150   4.638   2.545 -0.0999 -0.0386  0.4826
  123MOL   O14829672   4.132   4.776   2.578 -0.6911 -0.3805  0.0808
  123MOL   C14929673   4.103   4.864   2.474  0.9352  0.0086 -0.7441
  123MOL   C15029674   4.072   5.000   2.531 -0.3365 -0.4514 -0.1666
  123MOL   O15129675   4.096   4.842   2.360  0.4002  0.2295 -0.0625
  123MOL   H15229676   4.066   4.547   2.717 -0.0349  0.1391  0.4110
  123MOL   H15329677   4.042   4.445   2.583  1.8218 -0.6967  1.3751
  123MOL   H15429678   4.125   4.617   2.441 -1.0407 -0.8193  0.8594
  123MOL   H15529679   4.159   5.036   2.585  0.6605 -0.0194 -1.9934
  123MOL   H15629680   3.994   4.993   2.606 -1.2968 -0.5850 -1.1532
  123MOL   H15729681   4.052   5.073   2.452 -0.3207 -0.1547  0.1053
  123MOL   C15829682   4.287   4.583   2.578  0.1879 -0.5472  1.1463
  123MOL   C15929683   4.388   4.588   2.464  0.0083  0.1527 -0.3663
  123MOL   O16029684   4.349   4.524   2.343 -0.1125  0.0014  0.0775
  123MOL   C16129685   4.384   4.398   2.321 -0.7674 -0.0607  0.0372
  123MOL   C16229686   4.335   4.343   2.186  0.3369 -0.8816  0.4190
  123MOL   O16329687   4.428   4.324   2.406 -0.1745 -0.3356 -0.1264
  123MOL   H16429688   4.329   4.634   2.665  0.9182 -1.3397  1.2659
  123MOL   H16529689   4.264   4.478   2.596 -2.6243  0.2696  2.6201
  123MOL   H16629690   4.478   4.535   2.496  0.5397 -0.1004 -2.2296
  123MOL   H16729691   4.400   4.381   2.107 -2.0472  1.8968 -0.3157
  123MOL   H16829692   4.231   4.374   2.177  0.8651  0.8526 -0.0157
  123MOL   H16929693   4.343   4.234   2.183 -0.8954 -0.9492 -0.9002
  123MOL   C17029694   4.432   4.733   2.431  0.6184 -0.1703 -0.9081
  123MOL   C17129695   4.576   4.749   2.373 -0.0711 -0.0472 -0.1569
  123MOL   O17229696   4.565   4.698   2.238 -0.1379 -0.1928  0.6385
  123MOL   C17329697   4.667   4.635   2.170  0.3179 -0.0324 -0.0798
  123MOL   C17429698   4.619   4.573   2.042  0.1573 -0.9420  0.1516
  123MOL   O17529699   4.783   4.626   2.211  0.6647  0.4644 -0.1340
  123MOL   H17629700   4.365   4.784   2.361 -1.2748 -1.0139  0.2306
  123MOL   H17729701   4.432   4.790   2.525 -0.1952 -0.8448 -0.4948
  123MOL   H17829702   4.646   4.695   2.437  0.0719  2.8745  2.2959
  123MOL   H17929703   4.636   4.465   2.039  1.0254 -0.7863 -1.4191
  123MOL   H18029704   4.669   4.631   1.964 -1.8072 -0.3078 -0.6608
  123MOL   H18129705   4.512   4.593   2.041  0.0458 -1.5496 -0.8536
  123MOL   C18229706   4.612   4.899   2.370 -0.2991 -0.6233 -0.3023
  123MOL   C18329707   4.630   4.966   2.504  0.3137 -0.2422 -0.2075
  123MOL   O18429708   4.732   4.889   2.569 -0.9087  0.1729 -0.1837
  123MOL   C18529709   4.715   4.840   2.692  0.3545  0.3807 -0.0201
  123MOL   C18629710   4.849   4.798   2.757  0.4513  0.5602  0.4106
  123MOL   O18729711   4.606   4.816   2.746  0.1356  0.0582 -0.1668
  123MOL   H18829712   4.702   4.906   2.309 -0.5292  1.1172 -0.4718
  123MOL   H18929713   4.535   4.949   2.312  0.7384  1.2431 -0.1257
  123MOL   H19029714   4.536   4.960   2.559 -0.6617 -1.8104 -1.9810
  123MOL   H19129715   4.864   4.692   2.738  2.2658  0.8245  0.3455
  123MOL   H19229716   4.853   4.843   2.856 -0.1196  1.8163 -0.1220
  123MOL   H19329717   4.928   4.855   2.708  0.7435  1.1811  1.6070
  123MOL   C19429718   4.673   5.117   2.501 -0.0968 -0.0135  0.5352
  123MOL   C19529719   4.571   5.212   2.574  0.7741  0.1447 -0.1656
  123MOL   O19629720   4.575   5.201   2.716 -0.4199  0.5042  0.5043
  123MOL   C19729721   4.484   5.127   2.780  0.2157 -0.4888  0.1013
  123MOL   C19829722   4.502   5.131   2.926 -0.3975 -0.1845 -0.3647
  123MOL   O19929723   4.387   5.075   2.729  0.0473 -0.0099  0.7986
  123MOL   H20029724   4.774   5.123   2.540  1.6158  0.2613 -3.7187
  123MOL   H20129725   4.682   5.146   2.397 -1.9271  2.6569  1.0827
  123MOL   H20229726   4.471   5.184   2.541  0.6309  1.5308 -0.9301
  123MOL   H20329727   4.408   5.110   2.976 -0.1403  2.2036  1.1834
  123MOL   H20429728   4.532   5.228   2.965 -0.7933  0.5957 -1.9690
  123MOL   H20529729   4.572   5.057   2.967 -0.7810  0.3383  1.2341
  123MOL   C20629730   4.598   5.361   2.548  0.5314 -0.4304 -0.0401
  123MOL   C20729731   4.557   5.402   2.409 -0.3279 -0.0492  0.2221
  123MOL   O20829732   4.411   5.394   2.402  0.3924 -0.2572 -0.5974
  123MOL   C20929733   4.355   5.291   2.344 -0.0960  0.5052  0.1913
  123MOL   C21029734   4.205   5.280   2.361 -0.2560  0.7865 -0.4851
  123MOL   O21129735   4.412   5.197   2.283 -0.1023 -0.3033  0.2036
  123MOL   H21229736   4.543   5.422   2.621  1.2599  3.3311 -2.4898
  123MOL   H21329737   4.705   5.381   2.554  0.5104 -0.6260  1.1104
  123MOL   H21429738   4.598   5.344   2.327  0.8679  1.8404 -0.5603
  123MOL   H21529739   4.160   5.215   2.286 -0.9180 -1.3744  1.7219
  123MOL   H21629740   4.155   5.375   2.343 -0.2272  1.1400  1.1578
  123MOL   H21729741   4.178   5.250   2.463  0.8245  0.6428 -0.2306
  123MOL   C21829742   4.599   5.545   2.374  0.3829 -0.2355  0.1068
  123MOL   C21929743   4.749   5.558   2.340  0.2763 -0.4359 -0.5092
  123MOL   O22029744   4.764   5.493   2.213  0.2492 -0.0287 -0.5891
  123MOL   C22129745   4.832   5.375   2.203  0.8879  0.4413 -0.6036
  123MOL   C22229746   4.822   5.326   2.060  0.3860  0.1958 -0.2089
  123MOL   O22329747   4.882   5.301   2.288  0.2059 -0.0170  0.1599
  123MOL   H22429748   4.537   5.568   2.287  0.0311  2.7351  1.0871
  123MOL   H22529749   4.575   5.617   2.453  2.2888  1.9533 -1.2536
  123MOL   H22629750   4.816   5.500   2.402  2.2623  0.0575 -2.1473
  123MOL   H22729751   4.851   5.223   2.043 -1.1350 -0.1521 -0.7083
  123MOL   H22829752   4.891   5.380   1.995  0.9336 -1.8603 -1.3875
  123MOL   H22929753   4.721   5.338   2.022  0.1939  2.2455  0.8587
  123MOL   C23029754   4.784   5.704   2.321 -0.1343  0.3985 -1.1490
  123MOL   C23129755   4.935   5.730   2.281  0.2371  0.2349 -0.9085
  123MOL   O23229756   5.024   5.646   2.355 -0.3051  0.4351 -0.4448
  123MOL   C23329757   5.098   5.554   2.286 -0.3321 -0.0086  0.4449
  123MOL   C23429758   5.167   5.446   2.371  0.6703 -0.0575  0.0742
  123MOL   O23529759   5.106   5.548   2.160 -0.4255  0.0956 -0.2964
  123MOL   H23629760   4.714   5.752   2.253  0.8545  1.0454 -1.7266
  123MOL   H23729761   4.761   5.761   2.412 -1.2569 -2.8257  0.6873
  123MOL   H23829762   4.967   5.833   2.294 -1.3451  0.4699  1.3587
  123MOL   H23929763   5.184   5.476   2.474 -1.6252 -2.9781  1.3753
  123MOL   H24029764   5.268   5.421   2.338  1.8958  1.5800  2.5032
  123MOL   H24129765   5.113   5.352   2.381 -0.8940  1.1000  2.7779
  123MOL   H24229766   4.943   5.708   2.174  1.7679 -1.3192 -0.4948
  124MOL     C129767   6.161   1.944   4.025  0.5518 -0.0247  0.7796
  124MOL     C229768   6.240   1.843   4.104  0.2512 -0.1587  0.3222
  124MOL     O329769   6.373   1.826   4.055  0.2099 -0.2590 -0.6035
  124MOL     C429770   6.426   1.703   4.065 -0.3126  0.3486  1.0871
  124MOL     C529771   6.576   1.710   4.016  0.2474  0.1854  0.5680
  124MOL     O629772   6.370   1.597   4.102 -0.4870 -0.3381 -0.0456
  124MOL     H729773   6.063   1.964   4.070 -1.7101  0.5330 -4.0890
  124MOL     H829774   6.139   1.916   3.922  4.3491 -1.6564  0.3289
  124MOL     H929775   6.187   1.748   4.094  0.7192 -0.3734 -0.1095
  124MOL    H1029776   6.656   1.695   4.089  1.7412  3.5092 -0.3107
  124MOL    H1129777   6.584   1.808   3.970  1.2283 -1.3269 -2.5936
  124MOL    H1229778   6.594   1.636   3.938  1.4933  0.4461  0.5980
  124MOL    H1329779   6.221   2.035   4.021  0.6765 -0.0210  2.2780
  124MOL    C1429780   6.259   1.881   4.258 -0.1203  0.5701  0.0192
  124MOL    C1529781   6.135   1.844   4.346  0.2396 -0.4329  0.1726
  124MOL    O1629782   6.016   1.912   4.318  0.1320 -0.1183 -0.3730
  124MOL    C1729783   5.939   1.958   4.423 -0.5601  0.3253  0.1252
  124MOL    C1829784   5.810   2.018   4.373 -0.1687 -0.8108 -0.3262
  124MOL    O1929785   5.962   1.931   4.544  0.0268 -0.4863  0.2484
  124MOL    H2029786   6.345   1.830   4.300  1.5674  1.6524 -1.9995
  124MOL    H2129787   6.254   1.990   4.245  0.0075  0.4529 -1.0316
  124MOL    H2229788   6.168   1.866   4.447  1.4614  2.8431 -0.8630
  124MOL    H2329789   5.824   2.126   4.373  1.8126 -1.0456 -1.4752
  124MOL    H2429790   5.724   1.999   4.437  0.3451  1.0801  0.9370
  124MOL    H2529791   5.790   2.003   4.267  1.0005 -0.2430 -0.6424
  124MOL    C2629792   6.103   1.692   4.341  0.7894  0.2324  0.0890
  124MOL    C2729793   6.210   1.597   4.393 -0.3586  0.2941 -0.0315
  124MOL    O2829794   6.217   1.630   4.528  0.0163  0.0308 -0.2029
  124MOL    C2929795   6.339   1.650   4.594 -0.6234  0.0541  0.0125
  124MOL    C3029796   6.334   1.658   4.746 -0.0149  0.0834  0.7072
  124MOL    O3129797   6.449   1.638   4.539  0.0745 -0.0847  0.4243
  124MOL    H3229798   6.006   1.675   4.388  1.7479 -1.7683  1.4267
  124MOL    H3329799   6.078   1.662   4.239 -1.9605  1.3593  0.3846
  124MOL    H3429800   6.300   1.615   4.335 -0.4204 -0.9069 -0.5030
  124MOL    H3529801   6.424   1.616   4.791 -0.2018  0.4228  1.4073
  124MOL    H3629802   6.244   1.617   4.791 -1.5125  2.2674 -0.2012
  124MOL    H3729803   6.343   1.764   4.769  1.5694  0.4354 -1.3807
  124MOL    C3829804   6.171   1.448   4.392 -0.1810  0.3025  0.7290
  124MOL    C3929805   6.280   1.347   4.439 -0.4900 -0.7215  0.0657
  124MOL    O4029806   6.218   1.218   4.464 -0.1641  0.2600  0.0801
  124MOL    C4129807   6.210   1.171   4.596  0.1869  0.6073 -0.0702
  124MOL    C4229808   6.162   1.023   4.597  0.1454  0.2395 -0.4104
  124MOL    O4329809   6.229   1.239   4.697 -0.0498 -0.1894  0.2990
  124MOL    H4429810   6.095   1.433   4.468 -1.3080 -0.8094 -0.5848
  124MOL    H4529811   6.137   1.415   4.294  2.1733  1.5112 -0.5343
  124MOL    H4629812   6.331   1.382   4.529 -1.9664 -1.4270  1.1908
  124MOL    H4729813   6.194   0.972   4.506 -1.1885  0.4833 -1.0263
  124MOL    H4829814   6.057   1.028   4.626  0.3576 -1.8498  0.8979
  124MOL    H4929815   6.215   0.974   4.679 -0.5856 -0.4685 -0.3536
  124MOL    C5029816   6.386   1.328   4.328  0.6206  0.3518 -0.8924
  124MOL    C5129817   6.481   1.214   4.353  0.1601 -0.1456 -0.1362
  124MOL    O5229818   6.546   1.176   4.237 -0.0284  0.0414 -0.0942
  124MOL    C5329819   6.543   1.048   4.187 -0.5853 -0.4258  1.1200
  124MOL    C5429820   6.656   1.030   4.084  0.3434  0.1998  0.0685
  124MOL    O5529821   6.476   0.955   4.236 -0.1688 -0.1151  0.3782
  124MOL    H5629822   6.335   1.311   4.234  2.0543  0.0818 -1.6355
  124MOL    H5729823   6.444   1.416   4.303  1.7583 -0.1307 -0.0175
  124MOL    H5829824   6.421   1.130   4.389  0.6429  0.5419  2.3511
  124MOL    H5929825   6.687   1.124   4.041  1.5732 -0.7250 -1.0839
  124MOL    H6029826   6.618   0.964   4.005  1.0323 -1.5404  1.1480
  124MOL    H6129827   6.739   0.978   4.132  0.1819 -0.7859 -0.6987
  124MOL    C6229828   6.570   1.262   4.470 -0.2299  0.1851 -0.9371
  124MOL    C6329829   6.685   1.171   4.500 -0.5720 -0.0733 -0.3198
  124MOL    O6429830   6.784   1.246   4.576 -0.3399 -0.1494 -0.4395
  124MOL    C6529831   6.904   1.282   4.518  0.1418 -1.1051  0.2745
  124MOL    C6629832   6.976   1.388   4.601 -0.3461  0.0335 -0.3088
  124MOL    O6729833   6.955   1.223   4.423  0.5131  0.0976  0.0561
  124MOL    H6829834   6.604   1.365   4.455 -0.9103  1.2742  4.0518
  124MOL    H6929835   6.505   1.260   4.558  0.7047  0.9041 -0.2196
  124MOL    H7029836   6.725   1.147   4.401 -0.4668 -2.8213  0.3349
  124MOL    H7129837   6.931   1.417   4.695  0.0191  1.0902 -0.4496
  124MOL    H7229838   6.982   1.480   4.542  1.7035 -1.5733 -2.7404
  124MOL    H7329839   7.081   1.362   4.612 -0.5248 -0.5900 -0.1016
  124MOL    C7429840   6.641   1.045   4.576 -0.8796 -0.5308  0.5358
  124MOL    C7529841   6.759   0.944   4.607 -0.4228  0.0890 -0.3310
  124MOL    O7629842   6.705   0.843   4.686 -0.5171  0.1581 -1.7024
  124MOL    C7729843   6.736   0.845   4.818  0.4500  0.1550 -0.4105
  124MOL    C7829844   6.648   0.759   4.903 -0.6524 -0.1788  0.3183
  124MOL    O7929845   6.842   0.894   4.862  0.4759 -0.5448  0.0310
  124MOL    H8029846   6.589   1.068   4.669  0.1837  2.3354  0.4731
  124MOL    H8129847   6.577   0.984   4.511  0.6205 -0.8347 -0.6749
  124MOL    H8229848   6.828   1.008   4.662  2.2526 -1.8944 -1.2820
  124MOL    H8329849   6.657   0.773   5.010 -0.4529 -1.8573  0.5250
  124MOL    H8429850   6.681   0.656   4.887  0.2026  0.3535 -1.6061
  124MOL    H8529851   6.542   0.752   4.880 -0.4227  1.1177 -1.2758
  124MOL    C8629852   6.827   0.875   4.485  0.7119 -1.2994 -0.2723
  124MOL    C8729853   6.955   0.825   4.544  0.3105  0.5971 -0.3919
  124MOL    O8829854   6.991   0.726   4.443  0.0959 -0.7342 -0.1485
  124MOL    C8929855   6.974   0.596   4.479  0.8005  0.2447 -0.0528
  124MOL    C9029856   7.006   0.507   4.360 -1.0548 -0.3286 -0.3649
  124MOL    O9129857   6.933   0.554   4.583 -0.6887  0.3878 -0.3452
  124MOL    H9229858   6.761   0.799   4.443  0.0862 -1.3327  0.7550
  124MOL    H9329859   6.852   0.945   4.406  0.1406  0.1679  0.8206
  124MOL    H9429860   6.933   0.769   4.636 -1.5488 -0.9399 -1.7198
  124MOL    H9529861   7.053   0.560   4.277  2.0433 -1.1454  0.7790
  124MOL    H9629862   6.916   0.464   4.316 -0.2935  0.0366 -2.3181
  124MOL    H9729863   7.063   0.415   4.378  0.1338  0.8007  1.8668
  124MOL    C9829864   7.079   0.919   4.566 -0.4619 -0.0556 -0.0201
  124MOL    C9929865   7.142   0.913   4.712  0.2050 -0.6558 -0.6056
  124MOL   O10029866   7.189   0.784   4.736  0.5662 -0.3439  0.6278
  124MOL   C10129867   7.163   0.716   4.851  0.5895  0.4408  0.0595
  124MOL   C10229868   7.207   0.571   4.848 -0.1229 -0.4986 -0.6019
  124MOL   O10329869   7.121   0.768   4.954 -0.6402  0.3100  0.4494
  124MOL   H10429870   7.157   0.914   4.491  1.7496  0.6081  2.1686
  124MOL   H10529871   7.058   1.023   4.541  2.5448  0.4277 -0.7685
  124MOL   H10629872   7.067   0.938   4.786  2.8054 -0.1866  1.9594
  124MOL   H10729873   7.265   0.560   4.756  0.3793  2.3816 -0.6570
  124MOL   H10829874   7.129   0.495   4.838  0.8443 -1.1714 -3.7104
  124MOL   H10929875   7.271   0.543   4.932 -1.1383 -0.7136  0.1124
  124MOL   C11029876   7.253   1.017   4.722 -0.4352 -0.3190 -0.6350
  124MOL   C11129877   7.199   1.158   4.761  0.6351  0.5501  0.3246
  124MOL   O11229878   7.162   1.139   4.896 -0.5890 -0.2223  0.3651
  124MOL   C11329879   7.039   1.170   4.938  0.9866 -0.1800 -0.6507
  124MOL   C11429880   6.996   1.107   5.068 -0.1617  0.2222  0.1399
  124MOL   O11529881   6.965   1.247   4.879 -0.2665  0.4897 -0.3328
  124MOL   H11629882   7.331   0.981   4.789 -0.1371 -1.5295 -1.6223
  124MOL   H11729883   7.305   1.016   4.626 -1.3577  1.1106 -1.1715
  124MOL   H11829884   7.115   1.169   4.692  0.7790  0.7152  0.1775
  124MOL   H11929885   6.932   1.021   5.050 -0.6702  0.9820 -1.8274
  124MOL   H12029886   6.933   1.166   5.135  1.0423 -0.3338  1.7963
  124MOL   H12129887   7.081   1.072   5.127 -0.2395  2.1352  1.4264
  124MOL   C12229888   7.300   1.267   4.760 -0.1094  0.0394 -0.1327
  124MOL   C12329889   7.390   1.288   4.640  0.7378  0.5028  0.4917
  124MOL   O12429890   7.323   1.309   4.519 -0.3629  0.4477 -0.1727
  124MOL   C12529891   7.318   1.206   4.421  0.1665 -0.2188 -0.7663
  124MOL   C12629892   7.241   1.242   4.296 -0.6231  0.6173 -0.2917
  124MOL   O12729893   7.364   1.096   4.433 -0.2349  0.0031 -0.0042
  124MOL   H12829894   7.249   1.359   4.788  1.6288  1.4118 -1.4378
  124MOL   H12929895   7.365   1.244   4.845 -1.3427 -1.0754  0.5332
  124MOL   H13029896   7.450   1.197   4.645 -0.2295 -0.0922  1.2022
  124MOL   H13129897   7.291   1.295   4.215 -1.9594  0.8428 -0.9914
  124MOL   H13229898   7.160   1.303   4.337 -0.0934  0.8098  0.4667
  124MOL   H13329899   7.197   1.151   4.254  3.6524 -1.0482 -1.4177
  124MOL   C13429900   7.484   1.410   4.664  0.6152  0.1780  0.2412
  124MOL   C13529901   7.595   1.413   4.551 -0.2403 -0.1447  0.2515
  124MOL   O13629902   7.626   1.554   4.534  0.5474  0.5239  0.3287
  124MOL   C13729903   7.541   1.639   4.464  0.6163  1.0125  0.3089
  124MOL   C13829904   7.604   1.781   4.448  0.2200  0.0504  0.1022
  124MOL   O13929905   7.424   1.611   4.425  0.1233 -0.1026 -0.0820
  124MOL   H14029906   7.417   1.495   4.651 -1.2429 -1.4064 -0.6229
  124MOL   H14129907   7.530   1.416   4.763 -1.0065 -1.1922  1.1075
  124MOL   H14229908   7.558   1.380   4.454 -3.6427  0.7744  1.1778
  124MOL   H14329909   7.607   1.809   4.553 -1.6019 -1.9942  0.7497
  124MOL   H14429910   7.531   1.851   4.406 -0.5771 -0.3526  0.7891
  124MOL   H14529911   7.702   1.780   4.401  0.0980 -2.0670 -0.1769
  124MOL   C14629912   7.724   1.333   4.586 -0.7305 -0.8647 -0.2002
  124MOL   C14729913   7.832   1.352   4.481 -0.7833  0.1567 -0.2048
  124MOL   O14829914   7.962   1.317   4.535 -0.0364  0.3119  0.0557
  124MOL   C14929915   7.998   1.192   4.559 -0.3818  0.6069 -0.9391
  124MOL   C15029916   0.108   1.190   4.640 -0.2901 -1.1649 -0.0753
  124MOL   O15129917   7.940   1.085   4.529  0.3892 -0.2564 -0.0477
  124MOL   H15229918   7.749   1.371   4.685 -1.4501  1.1454 -0.7477
  124MOL   H15329919   7.689   1.230   4.593  0.8898 -1.2912  2.3028
  124MOL   H15429920   7.840   1.460   4.470  0.4057  0.2518  1.4338
  124MOL   H15529921   0.192   1.236   4.588  0.1266  2.2324  3.4463
  124MOL   H15629922   0.124   1.092   4.686  0.0277  0.0887  2.5680
  124MOL   H15729923   0.114   1.244   4.734  0.3052  0.9217 -1.2900
  124MOL   C15829924   7.791   1.284   4.348 -0.2109  0.0388 -0.5903
  124MOL   C15929925   7.856   1.361   4.228  0.8663 -0.4375  0.3964
  124MOL   O16029926   7.988   1.398   4.256 -0.0594  0.2791 -0.3297
  124MOL   C16129927   0.026   1.504   4.197  0.4796 -0.6997 -0.1963
  124MOL   C16229928   0.162   1.531   4.252  0.1553 -0.3059  0.0321
  124MOL   O16329929   7.997   1.584   4.108 -0.1444 -0.0867 -0.4636
  124MOL   H16429930   7.822   1.179   4.344  0.9254  0.4059 -1.4438
  124MOL   H16529931   7.682   1.282   4.343 -0.3935  0.0403  2.2589
  124MOL   H16629932   7.789   1.444   4.205 -0.1831 -1.3293  0.2020
  124MOL   H16729933   0.218   1.577   4.170  0.6378 -0.7489  0.1136
  124MOL   H16829934   0.219   1.441   4.271  0.2052 -0.8652 -2.5713
  124MOL   H16929935   0.170   1.601   4.335  1.1881 -0.2136 -0.1404
  124MOL   C17029936   7.862   1.279   4.099 -0.1124  0.3026  0.7251
  124MOL   C17129937   7.718   1.261   4.036 -0.5572  0.1199  1.0762
  124MOL   O17229938   7.671   1.383   3.971  0.6273 -0.6132  0.5951
  124MOL   C17329939   7.557   1.450   4.022  0.6580 -0.0100  0.1056
  124MOL   C17429940   7.503   1.573   3.949 -0.3031  0.1779  1.3020
  124MOL   O17529941   7.519   1.426   4.138  0.0917 -0.1708  0.1858
  124MOL   H17629942   7.917   1.330   4.020  0.3552 -0.3453  0.6251
  124MOL   H17729943   7.907   1.181   4.119  0.9836  1.0080  1.8014
  124MOL   H17829944   7.650   1.235   4.117  1.3052 -1.8729  2.0621
  124MOL   H17929945   7.558   1.610   3.862 -0.4365 -0.7538  0.8126
  124MOL   H18029946   7.484   1.651   4.022  1.1516  1.2832  0.5352
  124MOL   H18129947   7.401   1.551   3.917  0.2642 -1.2877  0.4143
  124MOL   C18229948   7.710   1.134   3.950  0.5431  0.2583 -0.0656
  124MOL   C18329949   7.564   1.111   3.895 -0.4053 -1.1432 -0.4274
  124MOL   O18429950   7.580   1.015   3.792  0.2618 -0.3235  0.0696
  124MOL   C18529951   7.529   1.025   3.672  0.1261  0.1903 -0.8050
  124MOL   C18629952   7.548   0.903   3.584  0.0007  0.1676  0.2157
  124MOL   O18729953   7.485   1.128   3.624  0.1947 -0.0990  0.2459
  124MOL   H18829954   7.781   1.144   3.867  1.8959 -1.7681  0.8024
  124MOL   H18929955   7.740   1.045   4.004 -0.4826  1.3895  2.4050
  124MOL   H19029956   7.524   1.207   3.863 -0.2196 -1.0032 -0.2400
  124MOL   H19129957   7.486   0.907   3.495  1.1709 -1.0416 -0.6973
  124MOL   H19229958   7.536   0.812   3.643  0.6004  0.6098  1.0357
  124MOL   H19329959   7.652   0.893   3.553 -0.2432  1.3271 -0.9952
  124MOL   C19429960   7.469   1.056   4.007  0.0172 -1.1545  0.2610
  124MOL   C19529961   7.339   1.010   3.952  0.2285 -0.0211 -0.3047
  124MOL   O19629962   7.265   0.954   4.056  0.2990 -0.3268  0.4695
  124MOL   C19729963   7.205   0.839   4.057 -0.8294  0.2331 -0.6695
  124MOL   C19829964   7.143   0.802   4.188 -0.4379  0.1201 -0.8751
  124MOL   O19929965   7.207   0.763   3.963  0.5942  0.0897 -0.1012
  124MOL   H20029966   7.520   0.968   4.047  0.5142 -1.3291 -0.7400
  124MOL   H20129967   7.445   1.127   4.086 -0.8082  0.4395 -1.4141
  124MOL   H20229968   7.361   0.933   3.878  3.3201  0.1406  0.3532
  124MOL   H20329969   7.037   0.787   4.171 -0.9589  2.7222 -0.0578
  124MOL   H20429970   7.157   0.881   4.261  0.8671 -0.1620 -0.7976
  124MOL   H20529971   7.185   0.710   4.229 -0.3811 -0.4616 -2.1907
  124MOL   C20629972   7.246   1.126   3.903  0.8912  0.0999  0.1710
  124MOL   C20729973   7.117   1.074   3.831  0.6324 -0.0518 -0.1983
  124MOL   O20829974   7.045   1.193   3.813  0.1957 -0.0503  0.0582
  124MOL   C20929975   6.956   1.239   3.907 -0.0746 -0.2202 -0.1821
  124MOL   C21029976   6.846   1.336   3.857  0.3071  0.5516  0.5975
  124MOL   O21129977   6.965   1.207   4.027 -0.3504 -0.0808  0.7474
  124MOL   H21229978   7.230   1.193   3.987 -0.9334  0.4216 -0.4133
  124MOL   H21329979   7.293   1.190   3.829  2.6490  1.3149  2.2650
  124MOL   H21429980   7.058   1.000   3.884 -0.9992  0.5047 -1.2225
  124MOL   H21529981   6.880   1.402   3.777 -0.0789  0.1674  0.1125
  124MOL   H21629982   6.808   1.389   3.943  0.5193 -1.1959  1.7918
  124MOL   H21729983   6.760   1.281   3.820 -0.0701  0.8906  0.9748
  124MOL   C21829984   7.153   0.998   3.696  0.5711 -0.3930  0.0490
  124MOL   C21929985   7.071   0.871   3.671 -0.6200 -0.2959  0.8909
  124MOL   O22029986   6.993   0.901   3.551 -0.0677  0.0492 -0.1199
  124MOL   C22129987   6.858   0.913   3.554 -0.3882  0.2499 -0.1846
  124MOL   C22229988   6.784   0.898   3.425  0.2730 -0.4124  0.1521
  124MOL   O22329989   6.793   0.935   3.663  0.2174  0.6285 -0.1072
  124MOL   H22429990   7.141   1.077   3.622  1.3921 -3.3163 -3.3213
  124MOL   H22529991   7.260   0.978   3.710  0.4065 -0.8847  0.6321
  124MOL   H22629992   7.002   0.864   3.755 -1.4895 -1.2816  0.1024
  124MOL   H22729993   6.842   0.951   3.349 -0.8391  0.2489 -0.2478
  124MOL   H22829994   6.677   0.922   3.427  0.5975  0.9810  1.4930
  124MOL   H22929995   6.793   0.793   3.398  2.5891 -0.0067 -0.7822
  124MOL   C23029996   7.164   0.742   3.645 -1.0542  0.0366 -0.1465
  124MOL   C23129997   7.076   0.610   3.631  0.5017  0.5278  0.6428
  124MOL   O23229998   7.039   0.570   3.765 -0.1314  0.2089  0.5356
  124MOL   C23329999   7.116   0.487   3.836  0.5562  0.4217  1.2354
  124MOL   C23430000   7.059   0.465   3.980  0.3287  0.3557 -0.5700
  124MOL   O23530001   7.198   0.412   3.792 -1.2828 -0.4092  0.8105
  124MOL   H23630002   7.224   0.767   3.558 -1.5148  1.9083  0.0392
  124MOL   H23730003   7.233   0.724   3.726  1.5679 -1.1538 -2.5632
  124MOL   H23830004   7.114   0.529   3.569 -1.1144 -0.5728  1.0700
  124MOL   H23930005   7.126   0.436   4.061  0.2571  0.0435 -0.6219
  124MOL   H24030006   6.987   0.384   3.969 -1.3323  1.4572  1.7581
  124MOL   H24130007   7.010   0.558   4.010  0.1654  0.3966 -0.9565
  124MOL   H24230008   6.988   0.645   3.577 -0.2178  0.3542  1.6998
  125MOL     C130009   3.722   7.986   6.705 -0.2084  0.5227  0.7070
  125MOL     C230010   3.860   0.028   6.713 -0.2175  0.4386 -0.1544
  125MOL     O330011   3.930   7.954   6.636 -0.0809 -0.8392 -0.0622
  125MOL     C430012   4.047   7.907   6.678  0.2399  0.2189 -0.4221
  125MOL     C530013   4.103   7.797   6.588  0.0898  0.3924  0.7966
  125MOL     O630014   4.105   7.947   6.778 -0.4286  0.4499 -0.2308
  125MOL     H730015   3.646   0.034   6.743 -1.1058 -0.9900  1.7483
  125MOL     H830016   3.731   7.888   6.751 -0.3784  0.6492  1.0141
  125MOL     H930017   3.897   0.028   6.816 -0.5253  1.0139 -0.0411
  125MOL    H1030018   4.099   7.831   6.485 -0.4188 -0.4580  0.5316
  125MOL    H1130019   4.045   7.705   6.599 -0.1119  0.4446  0.1829
  125MOL    H1230020   4.208   7.783   6.616  0.3449  0.3771 -0.1657
  125MOL    H1330021   3.699   7.973   6.599 -0.5077 -0.5594  0.8946
  125MOL    C1430022   3.880   0.172   6.644  0.1089  0.6689  0.1761
  125MOL    C1530023   3.812   0.289   6.707 -0.6364  0.2115 -0.5113
  125MOL    O1630024   3.875   0.318   6.834  0.1031  0.3171 -0.0435
  125MOL    C1730025   3.810   0.279   6.946  0.4192  0.1861 -0.1432
  125MOL    C1830026   3.899   0.280   7.070 -0.1057  0.0924 -0.2547
  125MOL    O1930027   3.691   0.236   6.957 -0.4775 -0.5467  0.0602
  125MOL    H2030028   3.986   0.194   6.634  0.8564 -2.9697 -0.6904
  125MOL    H2130029   3.850   0.162   6.540 -0.0964 -1.5963  0.4302
  125MOL    H2230030   3.704   0.275   6.720 -0.6371 -0.9228 -1.6874
  125MOL    H2330031   3.836   0.245   7.152  0.1206  0.8173  0.2388
  125MOL    H2430032   3.929   0.384   7.087  0.7526 -0.1049 -0.5249
  125MOL    H2530033   3.986   0.217   7.053  1.1422  1.7493 -0.2177
  125MOL    C2630034   3.829   0.419   6.629 -0.6629 -0.2269 -0.0594
  125MOL    C2730035   3.759   0.538   6.696  0.1941  0.0152 -0.7329
  125MOL    O2830036   3.816   0.658   6.648 -0.3403 -0.0101  0.9285
  125MOL    C2930037   3.860   0.756   6.726 -0.1865  0.4697 -0.4241
  125MOL    C3030038   3.916   0.876   6.650 -0.2187  0.0733 -0.4940
  125MOL    O3130039   3.858   0.751   6.848  0.4383 -0.2236 -0.1204
  125MOL    H3230040   3.934   0.444   6.611 -0.5246  0.0217  1.1147
  125MOL    H3330041   3.789   0.409   6.528  0.6079 -0.1778 -0.5799
  125MOL    H3430042   3.785   0.535   6.801  0.6886  0.2822 -0.8451
  125MOL    H3530043   3.951   0.854   6.549  1.1652 -0.8640  0.1861
  125MOL    H3630044   4.006   0.905   6.703  1.0702 -2.2927 -1.3155
  125MOL    H3730045   3.839   0.953   6.648 -0.5872 -0.3192 -1.6430
  125MOL    C3830046   3.603   0.535   6.669 -0.5646 -0.4418  0.0850
  125MOL    C3930047   3.533   0.642   6.756 -0.0600 -0.2087 -0.5642
  125MOL    O4030048   3.408   0.691   6.704  0.1355 -0.3152  0.0308
  125MOL    C4130049   3.411   0.782   6.603 -0.1519  0.1648 -0.4519
  125MOL    C4230050   3.272   0.824   6.566 -0.0694 -0.1556 -0.0012
  125MOL    O4330051   3.510   0.831   6.546  0.5268  0.1597  0.5476
  125MOL    H4430052   3.588   0.540   6.561 -0.0714 -0.9421 -0.0104
  125MOL    H4530053   3.571   0.434   6.697  2.2463 -0.9919  1.4785
  125MOL    H4630054   3.597   0.729   6.768  0.4729 -0.8433  1.3402
  125MOL    H4730055   3.275   0.849   6.460 -0.1543 -2.1981 -0.5051
  125MOL    H4830056   3.237   0.901   6.636 -2.1047 -1.0023 -0.0619
  125MOL    H4930057   3.195   0.747   6.568  1.6263 -1.8782 -0.2586
  125MOL    C5030058   3.522   0.583   6.900 -0.2240  0.2527  0.3343
  125MOL    C5130059   3.525   0.687   7.016 -0.0576 -0.0508  0.5760
  125MOL    O5230060   3.407   0.773   7.001  0.4488 -0.5862  0.2844
  125MOL    C5330061   3.397   0.891   7.061 -0.2826 -0.0044  0.2684
  125MOL    C5430062   3.276   0.965   7.014  0.1448  0.2091 -0.1934
  125MOL    O5530063   3.485   0.942   7.124 -0.2831  0.0567  0.8196
  125MOL    H5630064   3.434   0.518   6.904 -0.2609  0.0135 -2.7775
  125MOL    H5730065   3.602   0.514   6.926  0.8970  1.6155  0.5478
  125MOL    H5830066   3.614   0.746   6.998 -0.5895  0.4158 -0.5886
  125MOL    H5930067   3.291   1.035   6.931  2.6481 -0.2689 -0.1856
  125MOL    H6030068   3.241   1.024   7.099 -2.4530  0.8181 -1.6385
  125MOL    H6130069   3.195   0.898   6.987  1.4373 -1.2366 -0.5724
  125MOL    C6230070   3.542   0.624   7.149 -0.6779 -0.0926 -0.0393
  125MOL    C6330071   3.431   0.526   7.193 -0.2803  0.1730  0.3502
  125MOL    O6430072   3.500   0.420   7.255  0.2865  0.9003  0.4456
  125MOL    C6530073   3.478   0.295   7.220 -0.3511  0.7262 -0.3859
  125MOL    C6630074   3.576   0.212   7.289 -0.1712  0.6429 -0.0848
  125MOL    O6730075   3.377   0.246   7.167  0.0042 -0.2319  0.3206
  125MOL    H6830076   3.639   0.576   7.140 -1.3268 -1.4010 -0.0558
  125MOL    H6930077   3.554   0.705   7.222  0.3264  1.2078 -1.5837
  125MOL    H7030078   3.369   0.496   7.108 -0.0092 -2.2173  0.9600
  125MOL    H7130079   3.659   0.281   7.303 -0.2134  0.5947  0.4094
  125MOL    H7230080   3.594   0.126   7.225  2.0849  0.3996  0.8254
  125MOL    H7330081   3.526   0.179   7.379 -0.2121 -0.1022 -0.3780
  125MOL    C7430082   3.338   0.578   7.301  0.2004 -0.1944  0.1852
  125MOL    C7530083   3.210   0.489   7.307 -0.6390  0.2682  0.9657
  125MOL    O7630084   3.162   0.484   7.436  0.0188 -0.3790  0.1856
  125MOL    C7730085   3.212   0.393   7.529 -0.0189 -0.2925  0.0867
  125MOL    C7830086   3.151   0.421   7.670 -0.1310  0.5462  0.6757
  125MOL    O7930087   3.293   0.298   7.502  0.1194 -0.2354 -0.0650
  125MOL    H8030088   3.391   0.580   7.396  0.0461 -1.4232  0.3076
  125MOL    H8130089   3.305   0.680   7.286  0.6304 -0.0565  0.1653
  125MOL    H8230090   3.222   0.385   7.279 -0.8878  0.7312 -0.9271
  125MOL    H8330091   3.159   0.336   7.738 -0.4803 -0.1498 -0.1523
  125MOL    H8430092   3.044   0.412   7.652  0.1801 -2.9083  0.1922
  125MOL    H8530093   3.177   0.516   7.716 -0.8592  0.4666  1.2655
  125MOL    C8630094   3.097   0.540   7.212  0.0722  0.4171  0.4616
  125MOL    C8730095   3.037   0.430   7.120 -0.6110  0.2079  0.0984
  125MOL    O8830096   3.149   0.393   7.045 -0.0381 -0.7825  0.3474
  125MOL    C8930097   3.132   0.307   6.950  0.3744  0.6864 -0.0761
  125MOL    C9030098   3.263   0.274   6.873 -0.1569  0.5334 -0.9035
  125MOL    O9130099   3.029   0.257   6.905 -0.0722  0.5182 -0.3703
  125MOL    H9230100   3.024   0.594   7.272 -0.9735  0.3096 -0.7005
  125MOL    H9330101   3.135   0.623   7.153 -1.5601  1.2173  0.5184
  125MOL    H9430102   2.961   0.466   7.050 -1.0488 -1.9874 -0.6039
  125MOL    H9530103   3.334   0.219   6.935 -1.2610 -0.7962 -0.7810
  125MOL    H9630104   3.301   0.361   6.819  0.0153 -0.2197 -2.0003
  125MOL    H9730105   3.224   0.218   6.788  1.3957  0.0240 -1.3089
  125MOL    C9830106   2.974   0.318   7.202  0.4189  0.2828 -0.0751
  125MOL    C9930107   2.817   0.320   7.204  0.1078  0.6285 -1.6805
  125MOL   O10030108   2.769   0.270   7.080  0.5152  0.6690 -0.9903
  125MOL   C10130109   2.651   0.306   7.029 -0.5492  0.1998  0.4671
  125MOL   C10230110   2.644   0.253   6.884 -0.0437 -0.2464 -0.3177
  125MOL   O10330111   2.550   0.358   7.082 -0.3322 -0.2173 -0.2190
  125MOL   H10430112   3.014   0.218   7.185  0.1616  0.1925 -0.1587
  125MOL   H10530113   2.999   0.315   7.308 -1.3437  0.2821  0.3693
  125MOL   H10630114   2.776   0.421   7.198 -2.9407 -0.5723 -1.6085
  125MOL   H10730115   2.586   0.166   6.852  0.3572 -0.5882 -0.1145
  125MOL   H10830116   2.738   0.262   6.829 -0.5307 -0.5124 -1.2086
  125MOL   H10930117   2.581   0.322   6.827  1.1008 -1.0849 -2.6661
  125MOL   C11030118   2.759   0.233   7.317  0.2443  0.4909  1.0218
  125MOL   C11130119   2.770   0.288   7.455  0.5747  0.8471 -0.5170
  125MOL   O11230120   2.696   0.407   7.447  0.0857 -0.2506 -0.1229
  125MOL   C11330121   2.750   0.531   7.487 -0.3230  0.2438  0.3564
  125MOL   C11430122   2.647   0.650   7.496  0.6320  0.2885  0.3947
  125MOL   O11530123   2.868   0.545   7.513 -0.5458  0.1644  0.2272
  125MOL   H11630124   2.652   0.225   7.301  0.6539  0.2422 -1.8799
  125MOL   H11730125   2.796   0.131   7.325 -1.2958 -0.2137 -0.6921
  125MOL   H11830126   2.877   0.304   7.471  0.6088  0.4898 -0.3898
  125MOL   H11930127   2.670   0.700   7.590 -2.2281  2.1959  0.1565
  125MOL   H12030128   2.551   0.600   7.505  0.0518  1.7149  2.3882
  125MOL   H12130129   2.648   0.720   7.412  0.3718 -1.1664 -0.8368
  125MOL   C12230130   2.706   0.200   7.571 -0.1265 -0.0409 -0.2445
  125MOL   C12330131   2.766   0.053   7.584 -0.0049 -0.4234 -0.0058
  125MOL   O12430132   2.900   0.059   7.635  0.1931 -0.4142  0.5259
  125MOL   C12530133   3.006   0.040   7.556 -0.6504 -0.5381  0.5565
  125MOL   C12630134   3.139   0.016   7.632  0.6274 -0.2136 -0.5195
  125MOL   O12730135   2.999   0.030   7.432 -0.4138  0.2039  0.6751
  125MOL   H12830136   2.724   0.255   7.663  2.0054 -0.4767 -0.3859
  125MOL   H12930137   2.599   0.212   7.557 -0.2765  0.5268  1.3205
  125MOL   H13030138   2.768   0.005   7.487  1.1538 -2.1625  0.8477
  125MOL   H13130139   3.195   0.105   7.658  0.7264 -0.5750  0.5152
  125MOL   H13230140   3.203   7.980   7.564  1.0731 -1.3008  0.8086
  125MOL   H13330141   3.117   7.985   7.724  0.7098  1.1669  0.2911
  125MOL   C13430142   2.686   7.987   7.684 -0.1047  0.3914 -0.0071
  125MOL   C13530143   2.721   7.838   7.675 -0.1053  0.2707  0.0672
  125MOL   O13630144   2.819   7.812   7.772 -0.1915 -0.3135  0.5409
  125MOL   C13730145   2.942   7.772   7.750  0.5708  0.4076 -0.1561
  125MOL   C13830146   3.019   7.771   7.875 -0.3985 -0.4914 -0.3923
  125MOL   O13930147   2.988   7.735   7.643  0.0700 -0.4549  0.2850
  125MOL   H14030148   2.676   0.005   7.785  0.4423  2.9636 -0.9068
  125MOL   H14130149   2.582   7.984   7.650  0.5001 -0.5923 -1.8656
  125MOL   H14230150   2.761   7.817   7.576 -1.3195 -0.5234 -0.2700
  125MOL   H14330151   3.103   7.704   7.860  1.7535  2.1447 -0.5104
  125MOL   H14430152   2.963   7.727   7.957 -0.7657  0.1395 -0.2979
  125MOL   H14530153   3.067   7.865   7.903 -0.0805 -1.0873  1.0822
  125MOL   C14630154   2.598   7.748   7.710 -0.0427  0.5364 -0.4320
  125MOL   C14730155   2.611   7.596   7.678  0.1032  0.2943 -0.0374
  125MOL   O14830156   2.689   7.530   7.771  0.2785 -0.2291  0.1825
  125MOL   C14930157   2.778   7.438   7.727 -1.1954  0.1609  0.0025
  125MOL   C15030158   2.852   7.369   7.842 -0.0753  0.5972  0.3733
  125MOL   O15130159   2.793   7.410   7.612 -0.2486  0.3732  0.5752
  125MOL   H15230160   2.555   7.759   7.810  0.0319 -1.6594 -0.1270
  125MOL   H15330161   2.517   7.775   7.642  2.1486  0.3881 -3.2024
  125MOL   H15430162   2.656   7.582   7.580  1.7607 -2.1937  1.0286
  125MOL   H15530163   2.869   7.442   7.921 -0.2249 -0.8286  1.7504
  125MOL   H15630164   2.947   7.331   7.804 -0.3707  1.0623 -0.8525
  125MOL   H15730165   2.786   7.286   7.870  0.2662  0.1006 -0.2708
  125MOL   C15830166   2.482   7.509   7.665 -0.3851  0.0921  0.2573
  125MOL   C15930167   2.375   7.574   7.572  1.0420  0.5427  0.0454
  125MOL   O16030168   2.422   7.575   7.440 -0.3290  0.0003 -0.1254
  125MOL   C16130169   2.442   7.693   7.367 -0.0439 -0.3056  0.4066
  125MOL   C16230170   2.470   7.670   7.218 -0.4743  0.3722 -0.0565
  125MOL   O16330171   2.435   7.804   7.421 -0.5379  0.2031 -0.5142
  125MOL   H16430172   2.516   7.416   7.619 -1.7869  0.6138 -1.8884
  125MOL   H16530173   2.450   7.488   7.767  1.1048  2.3254  1.2233
  125MOL   H16630174   2.352   7.675   7.606  1.2676  0.8096 -0.5846
  125MOL   H16730175   2.439   7.575   7.175 -0.1320 -0.0668  0.6597
  125MOL   H16830176   2.573   7.696   7.195 -1.2542  1.2881 -2.6893
  125MOL   H16930177   2.425   7.754   7.165 -1.7352 -1.0282 -1.2510
  125MOL   C17030178   2.252   7.484   7.565  0.1285  0.3195 -0.8646
  125MOL   C17130179   2.172   7.489   7.701  0.4257 -0.4053 -0.2133
  125MOL   O17230180   2.124   7.620   7.729 -0.3388  0.5700  0.0408
  125MOL   C17330181   2.092   7.651   7.860 -0.7676 -0.1132 -0.2179
  125MOL   C17430182   2.030   7.790   7.854 -0.4024  0.8142 -0.0479
  125MOL   O17530183   2.105   7.579   7.960  0.2440 -0.0619 -0.5812
  125MOL   H17630184   2.189   7.530   7.489 -0.7521  0.7302  0.0893
  125MOL   H17730185   2.275   7.380   7.542 -1.3489 -0.6474  1.7321
  125MOL   H17830186   2.231   7.459   7.787 -0.3090 -1.7063 -0.1521
  125MOL   H17930187   1.927   7.764   7.828 -0.5745  0.3625  1.0451
  125MOL   H18030188   2.067   7.850   7.770  0.2260  0.1196 -0.2658
  125MOL   H18130189   2.033   7.838   7.952  0.6435 -1.1744  0.9148
  125MOL   C18230190   2.051   7.391   7.693 -0.0018 -0.5350 -0.3296
  125MOL   C18330191   2.078   7.252   7.743 -0.4946  0.4872 -0.2675
  125MOL   O18430192   2.161   7.195   7.648  0.0683  0.1013  0.2100
  125MOL   C18530193   2.134   7.069   7.597 -0.6673  0.4396 -0.3413
  125MOL   C18630194   2.229   7.016   7.499 -0.2621 -0.2405  0.4114
  125MOL   O18730195   2.030   7.005   7.626  0.2588 -0.2801  0.1093
  125MOL   H18830196   1.982   7.434   7.766  0.3520  4.4042 -2.6894
  125MOL   H18930197   1.990   7.391   7.603  2.1433  0.2449 -1.8237
  125MOL   H19030198   1.984   7.199   7.726 -0.4607 -0.4745  2.2521
  125MOL   H19130199   2.225   6.909   7.475  1.0642 -0.0773 -0.6210
  125MOL   H19230200   2.332   7.047   7.518 -0.3685 -0.6806  1.7483
  125MOL   H19330201   2.199   7.059   7.404  0.7065 -0.8704 -0.1901
  125MOL   C19430202   2.131   7.239   7.886  0.2728  0.8020 -0.0737
  125MOL   C19530203   2.115   7.105   7.955  0.1576  0.3539  0.2360
  125MOL   O19630204   2.182   7.103   0.060  0.1535  0.5271 -0.3244
  125MOL   C19730205   2.310   7.103   0.061  0.7040  0.1692  0.7193
  125MOL   C19830206   2.372   7.157   0.188  0.0651 -0.5138 -0.0557
  125MOL   O19930207   2.384   7.073   7.993 -0.7025  0.3548 -0.0358
  125MOL   H20030208   2.235   7.271   7.895  0.6655 -1.0530  2.3793
  125MOL   H20130209   2.079   7.310   7.950  1.6995  1.2364  0.6301
  125MOL   H20230210   2.144   7.032   7.879 -1.5047  0.6813 -0.7279
  125MOL   H20330211   2.356   7.089   0.271 -0.0148  0.3987  0.6890
  125MOL   H20430212   2.331   7.257   0.204  2.5813  0.7698 -1.3546
  125MOL   H20530213   2.477   7.162   0.159  0.4582 -2.8686  0.8797
  125MOL   C20630214   1.966   7.063   7.997  0.4692 -0.5382 -0.0702
  125MOL   C20730215   1.939   6.926   0.034 -1.0794 -0.6818 -0.2772
  125MOL   O20830216   1.802   6.935   0.080  0.2745 -0.1059 -0.6318
  125MOL   C20930217   1.769   6.887   0.198  0.1137  0.2591  0.0913
  125MOL   C21030218   1.643   6.954   0.248  0.1028  0.0206  0.1638
  125MOL   O21130219   1.830   6.791   0.252 -0.1396 -0.3685 -0.1175
  125MOL   H21230220   1.934   7.138   0.048  0.3840 -0.5469 -0.0974
  125MOL   H21330221   1.900   7.071   7.910  1.5069 -0.8801 -0.8934
  125MOL   H21430222   2.010   6.915   0.115 -2.5448  0.7017  1.2304
  125MOL   H21530223   1.656   6.962   0.356  1.6197  0.5005 -0.0434
  125MOL   H21630224   1.548   6.906   0.226  1.5648 -1.7990 -2.4894
  125MOL   H21730225   1.630   7.046   0.191  0.3683 -1.2632 -2.0220
  125MOL   C21830226   1.954   6.804   7.952  0.0578  0.4376  0.1518
  125MOL   C21930227   2.096   6.748   7.936 -0.1819 -0.3887 -0.4824
  125MOL   O22030228   2.132   6.654   0.013 -0.3165  0.0665 -0.1263
  125MOL   C22130229   2.195   6.692   0.129  0.6643 -0.3479 -0.5825
  125MOL   C22230230   2.181   6.580   0.235 -0.1134  0.1683 -0.4337
  125MOL   O22330231   2.240   6.801   0.165  0.5159  0.0292 -0.3569
  125MOL   H22430232   1.890   6.722   7.984 -3.9559  3.3342 -0.1711
  125MOL   H22530233   1.904   6.837   7.862 -1.7283  0.3878  1.1035
  125MOL   H22630234   2.157   6.837   7.949 -1.2317  0.3622 -0.6139
  125MOL   H22730235   2.248   6.501   0.200  2.7077  1.1114  2.4710
  125MOL   H22830236   2.079   6.542   0.236  0.0860 -0.4003 -1.2153
  125MOL   H22930237   2.216   6.625   0.329  1.7123  2.6195 -2.2149
  125MOL   C23030238   2.125   6.691   7.795 -0.1350  0.6968  0.8495
  125MOL   C23130239   2.280   6.682   7.779  0.1109 -0.0818 -0.0125
  125MOL   O23230240   2.323   6.544   7.799  0.1648 -0.2808 -0.3571
  125MOL   C23330241   2.412   6.495   7.713  0.1752 -0.9257 -0.7650
  125MOL   C23430242   2.473   6.357   7.741  0.0175 -0.3700  0.3702
  125MOL   O23530243   2.454   6.563   7.619  0.0713 -0.0133 -0.2041
  125MOL   H23630244   2.070   6.597   7.780  2.2819 -0.8963  1.7099
  125MOL   H23730245   2.088   6.769   7.729  2.9322  1.1727 -0.3515
  125MOL   H23830246   2.329   6.730   7.863  1.7339 -0.0338 -0.9525
  125MOL   H23930247   2.499   6.317   7.643  1.8628  1.6799 -0.0280
  125MOL   H24030248   2.412   6.290   7.802  1.1348 -0.8460  0.9896
  125MOL   H24130249   2.570   6.369   7.789 -0.1036 -3.0204  1.3946
  125MOL   H24230250   2.313   6.715   7.681 -0.9979 -2.3451 -1.1922
  126MOL     C130251   7.530   2.823   0.350  0.5622 -0.2501  0.1302
  126MOL     C230252   7.561   2.686   0.425 -0.3162 -0.4884  0.0683
  126MOL     O330253   7.603   2.611   0.308 -0.4793  0.3316  0.0459
  126MOL     C430254   7.516   2.516   0.260 -0.0302 -0.7806 -0.1557
  126MOL     C530255   7.564   2.466   0.126  0.5566  0.2537 -0.3450
  126MOL     O630256   7.414   2.479   0.314 -0.2734 -0.0166 -0.2797
  126MOL     H730257   7.459   2.804   0.270  0.4302  0.8733 -0.0246
  126MOL     H830258   7.617   2.877   0.312  1.5713 -2.1974 -0.3552
  126MOL     H930259   7.474   2.647   0.480  0.0497  1.0156  1.7602
  126MOL    H1030260   7.611   2.538   0.059  2.7905 -1.9284 -1.2137
  126MOL    H1130261   7.476   2.415   0.086  1.2801 -1.8346  0.6265
  126MOL    H1230262   7.645   2.395   0.145 -1.0329 -1.1055  1.4656
  126MOL    H1330263   7.467   2.888   0.411  2.9462  1.2026  1.1097
  126MOL    C1430264   7.667   2.699   0.532  0.6232  0.7746  0.0113
  126MOL    C1530265   7.739   2.564   0.557  0.0280  0.5996  0.2201
  126MOL    O1630266   7.832   2.583   0.663 -0.2511 -0.5666  0.4577
  126MOL    C1730267   7.965   2.552   0.647  0.1636  0.7896  0.0873
  126MOL    C1830268   0.027   2.575   0.775  0.3672  0.5210 -0.4993
  126MOL    O1930269   8.019   2.515   0.542  0.2608 -0.3254 -0.2133
  126MOL    H2030270   7.733   2.783   0.511  0.6261  0.1794 -2.6423
  126MOL    H2130271   7.615   2.731   0.622  2.3273  1.8659  0.6252
  126MOL    H2230272   7.791   2.548   0.463  1.7841 -0.5612  1.3612
  126MOL    H2330273   0.088   2.664   0.755  0.2683  1.3631  2.7998
  126MOL    H2430274   0.089   2.487   0.795 -0.2408  0.4019  0.8703
  126MOL    H2530275   7.990   2.599   0.863  1.1222  0.0222  0.1411
  126MOL    C2630276   7.645   2.443   0.591  0.0186 -0.0341  0.0058
  126MOL    C2730277   7.725   2.315   0.568 -0.0600 -0.5421  0.3503
  126MOL    O2830278   7.702   2.209   0.667  0.1275  0.1530  0.0443
  126MOL    C2930279   7.772   2.212   0.777  0.1446 -0.2465  0.3632
  126MOL    C3030280   7.758   2.079   0.847 -0.1905  0.5261  0.0448
  126MOL    O3130281   7.850   2.299   0.815  0.4231  0.0314  0.0369
  126MOL    H3230282   7.620   2.455   0.697  0.3973 -0.3725  0.1344
  126MOL    H3330283   7.553   2.460   0.535  1.3607 -0.9808 -2.5671
  126MOL    H3430284   7.827   2.352   0.571 -1.0767  2.5771 -0.7803
  126MOL    H3530285   7.784   2.093   0.952  0.7963 -2.6384  0.2523
  126MOL    H3630286   7.820   2.012   0.788 -0.7621  1.6289 -1.8751
  126MOL    H3730287   7.655   2.043   0.842 -0.5524  1.7796 -2.9525
  126MOL    C3830288   7.707   2.251   0.429 -0.2267 -0.1179  0.4300
  126MOL    C3930289   7.809   2.138   0.409 -0.3625 -0.3351  0.0391
  126MOL    O4030290   7.740   2.016   0.446  0.3823 -0.4230  0.1596
  126MOL    C4130291   7.805   1.931   0.522 -0.0678 -0.3884 -0.6402
  126MOL    C4230292   7.730   1.798   0.542 -0.6690 -0.0619 -0.5219
  126MOL    O4330293   7.913   1.954   0.575  0.1449 -0.2417 -0.4814
  126MOL    H4430294   7.608   2.209   0.414 -0.3145 -0.7150  2.4717
  126MOL    H4530295   7.738   2.332   0.364  1.7134  0.7072  2.2938
  126MOL    H4630296   7.883   2.155   0.487 -2.4816  1.0035  1.7885
  126MOL    H4730297   7.656   1.793   0.462 -2.2247  2.1573  0.7275
  126MOL    H4830298   7.690   1.800   0.643  0.1630  0.7856 -0.2096
  126MOL    H4930299   7.804   1.720   0.528  1.3255  1.7443 -0.1617
  126MOL    C5030300   7.895   2.125   0.276 -0.4103  0.1490  0.4015
  126MOL    C5130301   8.015   2.223   0.262 -0.1804  0.2806 -0.1643
  126MOL    O5230302   7.962   2.356   0.241  0.4197 -0.1846  0.0607
  126MOL    C5330303   8.014   2.434   0.143  0.3800  0.2854 -0.1413
  126MOL    C5430304   7.946   2.568   0.123  0.2975 -0.6450 -0.7571
  126MOL    O5530305   0.092   2.406   0.076  0.4191 -0.5279  0.1363
  126MOL    H5630306   7.945   2.028   0.273  0.0978  0.3236  2.5191
  126MOL    H5730307   7.826   2.135   0.192 -0.5273  3.6726  0.8464
  126MOL    H5830308   0.051   2.192   0.174  0.3364  0.3896  0.1294
  126MOL    H5930309   7.936   2.634   0.209 -0.2605 -1.0768 -0.4853
  126MOL    H6030310   7.853   2.555   0.067  0.6899 -1.8289 -1.1388
  126MOL    H6130311   8.007   2.616   0.046 -1.4801 -0.0700 -1.8436
  126MOL    C6230312   0.093   2.200   0.378 -0.3166 -0.2870 -0.3452
  126MOL    C6330313   0.232   2.266   0.355  1.0005  0.2881 -0.6944
  126MOL    O6430314   0.284   2.263   0.487  0.5578 -0.0905  0.2532
  126MOL    C6530315   0.330   2.372   0.543  0.4313  0.1145  0.3645
  126MOL    C6630316   0.374   2.349   0.689 -0.4189 -0.8744 -0.1306
  126MOL    O6730317   0.363   2.474   0.480 -0.1798 -0.3422  0.4760
  126MOL    H6830318   0.040   2.237   0.466 -0.9278  0.1104 -0.8752
  126MOL    H6930319   0.116   2.094   0.393  0.2010  0.1119  1.8855
  126MOL    H7030320   0.230   2.371   0.327  0.1950  0.7028  0.8799
  126MOL    H7130321   0.291   2.398   0.740  1.0743  0.0555  1.4593
  126MOL    H7230322   0.465   2.407   0.703 -1.3238  0.4791  0.2616
  126MOL    H7330323   0.398   2.249   0.726 -0.9534 -0.1177  2.3192
  126MOL    C7430324   0.323   2.186   0.262  0.1504  0.4654 -0.4447
  126MOL    C7530325   0.446   2.267   0.211  0.0494 -0.5178 -0.1039
  126MOL    O7630326   0.547   2.175   0.184 -0.6685 -0.0311  0.0048
  126MOL    C7730327   0.641   2.126   0.272  0.3339 -0.4788 -0.5535
  126MOL    C7830328   0.730   2.006   0.231  0.1050 -0.2586 -0.2233
  126MOL    O7930329   0.630   2.159   0.389 -0.6261 -0.0841 -0.3064
  126MOL    H8030330   0.339   2.082   0.289  1.0340  0.9012  0.7475
  126MOL    H8130331   0.261   2.181   0.173 -0.8055  0.7637  0.2001
  126MOL    H8230332   0.471   2.339   0.289 -0.3557  0.8899 -1.2555
  126MOL    H8330333   0.669   1.937   0.172  0.3487 -2.0112  1.5070
  126MOL    H8430334   0.759   1.940   0.313 -0.2732 -0.2003 -0.0459
  126MOL    H8530335   0.817   2.032   0.171 -0.5939 -0.0474 -1.1595
  126MOL    C8630336   0.420   2.362   0.093 -0.3656 -0.2147 -0.4406
  126MOL    C8730337   0.554   2.432   0.041 -0.1362  0.0736  1.0940
  126MOL    O8830338   0.516   2.467   7.933 -0.3870  0.0737 -0.5298
  126MOL    C8930339   0.553   2.405   7.821  0.0238 -0.1655 -0.4642
  126MOL    C9030340   0.480   2.457   7.701  0.2059  0.8367 -0.3002
  126MOL    O9130341   0.638   2.316   7.818 -0.3934 -0.2679 -0.0353
  126MOL    H9230342   0.374   2.301   0.015  1.3476 -4.0462  1.4242
  126MOL    H9330343   0.354   2.442   0.125  1.8588  1.9787 -1.2208
  126MOL    H9430344   0.631   2.355   0.039 -1.0867 -0.8702  0.3075
  126MOL    H9530345   0.421   2.375   7.659  0.7452  0.4065 -0.2243
  126MOL    H9630346   0.543   2.499   7.623  4.0748 -1.2524  1.5489
  126MOL    H9730347   0.406   2.527   7.739 -0.1063 -0.5334  1.7022
  126MOL    C9830348   0.618   2.562   0.102 -0.8097 -0.3806 -0.8621
  126MOL    C9930349   0.763   2.545   0.167 -0.2674 -0.4802  0.2628
  126MOL   O10030350   0.755   2.461   0.282 -0.4645 -0.0031 -0.8289
  126MOL   C10130351   0.740   2.517   0.413  0.1854 -0.5645  0.3268
  126MOL   C10230352   0.720   2.416   0.528  0.2593  0.0072  0.4374
  126MOL   O10330353   0.743   2.635   0.434 -0.1576 -0.0893  0.3935
  126MOL   H10430354   0.624   2.645   0.033 -0.8836 -0.6699 -1.2200
  126MOL   H10530355   0.560   2.589   0.191  1.3081 -0.5323  0.5928
  126MOL   H10630356   0.793   2.643   0.205 -0.6810 -0.0421 -0.5301
  126MOL   H10730357   0.759   2.462   0.619 -0.6056  0.0343  0.8025
  126MOL   H10830358   0.766   2.321   0.500 -0.1396 -0.2265  0.5668
  126MOL   H10930359   0.616   2.390   0.550 -0.2072  0.7825 -0.7437
  126MOL   C11030360   0.872   2.510   0.067 -0.2239 -0.5100  0.1177
  126MOL   C11130361   0.921   2.622   7.996 -0.3769  1.0707  0.2386
  126MOL   O11230362   0.988   2.721   0.051 -0.0744  0.0222 -0.4162
  126MOL   C11330363   0.958   2.858   0.037  0.3583  0.0933  0.2977
  126MOL   C11430364   1.022   2.939   0.143 -0.4489  0.5433 -0.2213
  126MOL   O11530365   0.876   2.915   7.981 -0.5287  0.0733  0.8284
  126MOL   H11630366   0.958   2.462   0.114 -0.9455  0.8155  2.9359
  126MOL   H11730367   0.841   2.427   0.003 -1.2482  1.6422 -2.2308
  126MOL   H11830368   0.838   2.681   7.957 -1.3091 -0.0458  0.5065
  126MOL   H11930369   1.056   3.036   0.105  1.7421  0.0370  0.4139
  126MOL   H12030370   1.106   2.893   0.194 -0.4783  0.2765 -0.4123
  126MOL   H12130371   0.939   2.933   0.215  0.1090 -0.2777  0.3529
  126MOL   C12230372   1.020   2.578   7.878 -0.2174 -0.5058  0.2619
  126MOL   C12330373   0.957   2.564   7.742  0.3446  0.0785  0.0303
  126MOL   O12430374   0.912   2.692   7.694  0.6742 -0.6836  0.4086
  126MOL   C12530375   0.779   2.729   7.703  0.4375  0.2533  0.0378
  126MOL   C12630376   0.749   2.858   7.636 -0.0355  0.1939  0.0844
  126MOL   O12730377   0.693   2.665   7.763 -0.1509 -0.0625  0.6875
  126MOL   H12830378   1.102   2.649   7.867 -0.5208 -0.0391  0.9398
  126MOL   H12930379   1.066   2.483   7.906  1.1073 -0.4073 -1.5235
  126MOL   H13030380   0.872   2.498   7.760 -0.3661  0.6410 -1.2485
  126MOL   H13130381   0.662   2.897   7.690 -0.1223  1.0264 -0.6367
  126MOL   H13230382   0.719   2.845   7.532  0.8762  2.1051 -0.4555
  126MOL   H13330383   0.822   2.939   7.640 -0.3738  0.4330  2.2807
  126MOL   C13430384   1.045   2.494   7.636  0.2722 -0.1328  0.5033
  126MOL   C13530385   0.966   2.441   7.519  0.8927 -0.1551 -0.2227
  126MOL   O13630386   1.040   2.415   7.401  0.3046 -0.3241  0.4081
  126MOL   C13730387   1.043   2.499   7.305 -0.4695  0.7962 -0.4888
  126MOL   C13830388   1.133   2.457   7.191  0.3099  0.1519  0.0967
  126MOL   O13930389   0.982   2.600   7.304  0.5577  0.7240 -0.2729
  126MOL   H14030390   1.118   2.568   7.603 -0.3984  1.2507  2.0688
  126MOL   H14130391   1.118   2.422   7.673  1.1984  0.6065  0.1603
  126MOL   H14230392   0.887   2.514   7.496  3.4295  2.4284 -1.0012
  126MOL   H14330393   1.089   2.379   7.129  1.6116  0.6583 -1.4930
  126MOL   H14430394   1.230   2.422   7.228 -0.2856  1.2866  2.8831
  126MOL   H14530395   1.163   2.540   7.128 -2.3135 -0.5378 -2.1877
  126MOL   C14630396   0.888   2.308   7.545  0.2775 -0.2160 -0.2713
  126MOL   C14730397   0.971   2.178   7.586 -1.0961  0.7917 -0.0693
  126MOL   O14830398   0.900   2.087   7.660  0.3450 -0.6369 -0.1907
  126MOL   C14930399   0.887   2.098   7.800  0.6570  0.0925  0.6820
  126MOL   C15030400   0.765   2.030   7.861  0.5715  0.3710  0.1421
  126MOL   O15130401   0.956   2.170   7.877  0.4753 -0.2140  0.0701
  126MOL   H15230402   0.827   2.340   7.629  0.3122  0.3910 -0.4704
  126MOL   H15330403   0.824   2.290   7.459  1.4274  4.4013 -2.2542
  126MOL   H15430404   1.066   2.206   7.631  0.4056 -1.1295 -1.9227
  126MOL   H15530405   0.798   1.962   7.940 -0.5014  1.8870  1.9310
  126MOL   H15630406   0.707   1.982   7.782 -1.9839  1.3857  1.3729
  126MOL   H15730407   0.696   2.094   7.915  0.3483 -1.0379  1.5778
  126MOL   C15830408   1.012   2.103   7.454 -1.1784  0.5191 -0.2431
  126MOL   C15930409   1.148   2.021   7.475  0.5957 -0.5076  0.3582
  126MOL   O16030410   1.153   1.901   7.402 -0.3268 -0.0837  0.0776
  126MOL   C16130411   1.132   1.781   7.464  0.2595  0.1044 -0.9281
  126MOL   C16230412   1.160   1.662   7.370  0.5004 -0.1100 -0.5008
  126MOL   O16330413   1.094   1.765   7.580 -0.1962 -0.4879 -0.8249
  126MOL   H16430414   0.929   2.041   7.419 -2.9453  1.4344  2.2070
  126MOL   H16530415   1.026   2.175   7.373  0.1051  0.3582 -0.1760
  126MOL   H16630416   1.167   1.995   7.579 -0.0048 -1.1742  0.2986
  126MOL   H16730417   1.190   1.574   7.427 -2.0795 -1.0760 -0.5886
  126MOL   H16830418   1.239   1.693   7.301 -0.7557 -0.8938 -2.3327
  126MOL   H16930419   1.071   1.639   7.312  0.2306 -0.2133 -0.0444
  126MOL   C17030420   1.263   2.114   7.425 -0.2645 -0.4090 -0.1427
  126MOL   C17130421   1.402   2.055   7.454 -0.4663 -0.0867  0.6250
  126MOL   O17230422   1.437   1.958   7.353 -0.4898  0.3019  0.1741
  126MOL   C17330423   1.492   1.838   7.390  0.0809 -0.2709 -0.4959
  126MOL   C17430424   1.514   1.744   7.278  0.7905  0.8984  0.2739
  126MOL   O17530425   1.513   1.803   7.506 -0.1785  0.5729 -0.3870
  126MOL   H17630426   1.246   2.144   7.322  0.4351  2.3463  0.4840
  126MOL   H17730427   1.252   2.213   7.471  2.1088 -0.6863  1.1082
  126MOL   H17830428   1.398   2.008   7.552 -0.1350 -0.9676  0.2152
  126MOL   H17930429   1.495   1.799   7.185 -0.8996  0.8747  0.5958
  126MOL   H18030430   1.433   1.671   7.274  0.2688  1.5018 -0.4705
  126MOL   H18130431   1.615   1.704   7.268  0.6949  0.7782 -0.2554
  126MOL   C18230432   1.518   2.150   7.467  0.1058 -0.1633 -0.5241
  126MOL   C18330433   1.534   2.259   7.355  0.1470  0.4493 -0.4232
  126MOL   O18430434   1.577   2.385   7.418  0.2955 -0.6695  0.1739
  126MOL   C18530435   1.492   2.475   7.467  0.1020  0.2002 -0.0510
  126MOL   C18630436   1.560   2.600   7.510 -0.0299 -0.4653  0.1964
  126MOL   O18730437   1.373   2.462   7.480 -0.0412  0.0886 -0.0721
  126MOL   H18830438   1.511   2.197   7.565 -1.7724 -2.4856  0.5255
  126MOL   H18930439   1.602   2.086   7.495 -0.8020 -1.6618 -1.1543
  126MOL   H19030440   1.434   2.276   7.316  0.1389 -0.0407 -0.6240
  126MOL   H19130441   1.502   2.692   7.502  0.9556  0.3213  1.9872
  126MOL   H19230442   1.646   2.619   7.445 -0.1927  1.2541  0.4445
  126MOL   H19330443   1.591   2.596   7.614  0.9188 -0.8007 -0.0975
  126MOL   C19430444   1.620   2.205   7.246  0.0034  0.4292 -0.5458
  126MOL   C19530445   1.634   2.288   7.120 -0.2950  0.1661 -0.1160
  126MOL   O19630446   1.726   2.397   7.156 -0.5851 -0.4430 -0.1187
  126MOL   C19730447   1.707   2.525   7.117  0.1542  0.0848 -0.3417
  126MOL   C19830448   1.779   2.615   7.217  0.2467  0.5092  0.1377
  126MOL   O19930449   1.628   2.566   7.035  0.1259 -0.7544  0.6643
  126MOL   H20030450   1.719   2.184   7.287 -0.1691 -0.2063 -0.4602
  126MOL   H20130451   1.576   2.107   7.230  0.8796 -0.1523  0.5828
  126MOL   H20230452   1.542   2.327   7.077  0.4861 -0.6873 -2.6915
  126MOL   H20330453   1.885   2.629   7.194  0.2516  0.1828 -0.0389
  126MOL   H20430454   1.776   2.566   7.314 -1.7280  1.8858  0.8067
  126MOL   H20530455   1.734   2.713   7.236  0.4155  0.3491  1.4212
  126MOL   C20630456   1.702   2.218   7.006 -0.9323 -0.3228  0.4690
  126MOL   C20730457   1.618   2.098   6.946 -0.0646 -0.0141 -0.4286
  126MOL   O20830458   1.492   2.148   6.895 -0.2548 -0.1839 -0.0702
  126MOL   C20930459   1.369   2.125   6.951  0.1712 -0.7591  0.6284
  126MOL   C21030460   1.255   2.171   6.865  0.6793 -0.0973  0.8422
  126MOL   O21130461   1.350   2.074   7.055  0.1260 -0.3808 -0.3177
  126MOL   H21230462   1.724   2.291   6.928  0.9329 -2.4156 -1.0165
  126MOL   H21330463   1.802   2.192   7.042 -0.7794 -0.3756  0.0048
  126MOL   H21430464   1.608   2.028   7.029 -2.9864  1.9017  0.9235
  126MOL   H21530465   1.176   2.096   6.871 -0.8157  1.3404 -0.3496
  126MOL   H21630466   1.282   2.179   6.760 -0.4181 -0.4156  0.5342
  126MOL   H21730467   1.221   2.274   6.881  1.0654  0.7129 -3.1175
  126MOL   C21830468   1.676   2.017   6.831 -0.2145 -0.3614  0.3809
  126MOL   C21930469   1.660   1.867   6.830 -0.5694 -0.3342  0.0871
  126MOL   O22030470   1.521   1.835   6.806 -0.1142  0.4697  0.4407
  126MOL   C22130471   1.460   1.726   6.871 -0.8177  0.0680 -0.2222
  126MOL   C22230472   1.313   1.702   6.836 -0.7157 -0.1263  0.2840
  126MOL   O22330473   1.519   1.640   6.940 -0.0252  0.9180 -0.1443
  126MOL   H22430474   1.640   2.054   6.735  0.0466  0.6662  0.6744
  126MOL   H22530475   1.783   2.040   6.826  0.4358 -3.0555  0.8083
  126MOL   H22630476   1.688   1.831   6.929 -1.2658  1.6031  1.0084
  126MOL   H22730477   1.286   1.717   6.731  0.6837  0.7484  0.0305
  126MOL   H22830478   1.253   1.768   6.899  0.5367  0.7570  0.5805
  126MOL   H22930479   1.289   1.599   6.863  0.9649 -0.0135  2.3454
  126MOL   C23030480   1.744   1.801   6.718  0.7350  0.2839 -0.1672
  126MOL   C23130481   1.785   1.653   6.741 -0.3253 -0.5697  0.6098
  126MOL   O23230482   1.876   1.603   6.642  0.3584  0.1084  0.3356
  126MOL   C23330483   1.869   1.472   6.612  0.3918 -0.0183 -0.1169
  126MOL   C23430484   1.991   1.415   6.540  0.2912 -0.5185 -0.3574
  126MOL   O23530485   1.780   1.394   6.648 -0.3030  0.2364  0.8173
  126MOL   H23630486   1.676   1.796   6.632  1.5282  0.4030 -0.8019
  126MOL   H23730487   1.825   1.868   6.690  2.0706 -2.1434 -2.3272
  126MOL   H23830488   1.700   1.588   6.758 -0.3978 -0.8717 -0.8613
  126MOL   H23930489   1.998   1.310   6.568  2.3965  0.1917  1.9648
  126MOL   H24030490   2.080   1.468   6.572 -0.1048  0.3258 -0.6534
  126MOL   H24130491   1.979   1.420   6.432  0.1701 -1.9236 -0.4198
  126MOL   H24230492   1.839   1.662   6.836 -0.0735 -1.1419  0.5237
  127MOL     C130493   0.084   4.840   4.961 -0.6027 -0.2723  0.2395
  127MOL     C230494   0.109   4.745   4.840 -0.2693 -0.6457 -0.6767
  127MOL     O330495   0.011   4.774   4.743  0.2113  0.2827  0.1874
  127MOL     C430496   7.973   4.668   4.675  0.1001  0.0225 -0.0807
  127MOL     C530497   7.866   4.711   4.584 -0.3378  0.2483  0.4568
  127MOL     O630498   7.999   4.549   4.691 -0.0543 -0.0662 -0.3877
  127MOL     H730499   7.998   4.842   4.974 -0.5385 -0.1375  0.7709
  127MOL     H830500   0.113   4.945   4.960 -0.1110 -0.4057  0.3874
  127MOL     H930501   0.090   4.644   4.875 -3.0781  0.6195  1.6866
  127MOL    H1030502   7.893   4.653   4.496  0.1595  0.5228  0.4238
  127MOL    H1130503   7.861   4.819   4.565  0.5366  0.3101  0.5367
  127MOL    H1230504   7.767   4.686   4.622 -1.8135  1.2078 -2.5628
  127MOL    H1330505   0.126   4.804   5.056  0.0825 -1.9772 -0.6744
  127MOL    C1430506   0.245   4.748   4.778  0.0803  0.6213  0.4904
  127MOL    C1530507   0.353   4.708   4.880 -0.3733 -0.2598 -0.3020
  127MOL    O1630508   0.323   4.572   4.918 -0.5711 -0.0150 -0.0224
  127MOL    C1730509   0.308   4.536   5.048  0.1972 -0.1186  1.2279
  127MOL    C1830510   0.273   4.388   5.053 -0.6910 -0.2022 -0.0708
  127MOL    O1930511   0.318   4.612   5.148 -0.0487 -0.8298 -0.2255
  127MOL    H2030512   0.262   4.685   4.690  1.3491  0.5935  0.7462
  127MOL    H2130513   0.266   4.849   4.744 -0.5839 -0.2837 -2.8637
  127MOL    H2230514   0.349   4.786   4.955 -0.1096 -1.5589  1.0814
  127MOL    H2330515   0.244   4.353   4.954 -3.1361  1.1149  0.1460
  127MOL    H2430516   0.200   4.372   5.132 -0.8469 -1.1394 -0.3938
  127MOL    H2530517   0.364   4.345   5.095 -0.4892  0.5057  0.2171
  127MOL    C2630518   0.498   4.718   4.825  0.2766  0.7865 -0.7299
  127MOL    C2730519   0.603   4.685   4.930 -0.1404 -0.2956 -1.1018
  127MOL    O2830520   0.722   4.648   4.855  0.5059  0.7956  0.7423
  127MOL    C2930521   0.784   4.533   4.887  0.5946  0.0419  0.3318
  127MOL    C3030522   0.907   4.488   4.808 -0.2898 -0.3070 -0.0926
  127MOL    O3130523   0.744   4.465   4.975 -0.1691 -0.3262 -0.3330
  127MOL    H3230524   0.510   4.654   4.737  0.0418  0.4538 -0.5198
  127MOL    H3330525   0.512   4.808   4.765 -2.1265 -0.0784 -2.6652
  127MOL    H3430526   0.563   4.602   4.988  0.3595 -0.0549 -0.4093
  127MOL    H3530527   0.893   4.393   4.758 -0.1281 -0.0582 -0.6165
  127MOL    H3630528   0.997   4.481   4.870 -1.0390 -1.9781  0.8333
  127MOL    H3730529   0.939   4.568   4.740 -0.1898  0.8520  1.2769
  127MOL    C3830530   0.632   4.807   5.026 -0.0494 -0.0789  0.2710
  127MOL    C3930531   0.714   4.766   5.148 -0.2023 -0.5701 -0.8184
  127MOL    O4030532   0.742   4.884   5.229 -0.4462  0.2700 -0.2230
  127MOL    C4130533   0.852   4.960   5.206  0.8531 -0.2914  0.0269
  127MOL    C4230534   0.843   5.098   5.263 -0.2967  0.1664 -0.0826
  127MOL    O4330535   0.955   4.925   5.146 -0.0340 -0.0194 -0.0679
  127MOL    H4430536   0.677   4.889   4.970  0.1649  0.5325  1.3284
  127MOL    H4530537   0.535   4.842   5.061 -1.0859 -2.1560 -0.4617
  127MOL    H4630538   0.800   4.720   5.099 -0.1639 -1.1243 -0.2294
  127MOL    H4730539   0.807   5.103   5.366 -0.5367  4.0997 -0.2647
  127MOL    H4830540   0.779   5.174   5.218 -1.2658  0.5264  1.8738
  127MOL    H4930541   0.941   5.145   5.270  0.0578 -0.6119  0.2349
  127MOL    C5030542   0.640   4.669   5.250 -0.1984 -0.4119 -0.7197
  127MOL    C5130543   0.719   4.641   5.379 -0.7782 -0.2432 -0.1825
  127MOL    O5230544   0.635   4.568   5.473  0.2425 -0.5924  0.0928
  127MOL    C5330545   0.609   4.607   5.596 -0.5227  0.6190 -0.2125
  127MOL    C5430546   0.522   4.501   5.661  0.3064 -0.1667 -0.0108
  127MOL    O5530547   0.656   4.707   5.656  0.4416 -0.0182  0.0411
  127MOL    H5630548   0.540   4.707   5.273  0.4295  1.5576 -1.1371
  127MOL    H5730549   0.624   4.570   5.207 -1.0027 -0.9480  0.7678
  127MOL    H5830550   0.732   4.738   5.427 -0.4636 -1.0434  1.3984
  127MOL    H5930551   0.436   4.482   5.597  0.4147  0.2666 -0.2813
  127MOL    H6030552   0.490   4.532   5.761 -0.8157  2.9430 -1.2855
  127MOL    H6130553   0.592   4.417   5.669  1.8353  1.1215  0.3018
  127MOL    C6230554   0.852   4.563   5.362  0.5374 -0.0370 -0.1774
  127MOL    C6330555   0.964   4.652   5.418 -0.2818  0.4428  0.2710
  127MOL    O6430556   0.952   4.694   5.553 -0.7429 -0.6842 -0.4971
  127MOL    C6530557   0.974   4.831   5.583  0.0112  0.4638 -0.8539
  127MOL    C6630558   0.984   4.855   5.730 -0.3836  1.1495  0.4416
  127MOL    O6730559   0.994   4.919   5.500  0.3603  0.0562  0.0507
  127MOL    H6830560   0.844   4.465   5.410  0.3723 -0.6389 -1.4089
  127MOL    H6930561   0.865   4.541   5.256 -1.3279 -1.3057 -0.1745
  127MOL    H7030562   0.961   4.741   5.355 -0.3282 -0.2766 -0.7638
  127MOL    H7130563   0.893   4.811   5.772 -0.5810 -0.1379 -1.3125
  127MOL    H7230564   0.987   4.960   5.762  2.0759  1.0054  0.7561
  127MOL    H7330565   1.075   4.815   5.773  0.1005  3.4480  1.6393
  127MOL    C7430566   1.107   4.591   5.406 -0.2602 -0.0264 -0.2446
  127MOL    C7530567   1.139   4.476   5.500  0.0791 -0.1433 -0.4856
  127MOL    O7630568   1.065   4.365   5.462 -0.2611  0.2774  0.1372
  127MOL    C7730569   1.022   4.272   5.552 -0.0711  0.3221 -0.7917
  127MOL    C7830570   0.937   4.153   5.499 -0.4392 -0.0458  0.2689
  127MOL    O7930571   1.040   4.276   5.672 -0.0441  0.3061  0.2612
  127MOL    H8030572   1.134   4.561   5.304 -0.0343  1.6249 -0.6742
  127MOL    H8130573   1.175   4.671   5.434 -0.4298 -0.5264  1.6044
  127MOL    H8230574   1.112   4.512   5.599  1.4503  2.5905 -1.0661
  127MOL    H8330575   0.886   4.083   5.565  1.4923 -1.8022 -0.0633
  127MOL    H8430576   1.000   4.092   5.435 -2.4347 -0.6077 -1.1927
  127MOL    H8530577   0.868   4.200   5.429  0.1036 -0.5560 -0.6126
  127MOL    C8630578   1.288   4.439   5.500  0.5279 -0.3065 -0.2481
  127MOL    C8730579   1.394   4.533   5.572  0.2766  0.8237 -0.8938
  127MOL    O8830580   1.411   4.640   5.489  0.1531  0.0598  0.1081
  127MOL    C8930581   1.514   4.634   5.400 -0.3579  0.4176  0.0702
  127MOL    C9030582   1.531   4.747   5.297 -0.5125  0.6276  0.4115
  127MOL    O9130583   1.604   4.551   5.404 -0.0096 -0.1784 -0.4362
  127MOL    H9230584   1.300   4.338   5.538 -0.1901 -0.3773 -0.2060
  127MOL    H9330585   1.327   4.433   5.398  1.7269 -2.0752  0.2805
  127MOL    H9430586   1.491   4.486   5.587 -0.3457 -0.4860 -0.9488
  127MOL    H9530587   1.478   4.719   5.205  0.8181  2.1340 -0.8441
  127MOL    H9630588   1.636   4.752   5.269 -0.8817 -1.6919 -1.5251
  127MOL    H9730589   1.498   4.840   5.342 -0.2445  0.8855  0.0755
  127MOL    C9830590   1.362   4.566   5.719 -0.1390  0.0975  0.1626
  127MOL    C9930591   1.452   4.669   5.780  0.3290  0.0312  1.2359
  127MOL   O10030592   1.402   4.802   5.762  0.3963  0.1125 -0.1989
  127MOL   C10130593   1.481   4.903   5.737  0.0436 -0.2478 -0.0584
  127MOL   C10230594   1.401   5.034   5.716  0.0607 -0.2943  0.6322
  127MOL   O10330595   1.605   4.895   5.720 -0.3722  0.0847  0.4537
  127MOL   H10430596   1.257   4.595   5.728 -0.4404 -0.9517  0.1465
  127MOL   H10530597   1.358   4.466   5.763 -0.6776 -1.0179 -2.3328
  127MOL   H10630598   1.551   4.655   5.738 -0.8455 -0.7107 -1.4125
  127MOL   H10730599   1.411   5.051   5.609 -1.6946 -1.4699  0.2694
  127MOL   H10830600   1.443   5.118   5.771 -1.0186  1.8379 -1.7190
  127MOL   H10930601   1.294   5.014   5.726 -0.1006 -0.6118 -1.6072
  127MOL   C11030602   1.463   4.652   5.933 -0.1941 -0.0562 -0.5985
  127MOL   C11130603   1.604   4.692   5.984 -0.0919  0.4072  0.0232
  127MOL   O11230604   1.601   4.707   6.124  0.7053  0.1518  0.1738
  127MOL   C11330605   1.586   4.825   6.187 -0.6598 -1.0220 -0.7230
  127MOL   C11430606   1.583   4.817   6.336 -0.1877  0.8791 -0.2182
  127MOL   O11530607   1.552   4.929   6.135 -0.0430  0.1207  0.0273
  127MOL   H11630608   1.387   4.715   5.978 -0.9811  1.7304 -4.2440
  127MOL   H11730609   1.458   4.549   5.969 -0.3036  0.0636 -0.2698
  127MOL   H11830610   1.625   4.789   5.940 -2.5356  1.1997  0.5243
  127MOL   H11930611   1.592   4.917   6.380  2.7711  0.0685  1.1629
  127MOL   H12030612   1.680   4.770   6.353  1.1862  2.9326 -1.9796
  127MOL   H12130613   1.504   4.768   6.392  2.7404 -1.4537  2.0316
  127MOL   C12230614   1.714   4.600   5.929  0.3837 -0.2624  0.6647
  127MOL   C12330615   1.855   4.652   5.968  0.4071  0.2272 -0.2112
  127MOL   O12430616   1.957   4.553   5.959  0.1070  0.3140  0.2403
  127MOL   C12530617   2.033   4.528   6.060 -0.1776  0.4169 -0.0334
  127MOL   C12630618   2.124   4.405   6.038  0.9433 -0.8374  1.0462
  127MOL   O12730619   2.039   4.584   6.166 -0.0009  0.1418 -0.0626
  127MOL   H12830620   1.706   4.497   5.964  0.3165  0.0283  1.5119
  127MOL   H12930621   1.723   4.585   5.822 -0.6574  1.2858  0.3551
  127MOL   H13030622   1.853   4.673   6.075 -0.6728 -1.0033  0.0264
  127MOL   H13130623   2.190   4.407   5.951  0.0211  0.6465  0.3609
  127MOL   H13230624   2.070   4.310   6.036 -1.0469  0.3008 -1.7427
  127MOL   H13330625   2.205   4.409   6.112  3.2886  0.6820 -1.5218
  127MOL   C13430626   1.905   4.774   5.886  0.5152  0.7180 -0.0226
  127MOL   C13530627   1.940   4.893   5.984  0.6055  0.2929  0.1061
  127MOL   O13630628   2.006   4.870   6.100 -0.0307  0.3476 -0.0849
  127MOL   C13730629   1.975   4.920   6.217  0.4680 -0.0005  0.4259
  127MOL   C13830630   2.083   4.906   6.326  0.3843  0.2442  0.3270
  127MOL   O13930631   1.876   4.995   6.240  0.1056  0.2525 -0.3678
  127MOL   H14030632   1.997   4.755   5.831 -0.0575 -0.9957 -0.3863
  127MOL   H14130633   1.828   4.801   5.814 -1.6521 -1.0829  1.5575
  127MOL   H14230634   1.840   4.929   6.008  0.5010  0.9565 -1.2941
  127MOL   H14330635   2.063   4.811   6.376 -2.6476  0.4229 -0.4286
  127MOL   H14430636   2.054   4.983   6.397 -0.9216  0.1906 -0.1254
  127MOL   H14530637   2.182   4.925   6.285  0.5763 -0.4291  0.4772
  127MOL   C14630638   2.015   5.010   5.910 -0.1412 -0.6195 -0.0317
  127MOL   C14730639   1.916   5.096   5.835  0.6455  0.0401  0.0297
  127MOL   O14830640   1.838   5.178   5.921  1.2620 -0.3345 -0.6131
  127MOL   C14930641   1.723   5.229   5.882 -0.5167 -0.1956  0.7724
  127MOL   C15030642   1.648   5.307   5.997 -0.1051 -0.3266 -0.0909
  127MOL   O15130643   1.670   5.219   5.770  0.5140 -0.5080 -0.5116
  127MOL   H15230644   2.047   5.076   5.990 -0.9308  0.7378 -0.8122
  127MOL   H15330645   2.105   4.982   5.854  0.3174  1.4583 -0.3793
  127MOL   H15430646   1.850   5.021   5.792  2.0155 -0.7995 -0.6474
  127MOL   H15530647   1.586   5.373   5.936 -0.5270  0.9805  1.6960
  127MOL   H15630648   1.723   5.340   6.069  0.1118 -1.2545  0.1091
  127MOL   H15730649   1.583   5.235   6.046 -0.7721  0.5226  0.2969
  127MOL   C15830650   1.982   5.185   5.725 -0.5516 -0.2547 -0.0855
  127MOL   C15930651   2.005   5.107   5.590 -0.4758 -0.2355 -0.3485
  127MOL   O16030652   1.898   5.117   5.507 -0.0942  0.3075 -0.0025
  127MOL   C16130653   1.824   5.000   5.482 -0.3503  0.4910  0.2636
  127MOL   C16230654   1.701   5.028   5.388 -0.4442 -0.1762  0.5813
  127MOL   O16330655   1.858   4.883   5.503  0.1387 -0.0086  0.8889
  127MOL   H16430656   1.927   5.277   5.708  1.1997  1.1074  1.3464
  127MOL   H16530657   2.076   5.223   5.765  0.1752  0.0213 -2.0267
  127MOL   H16630658   2.017   5.004   5.621 -0.5768  0.1760  1.0948
  127MOL   H16730659   1.611   5.011   5.447 -1.5148  0.4631 -0.8201
  127MOL   H16830660   1.704   4.953   5.309 -0.4644  0.0004  0.4133
  127MOL   H16930661   1.702   5.124   5.336 -1.2971  0.2663  1.3649
  127MOL   C17030662   2.120   5.169   5.515 -0.6878 -0.3127 -0.3712
  127MOL   C17130663   2.169   5.098   5.388  0.0143 -0.3489  0.1616
  127MOL   O17230664   2.266   5.180   5.323 -0.1009  0.0634  0.7458
  127MOL   C17330665   2.263   5.201   5.189  0.2423  0.4321  0.7066
  127MOL   C17430666   2.358   5.320   5.155  0.8504 -0.3229 -0.1974
  127MOL   O17530667   2.189   5.146   5.106  0.2551 -0.2160  0.2473
  127MOL   H17630668   2.111   5.277   5.504 -0.5185 -0.0502  1.8458
  127MOL   H17730669   2.204   5.154   5.583 -1.4254  0.6311  0.7780
  127MOL   H17830670   2.082   5.080   5.324  0.4341 -0.2489 -0.4358
  127MOL   H17930671   2.451   5.274   5.121  0.5186 -1.1381 -0.0174
  127MOL   H18030672   2.370   5.386   5.241  0.3769  1.0154 -1.1636
  127MOL   H18130673   2.311   5.376   5.075 -0.4291 -0.4704  0.4401
  127MOL   C18230674   2.237   4.961   5.424  0.4091  0.3474 -0.6712
  127MOL   C18330675   2.285   4.874   5.314  0.1035 -0.6325 -1.2445
  127MOL   O18430676   2.361   4.771   5.376 -0.0208 -0.1287  0.0104
  127MOL   C18530677   2.492   4.773   5.367 -0.6022 -0.2875 -0.1503
  127MOL   C18630678   2.559   4.646   5.422 -0.3373  0.3889  1.6662
  127MOL   O18730679   2.558   4.871   5.331  0.0213  0.0922  0.0065
  127MOL   H18830680   2.323   4.982   5.487  0.3712  1.0565 -0.8499
  127MOL   H18930681   2.172   4.899   5.485  2.6596  0.5865  2.0438
  127MOL   H19030682   2.342   4.933   5.243  0.3963  0.9284  0.2694
  127MOL   H19130683   2.665   4.666   5.436  0.0902  0.7681 -1.8284
  127MOL   H19230684   2.542   4.555   5.364  0.9918  0.9659  0.3374
  127MOL   H19330685   2.509   4.627   5.517 -1.5582  0.1601  0.9949
  127MOL   C19430686   2.159   4.809   5.249 -0.1350  0.0619  0.2472
  127MOL   C19530687   2.189   4.758   5.107  0.0304 -0.2192 -0.4808
  127MOL   O19630688   2.257   4.635   5.134  0.0499 -0.5998 -0.4802
  127MOL   C19730689   2.340   4.580   5.047  0.1802 -0.1663 -0.0937
  127MOL   C19830690   2.401   4.453   5.101  0.1255 -0.0585  0.1089
  127MOL   O19930691   2.359   4.622   4.931  0.3266 -0.3403  0.0831
  127MOL   H20030692   2.115   4.735   5.317  0.2942 -0.1775  0.2636
  127MOL   H20130693   2.079   4.882   5.238 -0.6961  0.0089  3.3343
  127MOL   H20230694   2.269   4.820   5.066  1.2823  0.0335  2.1680
  127MOL   H20330695   2.486   4.478   5.165  0.6716 -0.7722 -0.3228
  127MOL   H20430696   2.442   4.385   5.026  0.8588  1.7641 -1.1891
  127MOL   H20530697   2.324   4.395   5.152  0.5380 -2.1159 -1.5313
  127MOL   C20630698   2.076   4.743   5.011  0.0561  0.1338  0.0838
  127MOL   C20730699   1.955   4.655   5.065 -0.2418  0.5520  0.0657
  127MOL   O20830700   1.828   4.704   5.029  0.1657  0.3677 -0.6565
  127MOL   C20930701   1.800   4.749   4.895 -0.1087 -0.0063  0.6640
  127MOL   C21030702   1.667   4.810   4.894 -0.1675 -0.1269  0.0292
  127MOL   O21130703   1.880   4.749   4.797 -0.3219  0.2603 -0.0084
  127MOL   H21230704   2.034   4.843   5.005 -1.7539 -0.6963 -1.9807
  127MOL   H21330705   2.116   4.708   4.916 -1.5956 -1.8135  0.0751
  127MOL   H21430706   1.946   4.662   5.173 -1.0262 -3.3397  0.3356
  127MOL   H21530707   1.670   4.919   4.891  0.3823 -0.1717 -1.4362
  127MOL   H21630708   1.603   4.771   4.973  2.5185 -1.7955  1.4199
  127MOL   H21730709   1.621   4.772   4.802  0.8018 -0.3572 -0.3591
  127MOL   C21830710   1.976   4.501   5.021 -0.3493 -0.3546 -0.0584
  127MOL   C21930711   1.844   4.420   5.010  0.4528 -0.3014 -0.5065
  127MOL   O22030712   1.884   4.289   4.973  0.5889  0.7155 -0.3086
  127MOL   C22130713   1.814   4.198   4.907  0.1927 -0.1161  0.4966
  127MOL   C22230714   1.864   4.057   4.916 -0.6963 -0.0782 -0.4207
  127MOL   O22330715   1.715   4.225   4.845  0.6071 -0.2620  0.0697
  127MOL   H22430716   2.023   4.494   4.923  1.3723  2.2300  0.5295
  127MOL   H22530717   2.047   4.462   5.095  2.0815  4.0564  0.1295
  127MOL   H22630718   1.795   4.455   4.919  0.1990  0.7586  0.0310
  127MOL   H22730719   1.920   4.032   4.825 -0.2023  0.0536 -0.1570
  127MOL   H22830720   1.776   3.994   4.926 -0.3770 -0.5309 -0.4550
  127MOL   H22930721   1.931   4.037   4.999  0.5000  1.5894 -0.9479
  127MOL   C23030722   1.756   4.420   5.137 -0.9823 -0.4951 -0.2392
  127MOL   C23130723   1.611   4.372   5.115  1.3284 -0.5341 -0.2176
  127MOL   O23230724   1.556   4.467   5.030  0.1423 -0.2306  0.3801
  127MOL   C23330725   1.424   4.497   5.028 -0.1513  1.0025 -0.5230
  127MOL   C23430726   1.385   4.616   4.945 -0.0989  0.1965 -0.0890
  127MOL   O23530727   1.333   4.438   5.091  0.1341 -0.0315  0.7939
  127MOL   H23630728   1.818   4.368   5.210 -2.5367 -1.3285  0.5168
  127MOL   H23730729   1.750   4.518   5.185  0.7115 -0.4161 -0.1590
  127MOL   H23830730   1.555   4.371   5.208 -0.4380  2.0676 -1.1857
  127MOL   H23930731   1.460   4.636   4.868 -0.2705 -1.5561 -0.7265
  127MOL   H24030732   1.361   4.699   5.012 -1.3512 -0.9431  0.8876
  127MOL   H24130733   1.297   4.584   4.890  0.6583  0.5127 -1.5307
  127MOL   H24230734   1.606   4.280   5.057  0.3744  0.4591 -1.7777
  128MOL     C130735   0.298   3.170   0.229  0.4307  0.0545  0.0227
  128MOL     C230736   0.449   3.194   0.213  0.0866 -0.2954  0.0625
  128MOL     O330737   0.513   3.068   0.200 -0.4587 -0.6096 -0.0615
  128MOL     C430738   0.600   3.032   0.295  0.3884 -0.0855  0.1045
  128MOL     C530739   0.655   2.892   0.257  0.4619 -0.7573  0.6939
  128MOL     O630740   0.628   3.095   0.391 -0.0810 -0.0854 -0.1907
  128MOL     H730741   0.284   3.074   0.280 -1.1910 -0.0047 -0.5226
  128MOL     H830742   0.257   3.170   0.128  1.1144 -0.3939 -0.2551
  128MOL     H930743   0.490   3.248   0.299 -0.2127 -0.6863  0.4557
  128MOL    H1030744   0.714   2.905   0.167  0.1587 -1.6514  0.3625
  128MOL    H1130745   0.565   2.836   0.231 -0.1945  0.2556  0.7710
  128MOL    H1230746   0.718   2.843   0.332 -0.9926 -1.0640  1.7425
  128MOL    H1330747   0.263   3.258   0.283  1.7218  1.1594 -0.9079
  128MOL    C1430748   0.476   3.279   0.096 -0.1158 -0.8953  0.7591
  128MOL    C1530749   0.603   3.371   0.103  0.1351  0.3631  0.4370
  128MOL    O1630750   0.714   3.287   0.149 -0.2944 -0.3291 -0.0433
  128MOL    C1730751   0.807   3.344   0.224  0.1000  0.7405 -0.6119
  128MOL    C1830752   0.900   3.237   0.279  0.1522  0.0300 -0.4521
  128MOL    O1930753   0.815   3.460   0.254  0.1198 -0.1299  0.2244
  128MOL    H2030754   0.472   3.223   0.002  1.4199 -2.4160  1.5832
  128MOL    H2130755   0.397   3.353   0.078 -0.1878 -1.3915 -1.0627
  128MOL    H2230756   0.575   3.443   0.180  1.1792 -0.8027  1.9545
  128MOL    H2330757   0.994   3.279   0.317 -1.2623  0.8612  2.2473
  128MOL    H2430758   0.908   3.141   0.228 -3.7542 -1.3559  1.3320
  128MOL    H2530759   0.846   3.210   0.369 -1.2472  0.3361 -1.1754
  128MOL    C2630760   0.639   3.433   7.982  0.9068  0.7071 -0.3963
  128MOL    C2730761   0.756   3.532   7.971 -0.1439  0.2856  0.5076
  128MOL    O2830762   0.751   3.551   7.829 -0.0563  0.1264 -0.3849
  128MOL    C2930763   0.858   3.513   7.753 -0.6158 -0.1130  0.5586
  128MOL    C3030764   0.825   3.549   7.609  0.4432  0.1011  0.2080
  128MOL    O3130765   0.963   3.460   7.786 -0.1027  0.0610  0.2118
  128MOL    H3230766   0.656   3.348   7.917  0.5613  1.0450 -0.9240
  128MOL    H3330767   0.554   3.490   7.946  0.1768  0.3906  0.7940
  128MOL    H3430768   0.856   3.492   7.985  0.1211  0.7227 -0.0985
  128MOL    H3530769   0.895   3.501   7.541  0.9255 -1.4061  1.7311
  128MOL    H3630770   0.837   3.656   7.590 -1.1633  0.5593  1.6332
  128MOL    H3730771   0.723   3.516   7.595  0.3386  0.2230  0.6675
  128MOL    C3830772   0.730   3.660   0.025  0.3717  0.3264  0.1703
  128MOL    C3930773   0.852   3.751   0.032 -0.0313 -0.4249 -0.1141
  128MOL    O4030774   0.878   3.812   7.928 -0.8136  0.3306  0.2575
  128MOL    C4130775   1.008   3.839   7.894  0.5160 -0.4165  0.0308
  128MOL    C4230776   1.030   3.871   7.755 -0.0437  0.3191 -0.3889
  128MOL    O4330777   1.101   3.829   7.974 -0.0298 -0.4623 -0.0326
  128MOL    H4430778   0.655   3.724   8.001 -0.0052 -0.3497 -0.1737
  128MOL    H4530779   0.709   3.645   0.131 -1.4502 -0.8551 -0.3223
  128MOL    H4630780   0.938   3.686   0.050  1.1659  1.3191  0.6226
  128MOL    H4730781   1.134   3.868   7.722  0.0166 -1.2665 -0.0713
  128MOL    H4830782   0.998   3.975   7.749 -1.5934 -0.1095  0.1774
  128MOL    H4930783   0.963   3.818   7.688 -1.2459  0.7879  0.4212
  128MOL    C5030784   0.835   3.858   0.142  0.1315 -0.6657 -0.2845
  128MOL    C5130785   0.707   3.939   0.143  0.8332  0.0704 -0.5844
  128MOL    O5230786   0.708   4.039   0.253  0.4487  0.3297  0.3458
  128MOL    C5330787   0.637   4.015   0.366  0.0792 -0.2362  0.3564
  128MOL    C5430788   0.634   4.134   0.451  0.2199 -0.0254  0.2101
  128MOL    O5530789   0.570   3.915   0.393 -0.3897 -0.0354  0.5715
  128MOL    H5630790   0.849   3.809   0.239 -0.6661  2.6665  1.6131
  128MOL    H5730791   0.914   3.933   0.137 -2.0256  1.9669  2.5429
  128MOL    H5830792   0.627   3.866   0.155 -0.5273  1.2145 -2.6001
  128MOL    H5930793   0.738   4.146   0.483  0.3359  0.3902 -0.3270
  128MOL    H6030794   0.573   4.117   0.540  1.7449  1.0386  1.4855
  128MOL    H6130795   0.599   4.212   0.385 -1.5963  0.7630  2.0582
  128MOL    C6230796   0.684   4.026   0.014  0.1255 -0.1736 -0.1761
  128MOL    C6330797   0.552   4.108   0.022 -0.4877 -0.3739  0.4696
  128MOL    O6430798   0.573   4.204   7.942 -0.0399  0.3437  0.0700
  128MOL    C6530799   0.596   4.338   7.965 -0.4080  0.3147  0.4877
  128MOL    C6630800   0.631   4.420   7.837  0.7743 -0.3961  0.7624
  128MOL    O6730801   0.573   4.390   0.053  0.0621  0.3260 -0.1817
  128MOL    H6830802   0.776   4.084   0.023  0.5939 -0.0506 -4.4863
  128MOL    H6930803   0.687   3.971   7.941  0.6916 -0.4801  0.0156
  128MOL    H7030804   0.545   4.153   0.121 -2.8250  1.7093 -0.5731
  128MOL    H7130805   0.580   4.380   7.750 -1.5695 -1.8940  2.7478
  128MOL    H7230806   0.738   4.424   7.816  0.6199 -0.1078  0.0030
  128MOL    H7330807   0.612   4.523   7.867 -1.6402 -0.9494  1.2097
  128MOL    C7430808   0.422   4.031   0.015 -1.0824 -0.2888  0.3714
  128MOL    C7530809   0.305   4.119   0.073  0.4242  0.4917  0.3909
  128MOL    O7630810   0.281   4.230   8.009  0.0055 -0.2715  0.5183
  128MOL    C7730811   0.229   4.346   0.031  0.7920 -0.4585 -0.5440
  128MOL    C7830812   0.228   4.451   7.935 -0.3771  0.0240  0.3034
  128MOL    O7930813   0.199   4.375   0.151  0.3286  0.6426 -0.2424
  128MOL    H8030814   0.401   4.004   7.933  1.5704  0.5183 -0.4124
  128MOL    H8130815   0.428   3.940   0.075  0.8455 -0.7037 -0.3903
  128MOL    H8230816   0.332   4.143   0.176  0.7549  0.4629  0.3097
  128MOL    H8330817   0.176   4.542   7.966  1.8598  1.5151 -0.2389
  128MOL    H8430818   0.204   4.403   7.840  1.3566 -0.2056 -0.0273
  128MOL    H8530819   0.328   4.493   7.929 -0.2314 -0.2913  0.5500
  128MOL    C8630820   0.172   4.039   0.076 -0.0150 -0.0609 -0.5423
  128MOL    C8730821   0.152   3.992   0.223 -0.0162 -0.1245 -0.2644
  128MOL    O8830822   0.101   4.089   0.306 -0.2537  0.1029 -0.0111
  128MOL    C8930823   0.170   4.156   0.397  0.0976  0.3086  0.4122
  128MOL    C9030824   0.092   4.263   0.476  0.0378  0.4100 -0.0751
  128MOL    O9130825   0.289   4.140   0.416 -0.4990  0.4339 -0.1704
  128MOL    H9230826   0.078   4.088   0.049 -0.0174 -0.4104 -1.1813
  128MOL    H9330827   0.187   3.955   0.008 -0.8047  0.1152 -0.9424
  128MOL    H9430828   0.248   3.953   0.256  0.3572  0.0581 -1.1479
  128MOL    H9530829   0.035   4.228   0.561 -1.6455  0.1463 -1.2870
  128MOL    H9630830   0.014   4.296   0.408 -0.5230 -3.1740 -1.3304
  128MOL    H9730831   0.150   4.350   0.506 -0.3912  0.1978  1.3645
  128MOL    C9830832   0.059   3.879   0.246  0.0570  0.2726 -0.2385
  128MOL    C9930833   0.105   3.740   0.193  0.2891 -0.1116 -0.8303
  128MOL   O10030834   0.197   3.689   0.288 -0.8093 -0.1334 -0.0523
  128MOL   C10130835   0.325   3.669   0.254 -0.2374 -0.0653  0.8523
  128MOL   C10230836   0.412   3.606   0.361 -0.0276  0.0030 -0.0988
  128MOL   O10330837   0.373   3.700   0.142 -0.5177 -0.3215 -0.0827
  128MOL   H10430838   0.046   3.869   0.354 -0.9239 -0.2170 -0.3992
  128MOL   H10530839   7.992   3.927   0.203  1.7285  1.1660 -2.8347
  128MOL   H10630840   0.155   3.755   0.097 -0.1152 -1.3953 -1.2529
  128MOL   H10730841   0.505   3.662   0.367 -0.2710  0.3378  0.5557
  128MOL   H10830842   0.434   3.502   0.337 -2.2301 -0.8827  1.5016
  128MOL   H10930843   0.373   3.611   0.463  0.2196 -0.9377  0.0435
  128MOL   C11030844   8.010   3.640   0.174  0.5060 -0.4878 -0.2520
  128MOL   C11130845   0.031   3.524   0.090  0.0508 -0.3419  0.1635
  128MOL   O11230846   7.938   3.439   0.113  0.5473  0.6105  0.2243
  128MOL   C11330847   7.947   3.329   0.191 -0.1134 -0.3879  0.1626
  128MOL   C11430848   7.819   3.256   0.201 -0.5833 -0.0290 -0.4119
  128MOL   O11530849   0.025   3.282   0.242 -0.6651  0.3649 -0.2568
  128MOL   H11630850   7.969   3.611   0.271 -1.2636 -0.3020 -0.9205
  128MOL   H11730851   7.933   3.693   0.119 -1.5980 -2.2878  0.8629
  128MOL   H11830852   0.119   3.481   0.137  0.1707  2.6076  2.7537
  128MOL   H11930853   7.801   3.199   0.110 -0.8285 -0.4827 -0.0771
  128MOL   H12030854   7.743   3.333   0.216 -0.8256 -0.3087 -0.2075
  128MOL   H12130855   7.827   3.192   0.288 -0.1346  1.1607  0.4380
  128MOL   C12230856   0.056   3.544   7.962  0.1012 -0.7266  0.4616
  128MOL   C12330857   7.949   3.594   7.883  0.6802 -0.3642  0.3112
  128MOL   O12430858   7.938   3.735   7.903  0.0715 -0.2104  0.1016
  128MOL   C12530859   7.821   3.794   7.919  0.4682  0.2038  0.4505
  128MOL   C12630860   7.840   3.947   7.919 -1.0355 -0.7282  0.3678
  128MOL   O12730861   7.710   3.740   7.937 -0.1017 -0.6791 -0.3089
  128MOL   H12830862   0.141   3.612   7.954 -0.9669  0.5919  0.1875
  128MOL   H12930863   0.081   3.447   7.919  0.4863 -0.3446 -0.2024
  128MOL   H13030864   7.852   3.553   7.912  2.2113 -2.9893  1.9414
  128MOL   H13130865   7.750   3.993   7.878 -0.0785  0.7560 -0.0692
  128MOL   H13230866   7.924   3.980   7.858  0.4462 -5.4385 -0.3466
  128MOL   H13330867   7.862   3.988   8.017  3.5680 -1.2168 -0.3472
  128MOL   C13430868   7.955   3.561   7.733 -0.1002 -0.1958 -0.2882
  128MOL   C13530869   7.945   3.406   7.702  0.0342  0.2983 -0.1865
  128MOL   O13630870   7.812   3.369   7.722  0.2088  0.0879  0.5736
  128MOL   C13730871   7.786   3.285   7.812  0.5943  0.2246  0.8492
  128MOL   C13830872   7.634   3.262   7.837  0.0317 -0.0813 -0.4210
  128MOL   O13930873   7.867   3.229   7.884 -0.4486 -0.1688  0.1377
  128MOL   H14030874   7.876   3.613   7.678  0.0929  0.1843 -0.2068
  128MOL   H14130875   0.030   3.599   7.699 -0.7980  0.4005 -1.6461
  128MOL   H14230876   8.007   3.351   7.773 -0.2589  0.6098  0.3079
  128MOL   H14330877   7.581   3.282   7.744 -4.0717  0.4650  1.8942
  128MOL   H14430878   7.606   3.335   7.913 -0.5078  0.8438 -1.4904
  128MOL   H14530879   7.608   3.158   7.858 -1.5966  0.3165 -0.4047
  128MOL   C14630880   7.982   3.367   7.556  0.1979 -0.3344 -0.0264
  128MOL   C14730881   0.110   3.391   7.521  0.5916  0.4933  0.1335
  128MOL   O14830882   0.189   3.292   7.590 -0.2524 -0.3262 -0.0583
  128MOL   C14930883   0.298   3.307   7.653 -0.1494 -0.7897  0.0600
  128MOL   C15030884   0.340   3.179   7.722 -0.3544  0.3746 -0.0718
  128MOL   O15130885   0.364   3.414   7.658  0.2648  0.6061  0.0186
  128MOL   H15230886   7.951   3.265   7.531 -1.7136  0.1874  0.0951
  128MOL   H15330887   7.919   3.421   7.486 -0.0867 -0.5135  0.0908
  128MOL   H15430888   0.127   3.494   7.554  1.1454  1.4221 -2.9524
  128MOL   H15530889   0.442   3.152   7.693 -0.5313 -0.7007  0.3064
  128MOL   H15630890   0.283   3.094   7.683  2.4078 -1.3047 -0.6115
  128MOL   H15730891   0.325   3.181   7.830  0.6123 -0.7832  0.1014
  128MOL   C15830892   0.140   3.386   7.373  0.1598  0.1153  0.1469
  128MOL   C15930893   0.082   3.500   7.290  0.1468  0.1840 -0.0853
  128MOL   O16030894   0.140   3.618   7.314 -0.5558 -0.1085  0.1584
  128MOL   C16130895   0.086   3.724   7.377 -0.0027 -0.1779  0.5248
  128MOL   C16230896   0.188   3.823   7.418  0.0461 -0.4746 -0.4211
  128MOL   O16330897   7.994   3.741   7.419  0.6813  0.2756 -0.3808
  128MOL   H16430898   0.245   3.373   7.349  0.4834 -0.0938  1.6371
  128MOL   H16530899   0.093   3.293   7.340 -0.1641  1.5599 -3.6438
  128MOL   H16630900   7.997   3.509   7.309  0.1672 -0.4212  0.3287
  128MOL   H16730901   0.148   3.923   7.436  1.1644 -0.2652  0.9716
  128MOL   H16830902   0.270   3.829   7.346  0.1331  0.7309 -0.2330
  128MOL   H16930903   0.242   3.797   7.508 -0.6505  0.6109  0.3228
  128MOL   C17030904   0.091   3.468   7.135  0.1830  0.2715 -0.8198
  128MOL   C17130905   0.007   3.562   7.053  0.0200  0.1196  0.4912
  128MOL   O17230906   0.093   3.652   6.990  0.3334  0.4403  0.5479
  128MOL   C17330907   0.064   3.780   6.973 -0.2745 -0.1191 -0.0112
  128MOL   C17430908   0.183   3.852   6.910 -0.0636  1.0675 -0.1778
  128MOL   O17530909   7.985   3.838   7.012  0.6067  0.5084 -0.0665
  128MOL   H17630910   0.192   3.446   7.102 -0.4230 -1.3024 -1.6776
  128MOL   H17730911   0.043   3.371   7.123  0.9180 -0.1040 -0.7401
  128MOL   H17830912   7.956   3.610   7.119 -1.4874 -0.2513 -0.8520
  128MOL   H17930913   0.139   3.947   6.881  0.0631  1.0850 -0.3159
  128MOL   H18030914   0.208   3.809   6.813 -2.7017  2.3193 -1.4703
  128MOL   H18130915   0.273   3.859   6.971  0.3411 -3.7073 -0.0252
  128MOL   C18230916   7.961   3.477   6.944 -0.3958  0.0291 -0.2441
  128MOL   C18330917   7.836   3.416   6.990  0.8190  0.2652  0.6383
  128MOL   O18430918   7.739   3.525   7.006  0.1778 -0.2344 -0.3078
  128MOL   C18530919   7.692   3.559   7.132  0.1399  0.2018  0.5216
  128MOL   C18630920   7.599   3.679   7.142  0.1766  0.6790  0.3179
  128MOL   O18730921   7.715   3.498   7.234 -0.2374 -0.1936 -0.1722
  128MOL   H18830922   7.942   3.540   6.857  1.0486 -0.1057 -0.6623
  128MOL   H18930923   0.011   3.405   6.904  0.5555  0.3066  0.9439
  128MOL   H19030924   7.852   3.353   7.079  3.1325 -0.4078 -0.2046
  128MOL   H19130925   7.507   3.661   7.086  1.1108 -0.5671 -0.8682
  128MOL   H19230926   7.650   3.771   7.114  0.4243 -0.3475 -2.8312
  128MOL   H19330927   7.577   3.682   7.248 -0.4025 -1.7480  0.3088
  128MOL   C19430928   7.774   3.327   6.886  0.4263  0.0414  0.2628
  128MOL   C19530929   7.640   3.263   6.939  0.0949  0.7959  0.5107
  128MOL   O19630930   7.537   3.292   6.849 -0.2165  0.4900  0.0519
  128MOL   C19730931   7.454   3.389   6.871  0.6383 -0.1040  0.2655
  128MOL   C19830932   7.377   3.421   6.742  0.2245 -0.7842  0.3570
  128MOL   O19930933   7.444   3.450   6.975  0.7168 -0.4612  0.0149
  128MOL   H20030934   7.755   3.396   6.805  1.1841  3.1047  2.6184
  128MOL   H20130935   7.834   3.246   6.845 -2.3673 -1.5645 -0.8348
  128MOL   H20230936   7.637   3.310   7.038  0.9997  2.2249 -0.1347
  128MOL   H20330937   7.285   3.479   6.755  1.0796  0.4633  0.8832
  128MOL   H20430938   7.351   3.336   6.679 -1.2045 -0.8515  1.0227
  128MOL   H20530939   7.441   3.487   6.683 -1.7437 -0.9882 -2.1267
  128MOL   C20630940   7.640   3.106   6.962  0.5577  0.1397 -0.0754
  128MOL   C20730941   7.727   3.058   7.084  0.6110 -0.0158  0.1508
  128MOL   O20830942   7.671   3.116   7.199 -0.0353  0.0720  0.1622
  128MOL   C20930943   7.733   3.193   7.290  0.0400  0.0606 -0.1400
  128MOL   C21030944   7.651   3.219   7.419 -0.6785  0.3011 -0.1083
  128MOL   O21130945   7.853   3.231   7.286 -0.1152  0.0901 -0.0636
  128MOL   H21230946   7.541   3.063   6.977  1.5350 -1.1131  3.3357
  128MOL   H21330947   7.674   3.053   6.874  2.8643 -0.7652  1.3125
  128MOL   H21430948   7.828   3.091   7.060  0.7231 -0.7829 -0.4880
  128MOL   H21530949   7.681   3.311   7.471 -0.8390  1.0017 -1.2474
  128MOL   H21630950   7.681   3.134   7.482  0.7540  1.0019  0.1869
  128MOL   H21730951   7.547   3.220   7.390 -0.8235  0.4266  0.4016
  128MOL   C21830952   7.722   2.906   7.119 -0.5981 -0.1675  0.2329
  128MOL   C21930953   7.817   2.861   7.233 -0.4770  1.0027 -0.3691
  128MOL   O22030954   7.788   2.724   7.274 -0.0434 -0.8830 -0.3241
  128MOL   C22130955   7.737   2.696   7.387  0.2127 -0.2873 -0.0657
  128MOL   C22230956   7.780   2.558   7.437  0.2893 -0.0327  0.0859
  128MOL   O22330957   7.659   2.762   7.455  0.0567 -0.0179  0.1352
  128MOL   H22430958   7.618   2.878   7.135 -0.3272 -0.8933  0.7487
  128MOL   H22530959   7.748   2.854   7.027  0.2053 -0.7813  0.7971
  128MOL   H22630960   7.794   2.919   7.323 -0.7798 -1.2975  1.0821
  128MOL   H22730961   7.874   2.579   7.489 -0.1271  1.0211  0.4332
  128MOL   H22830962   7.802   2.478   7.366 -0.7153  0.0608 -0.3335
  128MOL   H22930963   7.703   2.525   7.507  0.4869  1.8477  1.2465
  128MOL   C23030964   7.967   2.896   7.220  0.3343  0.6583  0.3240
  128MOL   C23130965   0.013   2.867   7.086  0.5342 -0.1737 -0.2353
  128MOL   O23230966   0.140   2.934   7.082 -0.4199  0.0813 -0.2915
  128MOL   C23330967   0.151   3.048   7.027 -0.4798  0.3797  0.1076
  128MOL   C23430968   0.297   3.086   7.003 -0.3704 -0.2612  0.1642
  128MOL   O23530969   0.058   3.108   6.975  0.4134  0.1159  0.1339
  128MOL   H23630970   7.984   3.001   7.243  0.2421  0.7313  0.0654
  128MOL   H23730971   0.012   2.844   7.290 -0.2758 -0.5165  0.0510
  128MOL   H23830972   7.972   2.899   7.003 -0.8084  1.4675  1.3749
  128MOL   H23930973   0.327   3.046   6.906  0.5641  1.0202 -0.0806
  128MOL   H24030974   0.363   3.031   7.070  0.7328 -1.0707 -1.5467
  128MOL   H24130975   0.322   3.190   7.017  0.6923 -0.5573  0.4666
  128MOL   H24230976   0.028   2.760   7.074  0.1854 -0.1050 -1.3813
  129MOL     C130977   2.794   0.737   7.126 -0.6220 -0.2800  0.9411
  129MOL     C230978   2.660   0.785   7.066  0.6008 -0.5971  0.9527
  129MOL     O330979   2.693   0.805   6.932 -0.3584  0.2390 -0.2119
  129MOL     C430980   2.680   0.921   6.874  0.5756  0.9830 -0.4055
  129MOL     C530981   2.741   0.926   6.742 -0.4509  0.1163  0.3637
  129MOL     O630982   2.631   1.027   6.915  0.3068 -0.1977  0.2143
  129MOL     H730983   2.879   0.780   7.073 -1.0891 -0.7521 -0.2114
  129MOL     H830984   2.812   0.630   7.119  1.0417 -0.0071  0.7837
  129MOL     H930985   2.638   0.881   7.113 -2.0361 -0.5229 -0.3776
  129MOL    H1030986   2.693   0.979   6.660  0.3772  1.5310  0.7785
  129MOL    H1130987   2.776   0.829   6.706  1.2005  0.8279  0.0022
  129MOL    H1230988   2.834   0.977   6.768 -0.6391  0.5657  0.1691
  129MOL    H1330989   2.796   0.745   7.234  0.0407  0.4856  0.8777
  129MOL    C1430990   2.536   0.691   7.078  0.0171  0.5147 -0.1867
  129MOL    C1530991   2.401   0.743   7.033 -0.2336 -0.0569  0.2969
  129MOL    O1630992   2.298   0.652   7.050  0.1263 -0.2912  0.0886
  129MOL    C1730993   2.275   0.554   6.958 -0.6419  0.5292 -0.0017
  129MOL    C1830994   2.172   0.458   7.004 -0.0105 -0.0462 -0.2631
  129MOL    O1930995   2.330   0.542   6.849 -0.0220 -0.5205  0.2523
  129MOL    H2030996   2.570   0.604   7.022  0.8417  1.5375 -1.2984
  129MOL    H2130997   2.528   0.654   7.180  3.2071 -3.5891 -1.2626
  129MOL    H2230998   2.396   0.783   6.932 -2.3608  0.6519  0.6573
  129MOL    H2330999   2.218   0.360   6.998  0.4053  0.1461 -0.2728
  129MOL    H2431000   2.087   0.456   6.936  0.7989 -1.4376 -1.2599
  129MOL    H2531001   2.137   0.482   7.104 -2.3351  0.5753 -1.1925
  129MOL    C2631002   2.368   0.857   7.130 -0.2465 -0.2426 -0.1543
  129MOL    C2731003   2.228   0.926   7.114  0.5547  0.5008 -0.3847
  129MOL    O2831004   2.199   0.989   7.238  0.3645 -0.4303  0.0753
  129MOL    C2931005   2.076   0.986   7.286 -0.5250 -0.1836 -0.1242
  129MOL    C3031006   2.081   1.059   7.420 -0.1145 -0.2767  0.3904
  129MOL    O3131007   1.979   0.924   7.246  0.4513  0.5514 -1.1160
  129MOL    H3231008   2.391   0.827   7.232  0.2927  1.0447  0.1073
  129MOL    H3331009   2.444   0.932   7.109  1.1206 -2.0786 -2.0173
  129MOL    H3431010   2.149   0.857   7.085 -1.0033  2.1749 -0.2377
  129MOL    H3531011   2.029   0.997   7.493 -0.4493 -0.9751 -0.4274
  129MOL    H3631012   2.030   1.154   7.406 -0.4771 -0.3925  0.9294
  129MOL    H3731013   2.184   1.074   7.452  0.2062  0.4117 -0.9436
  129MOL    C3831014   2.247   1.040   7.009  0.6418 -0.3222  0.0608
  129MOL    C3931015   2.116   1.119   6.975  0.2806  0.0324 -0.5203
  129MOL    O4031016   2.136   1.246   6.914 -0.5615  0.0705  0.8641
  129MOL    C4131017   2.139   1.353   6.989 -0.0067  0.6425 -1.1942
  129MOL    C4231018   2.124   1.484   6.913  0.0468  0.8888  0.5470
  129MOL    O4331019   2.149   1.353   7.112 -1.1091  0.2413  0.2824
  129MOL    H4431020   2.333   1.095   7.045  0.7737 -1.2631  1.2376
  129MOL    H4531021   2.291   1.023   6.911  0.3260  1.2461 -0.3629
  129MOL    H4631022   2.067   1.138   7.070  2.5193  1.6448  0.3628
  129MOL    H4731023   2.148   1.571   6.974  0.3735  0.2401  1.3614
  129MOL    H4831024   2.022   1.483   6.874  0.1826 -1.4699  0.1535
  129MOL    H4931025   2.192   1.488   6.829 -1.5385  0.8508 -0.7576
  129MOL    C5031026   2.022   1.036   6.894 -0.5377 -0.6866  0.5518
  129MOL    C5131027   1.880   1.096   6.874 -1.3308  0.4038 -0.1479
  129MOL    O5231028   1.800   0.997   6.804 -0.0956 -0.3450 -0.2361
  129MOL    C5331029   1.804   0.983   6.671 -0.4697 -0.1084 -0.0405
  129MOL    C5431030   1.693   0.893   6.619 -0.3861 -0.4526 -0.1479
  129MOL    O5531031   1.887   1.031   6.603  0.1841  0.1266  0.2670
  129MOL    H5631032   2.072   1.013   6.799 -1.4227  0.8284 -0.3089
  129MOL    H5731033   2.028   0.943   6.949  1.2458 -1.5596 -1.0294
  129MOL    H5831034   1.894   1.189   6.819 -0.6301 -0.7800 -2.0442
  129MOL    H5931035   1.728   0.815   6.552 -0.0345 -1.5813  1.3157
  129MOL    H6031036   1.617   0.953   6.568  0.1831  0.6718  0.2913
  129MOL    H6131037   1.645   0.844   6.704 -1.9476  2.3338  0.6762
  129MOL    C6231038   1.804   1.125   7.008 -0.5903  0.2335 -0.2022
  129MOL    C6331039   1.717   1.253   7.010  0.4689 -0.2590 -0.1867
  129MOL    O6431040   1.785   1.378   7.020  0.7133  0.0451  0.1847
  129MOL    C6531041   1.765   1.470   7.110 -0.1698 -0.5555  0.3438
  129MOL    C6631042   1.834   1.608   7.084  0.3176 -0.3451 -0.4040
  129MOL    O6731043   1.675   1.461   7.192  0.5113  0.2146  0.2110
  129MOL    H6831044   1.739   1.039   7.025 -0.8246  0.4263 -0.1350
  129MOL    H6931045   1.869   1.136   7.095  0.5196  0.6820 -1.0868
  129MOL    H7031046   1.657   1.246   7.100  0.3886  1.2691 -0.1055
  129MOL    H7131047   1.910   1.601   7.006 -1.0030 -3.7552 -1.5144
  129MOL    H7231048   1.880   1.647   7.175  0.6491 -1.9940  0.1660
  129MOL    H7331049   1.765   1.687   7.055  0.4577 -0.7409 -1.8184
  129MOL    C7431050   1.619   1.278   6.892 -0.1465  0.0292 -0.6793
  129MOL    C7531051   1.475   1.241   6.929  0.3295  0.0925 -0.2395
  129MOL    O7631052   1.441   1.333   7.031  0.4876 -0.5573  0.2904
  129MOL    C7731053   1.365   1.306   7.136  0.7361  0.3391  0.3192
  129MOL    C7831054   1.363   1.419   7.232 -0.4162 -0.2182 -0.6000
  129MOL    O7931055   1.313   1.193   7.159 -0.4298 -0.0534  0.0415
  129MOL    H8031056   1.622   1.382   6.859 -0.3144  0.7496  1.5085
  129MOL    H8131057   1.644   1.215   6.806  2.1319 -0.2018  0.1138
  129MOL    H8231058   1.475   1.142   6.975 -0.3209  0.9640  1.7196
  129MOL    H8331059   1.458   1.418   7.285 -0.2013  0.4756 -0.9579
  129MOL    H8431060   1.287   1.413   7.309 -1.2768 -0.8794 -1.4855
  129MOL    H8531061   1.374   1.514   7.178  1.0127  0.3343  0.6229
  129MOL    C8631062   1.378   1.232   6.800  0.0311  1.1879 -0.7926
  129MOL    C8731063   1.236   1.182   6.845  0.1194 -0.0716 -0.5222
  129MOL    O8831064   1.139   1.191   6.739  0.1183 -0.3812 -0.4262
  129MOL    C8931065   1.084   1.307   6.711 -0.0802 -0.7375  0.5741
  129MOL    C9031066   0.973   1.289   6.600  0.1949  1.0309 -0.6020
  129MOL    O9131067   1.119   1.415   6.745 -0.8326  0.1276 -0.4099
  129MOL    H9231068   1.373   1.337   6.773 -0.0686  1.7674  1.3859
  129MOL    H9331069   1.426   1.172   6.723 -2.4284  0.8569 -2.1339
  129MOL    H9431070   1.195   1.235   6.932  1.4370  1.4876 -0.8459
  129MOL    H9531071   0.962   1.373   6.532 -0.7500  1.5240  0.1550
  129MOL    H9631072   0.874   1.268   6.643  1.2651 -0.0288  1.4421
  129MOL    H9731073   1.001   1.213   6.527  2.4768 -1.2787  2.5585
  129MOL    C9831074   1.223   1.030   6.881 -0.1233 -0.8848  0.5189
  129MOL    C9931075   1.092   0.991   6.964 -0.8260  0.0794 -0.0610
  129MOL   O10031076   1.004   0.968   6.858  0.0236 -0.2049 -0.2188
  129MOL   C10131077   0.879   1.005   6.865  0.1123 -0.8548  0.3739
  129MOL   C10231078   0.788   0.961   6.747 -0.0880 -0.2339  1.0151
  129MOL   O10331079   0.830   1.071   6.960 -0.1566  0.0524  0.0773
  129MOL   H10431080   1.224   0.976   6.786  0.3097 -0.4135  0.2538
  129MOL   H10531081   1.305   0.992   6.941 -0.3927 -0.6898  1.0124
  129MOL   H10631082   1.075   1.082   7.022  0.1817  1.4242 -1.8130
  129MOL   H10731083   0.757   0.859   6.770  0.9728 -0.9502 -0.6097
  129MOL   H10831084   0.826   0.976   6.645 -2.1359 -1.7505 -0.0235
  129MOL   H10931085   0.693   1.015   6.747  0.4921  0.8458  4.1203
  129MOL   C11031086   1.118   0.867   7.042 -0.0899  0.5880  0.1966
  129MOL   C11131087   1.011   0.845   7.144  0.4990 -0.1263  0.5931
  129MOL   O11231088   0.946   0.720   7.127  0.3683 -0.1259  0.0371
  129MOL   C11331089   0.810   0.716   7.128  0.3466 -0.3122 -0.2375
  129MOL   C11431090   0.761   0.577   7.127 -0.3923  0.1332 -0.3244
  129MOL   O11531091   0.733   0.805   7.125  0.1308 -0.0148 -0.2210
  129MOL   H11631092   1.129   0.788   6.968 -1.0102  1.7989 -1.2559
  129MOL   H11731093   1.216   0.868   7.092  0.2495  0.7522 -0.4699
  129MOL   H11831094   0.940   0.928   7.138  1.0286  0.2343 -0.8867
  129MOL   H11931095   0.756   0.546   7.022 -2.3760 -2.5775  0.5026
  129MOL   H12031096   0.663   0.573   7.174  0.4891 -1.4031  1.4588
  129MOL   H12131097   0.822   0.506   7.182 -0.1689 -1.9487 -3.1234
  129MOL   C12231098   1.070   0.826   7.288  0.1742 -0.1231  0.3551
  129MOL   C12331099   0.968   0.800   7.402  0.0371 -0.6128  0.0032
  129MOL   O12431100   1.045   0.797   7.521  0.6979  0.0682 -0.5142
  129MOL   C12531101   1.075   0.678   7.567 -0.2306  0.0511 -0.9143
  129MOL   C12631102   1.127   0.684   7.705 -0.4591  0.4007 -1.0712
  129MOL   O12731103   1.055   0.567   7.514  0.1288  0.2143 -0.4230
  129MOL   H12831104   1.134   0.738   7.280 -0.3908 -0.4772 -0.2901
  129MOL   H12931105   1.129   0.912   7.318 -1.1221  0.4179  1.3855
  129MOL   H13031106   0.915   0.708   7.376 -0.3130 -0.3125 -0.3575
  129MOL   H13131107   1.049   0.718   7.773 -0.3116  0.1342 -0.7670
  129MOL   H13231108   1.200   0.763   7.722 -1.6473  1.3151 -0.0930
  129MOL   H13331109   1.153   0.583   7.737  2.1116  1.3494 -0.0998
  129MOL   C13431110   0.864   0.914   7.413  0.3222 -1.1010 -0.1272
  129MOL   C13531111   0.731   0.870   7.485  0.0858  0.0659  0.3835
  129MOL   O13631112   0.750   0.777   7.592 -0.0439 -0.4546  0.6332
  129MOL   C13731113   0.717   0.649   7.573 -0.5965 -0.3655  0.0028
  129MOL   C13831114   0.695   0.574   7.705 -0.1986  0.1773 -0.2930
  129MOL   O13931115   0.691   0.597   7.464 -0.7960 -0.1434  0.2234
  129MOL   H14031116   0.919   0.990   7.468  1.3711  0.0400 -2.7166
  129MOL   H14131117   0.834   0.963   7.321  3.7939  0.4224 -0.4992
  129MOL   H14231118   0.674   0.819   7.407  0.6720  1.6484 -1.1257
  129MOL   H14331119   0.688   0.641   7.791 -3.4750  0.4755 -0.7492
  129MOL   H14431120   0.760   0.489   7.726 -0.1292  1.0574  3.4456
  129MOL   H14531121   0.594   0.534   7.700 -0.5014  1.1282 -2.2150
  129MOL   C14631122   0.636   0.988   7.532  0.3209 -0.1786 -0.2848
  129MOL   C14731123   0.598   1.090   7.421  0.6698 -0.0914 -0.2346
  129MOL   O14831124   0.511   1.013   7.339 -0.1861  0.7973 -0.2842
  129MOL   C14931125   0.494   1.037   7.209 -0.4067 -0.0009 -0.0386
  129MOL   C15031126   0.384   0.960   7.141  0.5368  0.5556  0.1336
  129MOL   O15131127   0.557   1.123   7.145 -0.1348 -0.3632 -0.1116
  129MOL   H15231128   0.542   0.945   7.568 -0.3838 -1.0018 -2.9969
  129MOL   H15331129   0.682   1.033   7.620  1.8647  1.4240 -1.8668
  129MOL   H15431130   0.687   1.125   7.370  0.8856 -1.1828 -0.6144
  129MOL   H15531131   0.292   0.995   7.188 -0.2224 -0.6300 -0.4555
  129MOL   H15631132   0.389   0.852   7.157  2.5898  0.1224 -3.0712
  129MOL   H15731133   0.368   0.974   7.034 -1.5608 -0.7967  0.2324
  129MOL   C15831134   0.507   1.204   7.480 -0.6561  0.7898  0.7981
  129MOL   C15931135   0.591   1.302   7.569 -0.2525  0.4083 -0.6306
  129MOL   O16031136   0.697   1.369   7.487  0.2565  0.3506  0.5246
  129MOL   C16131137   0.824   1.353   7.514 -0.1686  0.0695 -0.4046
  129MOL   C16231138   0.912   1.452   7.434 -0.4588 -0.0751 -0.0567
  129MOL   O16331139   0.873   1.286   7.601  0.5914 -0.5452 -0.0577
  129MOL   H16431140   0.451   1.256   7.403  0.3097 -0.6159 -0.8916
  129MOL   H16531141   0.430   1.162   7.544 -1.6703 -1.4591 -1.8004
  129MOL   H16631142   0.634   1.254   7.657  1.6074  2.3116 -0.4471
  129MOL   H16731143   0.931   1.543   7.490 -0.0614  1.2084 -2.2215
  129MOL   H16831144   0.871   1.497   7.343  1.0849  1.0344 -0.2238
  129MOL   H16931145   1.006   1.402   7.411 -0.6510 -0.3216 -0.3098
  129MOL   C17031146   0.515   1.425   7.628  0.0849  0.1385 -0.0903
  129MOL   C17131147   0.416   1.389   7.738 -0.1847  0.4286 -0.0257
  129MOL   O17231148   0.418   1.503   7.825 -0.3325 -0.2753  0.0514
  129MOL   C17331149   0.481   1.500   7.940 -0.1899 -0.0162  0.3269
  129MOL   C17431150   0.494   1.641   7.993  0.0988 -0.6075 -0.2234
  129MOL   O17531151   0.528   1.402   7.996 -0.3197  0.1534  1.0137
  129MOL   H17631152   0.590   1.480   7.686  0.3219  1.0183 -1.2330
  129MOL   H17731153   0.473   1.493   7.554 -0.5192  1.6224  1.5781
  129MOL   H17831154   0.464   1.300   7.780  1.8422  0.9617 -1.1772
  129MOL   H17931155   0.394   1.685   8.001  0.2773 -0.2997  0.3384
  129MOL   H18031156   0.561   1.705   7.936 -1.8834  1.4578 -0.3004
  129MOL   H18131157   0.533   1.626   0.073  1.0015 -0.4837 -0.5488
  129MOL   C18231158   0.267   1.357   7.705 -0.3425  0.1941 -0.0263
  129MOL   C18331159   0.185   1.307   7.828 -0.1223 -0.4879 -0.3421
  129MOL   O18431160   0.049   1.314   7.798  0.4458  0.2880  0.0481
  129MOL   C18531161   7.993   1.402   7.873 -0.2369 -0.1126 -0.0576
  129MOL   C18631162   7.846   1.363   7.835 -0.1406 -0.4078  0.9548
  129MOL   O18731163   0.013   1.473   7.961 -0.4602  0.1105 -0.5587
  129MOL   H18831164   0.219   1.444   7.659 -0.3588 -0.8156 -1.9811
  129MOL   H18931165   0.249   1.285   7.625 -1.1257  1.0060 -0.5903
  129MOL   H19031166   0.218   1.357   7.919 -0.2129 -0.2904 -0.4184
  129MOL   H19131167   7.842   1.255   7.820 -0.5272 -0.3033  0.2740
  129MOL   H19231168   7.827   1.386   7.730 -2.7757 -0.0906  1.4516
  129MOL   H19331169   7.765   1.399   7.899  1.0941  2.6304  0.9049
  129MOL   C19431170   0.207   1.154   7.849  0.0862  0.3808  0.1595
  129MOL   C19531171   0.169   1.118   7.996 -0.1680  0.6217 -0.3074
  129MOL   O19631172   0.109   0.990   7.980 -0.3061 -0.2558 -0.3159
  129MOL   C19731173   8.004   0.962   0.001  0.1727  0.6628  0.2462
  129MOL   C19831174   7.983   0.807   8.006 -0.1028  0.2262 -0.2240
  129MOL   O19931175   7.931   1.047   0.046  0.2020  0.1274 -0.1861
  129MOL   H20031176   0.157   1.090   7.776  0.7512 -0.5645  0.5258
  129MOL   H20131177   0.312   1.130   7.829 -0.1179  1.4581 -2.5220
  129MOL   H20231178   0.091   1.185   0.011 -0.2758 -0.0199  0.6593
  129MOL   H20331179   7.881   0.785   0.017 -0.8917  0.0938 -2.6362
  129MOL   H20431180   0.039   0.763   0.047  0.0652  0.0642 -0.5459
  129MOL   H20531181   7.993   0.773   7.903  0.8006  1.8961 -0.7007
  129MOL   C20631182   0.283   1.126   0.070 -0.2140  0.5219 -0.5344
  129MOL   C20731183   0.387   1.015   0.047  0.9203 -0.1104  0.5107
  129MOL   O20831184   0.512   1.080   0.060  0.3457 -0.5288  0.2352
  129MOL   C20931185   0.592   1.084   7.969  0.5120 -0.1167 -0.3263
  129MOL   C21031186   0.736   1.134   8.005  0.2061 -0.4726  1.2757
  129MOL   O21131187   0.563   1.052   7.854 -0.1977  0.3334 -0.7435
  129MOL   H21231188   0.323   1.226   0.057  0.2941  0.6318  1.6928
  129MOL   H21331189   0.237   1.121   0.169 -0.7820  0.1760 -0.8094
  129MOL   H21431190   0.375   0.973   7.968 -1.5483  1.0542  0.2859
  129MOL   H21531191   0.785   1.162   7.912 -0.1540 -1.4266  0.7952
  129MOL   H21631192   0.802   1.055   0.021 -0.6086 -0.7634  2.1096
  129MOL   H21731193   0.730   1.209   0.062  0.3374 -0.3467  1.1646
  129MOL   C21831194   0.377   0.894   0.146  0.1390  0.0551 -0.1686
  129MOL   C21931195   0.449   0.766   0.117 -0.6298 -0.3545  0.0646
  129MOL   O22031196   0.421   0.674   0.225  0.0291  0.0569 -0.2081
  129MOL   C22131197   0.511   0.682   0.331 -0.0811  0.3581  0.4868
  129MOL   C22231198   0.480   0.585   0.437  0.1582  0.4310 -0.8426
  129MOL   O22331199   0.609   0.755   0.345 -0.6124  0.2955 -0.6653
  129MOL   H22431200   0.399   0.929   0.247 -1.1874  1.5399 -0.3765
  129MOL   H22531201   0.275   0.856   0.157  1.1351 -2.4614  0.5667
  129MOL   H22631202   0.554   0.795   0.113 -0.5648 -0.6083 -0.0363
  129MOL   H22731203   0.563   0.521   0.465 -0.2833  0.7574  1.3313
  129MOL   H22831204   0.395   0.522   0.412  1.5734 -1.8889  0.0136
  129MOL   H22931205   0.448   0.637   0.527  1.1792 -2.6633  1.4122
  129MOL   C23031206   0.407   0.694   8.015 -0.1867 -0.6751 -0.3602
  129MOL   C23131207   0.439   0.542   8.016 -0.5566  0.4491 -0.5214
  129MOL   O23231208   0.422   0.486   7.889 -0.0859 -0.1226 -0.1444
  129MOL   C23331209   0.293   0.458   7.846  0.0046  0.1187 -0.0094
  129MOL   C23431210   0.293   0.371   7.722  0.4448  0.0065  0.1208
  129MOL   O23531211   0.193   0.502   7.900 -0.5866 -0.0411 -0.2493
  129MOL   H23631212   0.299   0.695   8.001 -0.0479 -2.5207 -1.7163
  129MOL   H23731213   0.451   0.738   7.926 -0.3997  0.7389  0.2275
  129MOL   H23831214   0.398   0.480   0.074  0.8659 -1.3383 -1.1356
  129MOL   H23931215   0.317   0.433   7.635 -1.6042 -0.3311 -0.7179
  129MOL   H24031216   0.199   0.319   7.701 -0.9178  1.7058  1.8867
  129MOL   H24131217   0.371   0.295   7.726 -0.4167 -0.9501 -1.0206
  129MOL   H24231218   0.547   0.533   0.007 -0.7450 -0.8649  0.3130
  130MOL     C131219   3.063   1.244   0.761 -0.2800 -0.2707  0.6992
  130MOL     C231220   3.173   1.150   0.805  0.5420 -0.4313  0.2487
  130MOL     O331221   3.300   1.210   0.828 -0.1184 -0.3772 -0.3732
  130MOL     C431222   3.414   1.155   0.777 -0.6368  0.4431 -0.2973
  130MOL     C531223   3.529   1.239   0.804  0.6091 -0.1545  0.4557
  130MOL     O631224   3.424   1.048   0.721 -0.4598 -0.4447  0.2253
  130MOL     H731225   3.083   1.283   0.661 -1.7770 -1.9194 -0.2842
  130MOL     H831226   3.025   1.318   0.831  0.5827  0.9055 -0.0549
  130MOL     H931227   3.182   1.083   0.719 -1.8948 -1.5596  0.8466
  130MOL    H1031228   3.529   1.301   0.714 -1.7476  0.6127  0.9484
  130MOL    H1131229   3.621   1.182   0.814  0.2633 -0.7671  0.1788
  130MOL    H1231230   3.512   1.297   0.895  4.9492  2.2418 -0.1053
  130MOL    H1331231   2.977   1.182   0.733  2.6252 -3.6431 -1.3027
  130MOL    C1431232   3.128   1.055   0.926 -0.0268  0.5335  0.0324
  130MOL    C1531233   3.089   1.142   1.044  0.3515 -0.5614  0.0721
  130MOL    O1631234   2.944   1.165   1.032  0.5438 -0.2550 -0.0927
  130MOL    C1731235   2.892   1.280   1.071 -0.3985  0.0859  0.3462
  130MOL    C1831236   2.743   1.286   1.037 -0.4907 -0.1707 -0.5581
  130MOL    O1931237   2.950   1.372   1.126 -0.5057 -0.4560 -0.4049
  130MOL    H2031238   3.049   0.993   0.885 -0.8147 -0.1150  2.4681
  130MOL    H2131239   3.217   0.998   0.952 -0.3162 -0.2738 -0.7222
  130MOL    H2231240   3.153   1.230   1.035 -1.8061  1.0546  0.1128
  130MOL    H2331241   2.690   1.349   1.108 -2.3923 -1.2553 -0.9765
  130MOL    H2431242   2.691   1.191   1.040 -0.3589 -0.2190  0.5090
  130MOL    H2531243   2.734   1.332   0.939  0.6382  0.1314 -0.5253
  130MOL    C2631244   3.130   1.072   1.173 -0.3931  0.9332 -0.5565
  130MOL    C2731245   3.120   1.169   1.294  0.0334  0.0605  0.4322
  130MOL    O2831246   3.130   1.096   1.416  0.1280  0.4086  0.1065
  130MOL    C2931247   3.027   1.058   1.488 -0.8769  0.0774  0.2560
  130MOL    C3031248   3.067   0.969   1.604 -0.1312 -0.0092 -0.2945
  130MOL    O3131249   2.909   1.064   1.454  0.3091  0.2050 -0.0990
  130MOL    H3231250   3.073   0.980   1.169  1.9548 -0.6000  0.0258
  130MOL    H3331251   3.237   1.050   1.175 -0.3536  1.1933  0.2579
  130MOL    H3431252   3.022   1.215   1.284  0.7315  1.6042  0.5630
  130MOL    H3531253   2.994   0.896   1.638 -0.9661  1.4778  1.1854
  130MOL    H3631254   3.088   1.039   1.685 -0.3036 -0.4042  0.0939
  130MOL    H3731255   3.161   0.915   1.589 -0.2340  0.1724 -1.6709
  130MOL    C3831256   3.230   1.285   1.301  0.3251 -0.5159 -0.0656
  130MOL    C3931257   3.194   1.404   1.395 -0.6733 -0.4508 -0.0810
  130MOL    O4031258   3.240   1.379   1.531 -0.6178  0.0298  0.8392
  130MOL    C4131259   3.167   1.390   1.634  0.6979 -0.6091  0.9646
  130MOL    C4231260   3.243   1.371   1.759 -0.4263 -0.5794 -0.4877
  130MOL    O4331261   3.053   1.435   1.621 -0.0461  0.7525  0.4743
  130MOL    H4431262   3.325   1.253   1.344  0.1925 -0.5710  0.1872
  130MOL    H4531263   3.245   1.334   1.204 -1.2045  1.7735  0.8180
  130MOL    H4631264   3.085   1.415   1.394 -0.5460  0.7754 -1.0225
  130MOL    H4731265   3.191   1.294   1.815 -1.0612 -0.0104 -0.2830
  130MOL    H4831266   3.238   1.454   1.830 -2.2405 -0.4097 -0.7853
  130MOL    H4931267   3.343   1.329   1.745  0.2910 -0.1664  3.0906
  130MOL    C5031268   3.256   1.537   1.352 -0.2065  0.0789  0.0341
  130MOL    C5131269   3.221   1.669   1.422  0.2336  0.0745  0.1058
  130MOL    O5231270   3.314   1.763   1.372 -0.2393 -1.0543 -0.5468
  130MOL    C5331271   3.428   1.789   1.424  0.0678 -0.1930  0.7528
  130MOL    C5431272   3.500   1.901   1.354 -0.1925 -0.3173 -0.4905
  130MOL    O5531273   3.466   1.735   1.526 -0.4200 -0.1853  0.2951
  130MOL    H5631274   3.364   1.524   1.343 -0.4844 -1.0697 -1.9884
  130MOL    H5731275   3.229   1.562   1.249  0.6562  0.5080 -0.1019
  130MOL    H5831276   3.238   1.662   1.530 -0.6097 -2.5241  0.0989
  130MOL    H5931277   3.454   1.993   1.390 -1.4259 -0.8713 -0.6132
  130MOL    H6031278   3.471   1.893   1.249  0.6008 -0.2586 -0.7172
  130MOL    H6131279   3.609   1.906   1.357 -0.1451 -1.3210 -0.2752
  130MOL    C6231280   3.067   1.714   1.421  0.0464 -0.0731 -0.0120
  130MOL    C6331281   3.047   1.853   1.480  0.1663 -0.6675 -0.5836
  130MOL    O6431282   3.019   1.946   1.382  0.3498 -0.0644 -0.4361
  130MOL    C6531283   3.062   2.073   1.403 -0.2872 -0.4803  0.3021
  130MOL    C6631284   3.065   2.163   1.277 -0.6202 -0.4220 -0.1431
  130MOL    O6731285   3.083   2.117   1.519  0.1376 -0.0338 -0.3724
  130MOL    H6831286   3.040   1.708   1.316 -1.3842  1.4166  0.2432
  130MOL    H6931287   3.008   1.640   1.474 -1.7749 -0.3304 -2.3152
  130MOL    H7031288   3.135   1.892   1.530  0.9311 -0.9207 -1.7251
  130MOL    H7131289   3.121   2.126   1.192 -1.1494  1.1426 -1.1950
  130MOL    H7231290   3.123   2.251   1.305  0.5734 -0.9051 -1.0590
  130MOL    H7331291   2.962   2.188   1.249 -0.6956 -0.5209  0.0423
  130MOL    C7431292   2.926   1.850   1.565  0.2201 -1.2049 -0.2304
  130MOL    C7531293   2.957   1.803   1.713 -0.0023  0.5683 -0.1156
  130MOL    O7631294   3.024   1.916   1.782  0.2254  0.0596 -0.0603
  130MOL    C7731295   3.119   1.896   1.874 -0.6869  0.0283  0.2743
  130MOL    C7831296   3.169   2.028   1.928 -0.3377 -0.4986 -1.0077
  130MOL    O7931297   3.158   1.789   1.919  0.3933 -0.6645 -0.5715
  130MOL    H8031298   2.869   1.942   1.564 -1.0933 -2.0050 -1.8840
  130MOL    H8131299   2.853   1.788   1.511  1.8503 -2.2142 -1.3255
  130MOL    H8231300   3.030   1.723   1.701  0.9182  1.1723  1.3691
  130MOL    H8331301   3.080   2.079   1.964 -0.2864  0.8660 -2.7166
  130MOL    H8431302   3.218   2.106   1.869 -1.6691  1.5278  0.5063
  130MOL    H8531303   3.226   2.014   2.019  1.2435  1.2420 -1.6961
  130MOL    C8631304   2.834   1.760   1.798 -0.6480 -0.9001 -0.0683
  130MOL    C8731305   2.704   1.836   1.765  0.4417  0.4795 -0.6543
  130MOL    O8831306   2.590   1.754   1.796 -0.4194  0.0786 -0.8798
  130MOL    C8931307   2.525   1.667   1.705 -0.1980 -0.4598 -1.2944
  130MOL    C9031308   2.416   1.572   1.773  0.4501  0.0292 -0.1537
  130MOL    O9131309   2.555   1.647   1.589  0.4789  0.2061 -0.0555
  130MOL    H9231310   2.827   1.652   1.783  0.0440 -1.0168  0.3819
  130MOL    H9331311   2.856   1.773   1.904  1.0710 -0.8063 -0.4195
  130MOL    H9431312   2.688   1.859   1.659 -0.5027 -3.4703 -1.4643
  130MOL    H9531313   2.325   1.621   1.807 -0.2125 -1.0089 -0.4161
  130MOL    H9631314   2.481   1.528   1.849 -1.5338 -0.9698  1.0088
  130MOL    H9731315   2.387   1.492   1.705  0.5763  0.3257 -0.5564
  130MOL    C9831316   2.706   1.964   1.847 -1.0365 -0.3932 -0.0129
  130MOL    C9931317   2.601   2.077   1.808  0.9910 -0.3308  0.1237
  130MOL   O10031318   2.628   2.117   1.674  0.1178  0.3319  0.3396
  130MOL   C10131319   2.626   2.255   1.639  0.4367  0.3369  0.2673
  130MOL   C10231320   2.661   2.274   1.492 -0.2467 -0.3715 -0.4237
  130MOL   O10331321   2.576   2.344   1.703  0.1979  0.2884  0.0763
  130MOL   H10431322   2.699   1.930   1.951 -0.4902  1.1261  0.5454
  130MOL   H10531323   2.797   2.024   1.839 -1.3613  0.1268  0.2131
  130MOL   H10631324   2.606   2.159   1.880 -0.8877 -0.5992  0.5934
  130MOL   H10731325   2.570   2.299   1.437 -0.0699 -1.9342 -1.4445
  130MOL   H10831326   2.702   2.189   1.438  2.1470  0.5432 -0.0999
  130MOL   H10931327   2.745   2.344   1.487  0.0228 -0.7815 -2.0751
  130MOL   C11031328   2.454   2.029   1.816  0.4610  0.0682 -0.4500
  130MOL   C11131329   2.418   1.970   1.956  0.1663  0.7285  0.0256
  130MOL   O11231330   2.443   2.068   2.056  0.3514  0.4385  0.4297
  130MOL   C11331331   2.507   2.026   2.170  0.3947  0.1680  0.3709
  130MOL   C11431332   2.541   2.142   2.261 -0.6009 -0.6509 -0.8434
  130MOL   O11531333   2.535   1.911   2.204  0.9807  0.1603 -0.0570
  130MOL   H11631334   2.392   2.114   1.789 -0.8946 -1.4865 -2.3470
  130MOL   H11731335   2.439   1.960   1.733  0.9223  1.3214 -1.5877
  130MOL   H11831336   2.485   1.885   1.964 -0.9936 -0.2617 -0.5560
  130MOL   H11931337   2.483   2.130   2.352 -0.1853 -1.0635 -0.6341
  130MOL   H12031338   2.514   2.237   2.214 -0.9598 -0.7785 -0.8958
  130MOL   H12131339   2.648   2.151   2.282 -1.1875 -0.4112  2.1636
  130MOL   C12231340   2.268   1.922   1.958  0.1722 -0.3939 -0.1489
  130MOL   C12331341   2.227   1.829   2.072 -0.0949  0.0583  0.0275
  130MOL   O12431342   2.090   1.845   2.101  0.5597  0.1378 -0.7326
  130MOL   C12531343   2.050   1.937   2.192 -0.4086  0.0400 -0.3703
  130MOL   C12631344   1.899   1.927   2.228  0.9065 -0.0860 -0.1434
  130MOL   O12731345   2.119   2.022   2.247  0.2206  0.0071  0.8062
  130MOL   H12831346   2.212   2.014   1.952  0.9250  0.0306 -0.7992
  130MOL   H12931347   2.246   1.876   1.861 -0.1006 -0.0039 -0.2707
  130MOL   H13031348   2.281   1.858   2.162  1.4095 -1.4754 -0.3555
  130MOL   H13131349   1.851   1.837   2.190 -1.2668  1.0095 -0.0655
  130MOL   H13231350   1.851   2.020   2.196  0.3196  0.5687  2.5400
  130MOL   H13331351   1.888   1.919   2.336 -0.1567  1.8907 -0.0848
  130MOL   C13431352   2.252   1.681   2.044 -0.0196  0.0551  0.0070
  130MOL   C13531353   2.233   1.586   2.162  0.3732 -0.6635  0.3034
  130MOL   O13631354   2.246   1.460   2.098 -0.2855  1.0826  0.7919
  130MOL   C13731355   2.175   1.357   2.141  0.5604  0.7285 -0.1818
  130MOL   C13831356   2.183   1.247   2.040  0.4689 -0.6031  0.0572
  130MOL   O13931357   2.097   1.352   2.237  0.8086 -0.2151 -0.0120
  130MOL   H14031358   2.192   1.654   1.958 -2.1858 -0.4373  1.6424
  130MOL   H14131359   2.358   1.669   2.018 -0.4549  0.1267 -1.8545
  130MOL   H14231360   2.138   1.592   2.215 -0.1010 -1.7203 -0.4055
  130MOL   H14331361   2.159   1.282   1.940 -0.0382  0.4505  0.5420
  130MOL   H14431362   2.110   1.168   2.054  0.4424 -0.3568  1.3569
  130MOL   H14531363   2.286   1.212   2.026  0.4016 -0.7972  0.0445
  130MOL   C14631364   2.341   1.594   2.273 -0.4181  0.5265  0.0543
  130MOL   C14731365   2.286   1.655   2.403 -0.2604  0.1234  0.2443
  130MOL   O14831366   2.209   1.559   2.470 -0.4152 -0.1632 -0.7489
  130MOL   C14931367   2.077   1.564   2.491  0.7049 -0.2169 -0.5688
  130MOL   C15031368   2.043   1.446   2.588 -0.3072  0.0637  0.2143
  130MOL   O15131369   2.001   1.645   2.444 -0.0937  0.8219 -0.5628
  130MOL   H15231370   2.384   1.497   2.297  0.6923  0.8190 -0.7246
  130MOL   H15331371   2.426   1.639   2.222  0.6394 -0.6470  0.7699
  130MOL   H15431372   2.228   1.742   2.371  1.3542  1.4250  0.7955
  130MOL   H15531373   2.139   1.408   2.623 -0.4933  0.3981  1.0986
  130MOL   H15631374   1.987   1.366   2.540  2.0353 -1.8171  0.5167
  130MOL   H15731375   1.983   1.482   2.671  1.1343 -1.8248  2.0964
  130MOL   C15831376   2.391   1.703   2.509  0.5729  0.1247  0.5691
  130MOL   C15931377   2.339   1.815   2.596 -0.0694  0.2763  0.4435
  130MOL   O16031378   2.407   1.814   2.728 -0.0986  0.1786 -0.0980
  130MOL   C16131379   2.376   1.729   2.825 -0.0832  0.6659  0.7790
  130MOL   C16231380   2.426   1.762   2.964  0.1399  0.2477 -0.4665
  130MOL   O16331381   2.300   1.634   2.807  0.3944  0.0961 -0.2033
  130MOL   H16431382   2.407   1.617   2.574  0.3405 -0.1897  0.2141
  130MOL   H16531383   2.492   1.711   2.467  0.9063  2.1015  1.6948
  130MOL   H16631384   2.236   1.792   2.625 -0.3696  0.1381 -0.7150
  130MOL   H16731385   2.358   1.841   2.998  1.1069  0.9469 -0.1542
  130MOL   H16831386   2.527   1.802   2.952  1.0700 -1.5347  1.1681
  130MOL   H16931387   2.426   1.684   3.040  2.0891 -0.7432 -1.4509
  130MOL   C17031388   2.357   1.959   2.537 -0.3899 -0.1393  0.0034
  130MOL   C17131389   2.252   2.062   2.579  0.1800  0.0562 -0.2718
  130MOL   O17231390   2.241   2.064   2.717  0.3321 -0.0509  0.5626
  130MOL   C17331391   2.120   2.048   2.782 -0.2567  0.4862  0.2305
  130MOL   C17431392   2.127   2.052   2.925 -0.7351  0.7040 -0.0575
  130MOL   O17531393   2.011   2.026   2.727 -0.0768 -0.4662  0.0653
  130MOL   H17631394   2.450   2.003   2.575 -0.7642 -1.9554  3.2713
  130MOL   H17731395   2.361   1.948   2.429  0.0191 -1.0702  0.1091
  130MOL   H17831396   2.159   2.019   2.543  0.3277 -0.5618  0.0818
  130MOL   H17931397   2.113   1.954   2.970  0.5089  1.0795  1.1740
  130MOL   H18031398   2.056   2.121   2.971 -1.1911  0.9459 -1.1043
  130MOL   H18131399   2.228   2.092   2.936  0.3486 -2.0837  0.5499
  130MOL   C18231400   2.260   2.205   2.524 -0.2473  0.0759  0.2781
  130MOL   C18331401   2.134   2.292   2.535 -0.4196 -0.1452  0.1104
  130MOL   O18431402   2.149   2.414   2.464 -0.2353 -0.8298  0.6307
  130MOL   C18531403   2.230   2.512   2.514  0.5501 -0.0135 -0.3750
  130MOL   C18631404   2.239   2.640   2.427 -0.7664 -0.0866 -0.0479
  130MOL   O18731405   2.278   2.503   2.625 -0.2396  0.1126  0.0997
  130MOL   H18831406   2.346   2.253   2.571 -0.3658 -0.8069  1.4431
  130MOL   H18931407   2.277   2.202   2.417 -1.9395 -0.4523  0.0081
  130MOL   H19031408   2.106   2.305   2.640 -0.8173  1.8177 -0.2297
  130MOL   H19131409   2.142   2.653   2.380 -0.0705 -0.0879 -1.5050
  130MOL   H19231410   2.305   2.627   2.342 -1.1597  1.2862 -0.5769
  130MOL   H19331411   2.279   2.728   2.477  0.0985 -0.0789 -0.7370
  130MOL   C19431412   2.006   2.224   2.471  1.0976  0.5985  0.6278
  130MOL   C19531413   1.873   2.289   2.508 -0.3116 -0.5699 -0.0291
  130MOL   O19631414   1.864   2.414   2.444  0.0044 -0.2241  0.6573
  130MOL   C19731415   1.821   2.509   2.520 -0.0003  0.1088  0.4683
  130MOL   C19831416   1.854   2.647   2.459 -0.2855 -0.3739 -0.6895
  130MOL   O19931417   1.768   2.506   2.633 -0.3922 -0.3482  0.0740
  130MOL   H20031418   2.014   2.232   2.363 -0.7670  0.4252  0.4553
  130MOL   H20131419   1.990   2.119   2.491  1.7922  0.3648 -0.0330
  130MOL   H20231420   1.874   2.306   2.616 -1.0693  1.5380 -0.3329
  130MOL   H20331421   1.790   2.711   2.518 -1.1756 -1.4427 -0.4774
  130MOL   H20431422   1.819   2.676   2.360 -0.7941  0.8056 -0.1614
  130MOL   H20531423   1.955   2.680   2.483 -1.3837  1.4901  1.4928
  130MOL   C20631424   1.749   2.198   2.485  0.0192  0.3034 -0.2815
  130MOL   C20731425   1.622   2.227   2.573 -0.5145 -0.4477 -0.6451
  130MOL   O20831426   1.527   2.127   2.540 -0.1478  0.4581 -0.2048
  130MOL   C20931427   1.418   2.168   2.482 -0.2278  0.6920 -0.6930
  130MOL   C21031428   1.321   2.055   2.450 -0.0867 -0.6075 -0.1534
  130MOL   O21131429   1.391   2.285   2.458  0.0454  0.4708  0.5069
  130MOL   H21231430   1.733   2.187   2.378  0.2804  0.2342 -0.3154
  130MOL   H21331431   1.773   2.103   2.534 -0.8353 -0.3022 -1.0280
  130MOL   H21431432   1.598   2.328   2.539  0.0709 -1.0876 -3.0883
  130MOL   H21531433   1.320   1.987   2.535 -2.5037  0.6286  0.8469
  130MOL   H21631434   1.356   1.995   2.367 -0.3871 -0.1017 -0.6514
  130MOL   H21731435   1.231   2.109   2.419  0.1225  0.3162  0.7927
  130MOL   C21831436   1.655   2.211   2.727  0.2203 -0.4559  0.2192
  130MOL   C21931437   1.544   2.232   2.830  0.0160 -0.1474  0.4249
  130MOL   O22031438   1.600   2.232   2.958  0.0221  0.8885  0.4033
  130MOL   C22131439   1.609   2.128   3.038  0.3220  0.3958 -0.1229
  130MOL   C22231440   1.696   2.157   3.153  0.3785  0.1666 -0.0766
  130MOL   O22331441   1.551   2.020   3.024  0.3889  0.3985 -0.2775
  130MOL   H22431442   1.697   2.114   2.754  1.8508  0.5713  1.4780
  130MOL   H22531443   1.730   2.283   2.759 -1.2981  0.4482  1.8187
  130MOL   H22631444   1.473   2.150   2.815  1.1257 -1.0929  0.2305
  130MOL   H22731445   1.775   2.082   3.153  2.6107  2.4264  1.5911
  130MOL   H22831446   1.648   2.166   3.250 -0.5022 -1.6026 -0.3281
  130MOL   H22931447   1.749   2.252   3.146  1.3128 -0.2292  1.4619
  130MOL   C23031448   1.465   2.368   2.808  0.0039 -0.0864 -0.0215
  130MOL   C23131449   1.342   2.378   2.896 -0.9840 -0.1400  0.7883
  130MOL   O23231450   1.256   2.269   2.877 -0.6011  0.4661 -0.4210
  130MOL   C23331451   1.166   2.273   2.778 -0.8581 -0.2655  0.4710
  130MOL   C23431452   1.067   2.162   2.786  0.1717 -0.1584  0.1599
  130MOL   O23531453   1.171   2.349   2.681 -0.2144 -0.1388 -0.4017
  130MOL   H23631454   1.536   2.450   2.815  1.5621 -1.5250  1.6000
  130MOL   H23731455   1.422   2.386   2.710  0.5936  2.5714  0.1826
  130MOL   H23831456   1.291   2.472   2.873  1.3732  1.5021  1.9813
  130MOL   H23931457   1.069   2.135   2.892 -2.0777 -1.4129 -0.0797
  130MOL   H24031458   1.108   2.083   2.724 -1.1184  1.2113 -2.5168
  130MOL   H24131459   0.963   2.182   2.759  0.0052  0.1544  1.0140
  130MOL   H24231460   1.378   2.375   2.999  1.9594  2.5448 -0.0926
  131MOL     C131461   0.048   3.616   6.008  0.3950 -0.4203  0.2603
  131MOL     C231462   7.983   3.589   6.133 -0.2981  0.0539 -0.0836
  131MOL     O331463   8.015   3.461   6.183 -0.0302 -0.0870  0.1033
  131MOL     C431464   7.952   3.351   6.143 -0.4842 -0.0226  0.0788
  131MOL     C531465   7.998   3.219   6.215 -0.1354 -0.5506 -1.1348
  131MOL     O631466   7.857   3.345   6.067 -0.2125  0.1210  0.1761
  131MOL     H731467   0.152   3.638   6.031 -0.1103 -0.1916  2.4343
  131MOL     H831468   0.024   3.710   5.958  1.5300 -0.9671 -1.3519
  131MOL     H931469   7.884   3.577   6.088 -1.0480 -2.1264  2.0300
  131MOL    H1031470   7.995   3.130   6.151  0.5669 -0.8121 -0.8066
  131MOL    H1131471   7.943   3.188   6.303 -1.0553  1.2801 -1.0504
  131MOL    H1231472   0.076   3.232   6.258 -1.3438 -0.5902  1.7864
  131MOL    H1331473   0.029   3.533   5.940  0.7451 -1.8573  1.8840
  131MOL    C1431474   8.005   3.703   6.234  0.6152 -0.2225  0.1238
  131MOL    C1531475   7.936   3.670   6.370  0.4243  0.1757  0.2655
  131MOL    O1631476   7.968   3.791   6.439  0.0748 -0.1072 -0.7723
  131MOL    C1731477   0.024   3.797   6.548  0.5573  0.5386 -0.2243
  131MOL    C1831478   0.015   3.932   6.616 -0.4026 -0.1554 -0.7158
  131MOL    O1931479   0.097   3.706   6.587  0.1491  0.4282  0.0814
  131MOL    H2031480   0.089   3.714   6.257  0.7354 -1.1495  0.0243
  131MOL    H2131481   7.976   3.801   6.196 -1.3979 -0.3142  1.3406
  131MOL    H2231482   7.981   3.583   6.417  1.5325  1.2243  1.1633
  131MOL    H2331483   0.098   3.994   6.582 -0.1284 -1.6076 -2.7978
  131MOL    H2431484   0.017   3.918   6.724 -0.5937  0.6384 -0.6117
  131MOL    H2531485   7.951   3.984   6.575 -0.7257 -0.6618 -0.6860
  131MOL    C2631486   7.780   3.681   6.374 -0.1068 -0.3759  0.0419
  131MOL    C2731487   7.694   3.601   6.483  0.4090 -0.3591 -0.5184
  131MOL    O2831488   7.732   3.457   6.483  0.3103  0.3337 -0.4389
  131MOL    C2931489   7.638   3.361   6.482 -0.6231  0.5369  0.3979
  131MOL    C3031490   7.698   3.224   6.493  0.3524  0.2729 -0.7907
  131MOL    O3131491   7.521   3.379   6.460 -0.2739 -0.3945  0.4485
  131MOL    H3231492   7.743   3.780   6.349 -2.3991 -0.7676  1.6898
  131MOL    H3331493   7.750   3.628   6.284  0.2620 -0.9811  0.2755
  131MOL    H3431494   7.588   3.610   6.459 -0.2075  0.2934  2.2964
  131MOL    H3531495   7.629   3.157   6.544  0.6938 -0.8935 -1.8420
  131MOL    H3631496   7.783   3.241   6.559  0.5554  2.1104 -1.4933
  131MOL    H3731497   7.738   3.192   6.397 -1.4205  0.5901 -1.6697
  131MOL    C3831498   7.703   3.656   6.627  0.1190 -0.3978  0.4625
  131MOL    C3931499   7.625   3.790   6.662  0.5829 -0.1819  0.0860
  131MOL    O4031500   7.486   3.761   6.649  0.1681 -0.0273  0.1638
  131MOL    C4131501   7.412   3.819   6.550 -0.0754 -0.0856 -0.4198
  131MOL    C4231502   7.266   3.772   6.550 -0.6907  0.1851 -0.0795
  131MOL    O4331503   7.455   3.901   6.465  0.8517  0.6518  0.1844
  131MOL    H4431504   7.659   3.578   6.689 -0.9052 -1.2933 -1.3458
  131MOL    H4531505   7.809   3.673   6.646 -0.3435 -0.9307  3.7775
  131MOL    H4631506   7.661   3.864   6.590  2.7653  1.5456  2.8304
  131MOL    H4731507   7.265   3.664   6.569  1.8828  0.2483  0.6080
  131MOL    H4831508   7.226   3.771   6.449  0.5496 -0.1545 -0.5747
  131MOL    H4931509   7.217   3.842   6.617  0.6719  0.6303  0.4764
  131MOL    C5031510   7.644   3.838   6.811 -0.5049  0.1554 -0.9633
  131MOL    C5131511   7.605   3.980   6.839 -0.1330 -0.1292 -0.4785
  131MOL    O5231512   7.623   3.999   6.978  0.1487 -0.0744  0.1616
  131MOL    C5331513   7.520   4.052   7.054 -0.2162  0.0857  0.1830
  131MOL    C5431514   7.555   4.053   7.202 -0.4381 -0.1041 -0.0594
  131MOL    O5531515   7.419   4.112   7.012 -0.4488 -0.0831 -0.0602
  131MOL    H5631516   7.594   3.776   6.885  0.3114  0.3176 -0.2559
  131MOL    H5731517   7.748   3.815   6.838 -0.4919  1.7791  0.4071
  131MOL    H5831518   7.503   3.997   6.805  0.0819  0.0818 -1.0280
  131MOL    H5931519   7.486   3.988   7.255  0.2572 -1.0375 -0.2946
  131MOL    H6031520   7.551   4.155   7.241 -1.5716  0.5550 -1.7874
  131MOL    H6131521   7.659   4.027   7.219 -0.9027 -1.1141  1.2529
  131MOL    C6231522   7.703   4.075   6.759 -0.4250 -0.1281  0.0088
  131MOL    C6331523   7.702   4.226   6.781  0.2917 -0.9940 -1.1949
  131MOL    O6431524   7.794   4.279   6.693 -0.5336  0.5150  0.1575
  131MOL    C6531525   7.911   4.339   6.727  0.4430 -0.2499  0.1722
  131MOL    C6631526   7.981   4.395   6.608  0.0408  0.4433 -0.3382
  131MOL    O6731527   7.950   4.349   6.843 -0.1748  0.0241 -0.1762
  131MOL    H6831528   7.803   4.041   6.784 -0.5368 -0.8170 -0.4703
  131MOL    H6931529   7.691   4.053   6.653 -1.5493  0.4605  0.0123
  131MOL    H7031530   7.727   4.249   6.885 -1.2870 -2.1452 -0.5415
  131MOL    H7131531   7.928   4.382   6.514 -1.4993  0.8344  0.4583
  131MOL    H7231532   0.067   4.375   6.604  0.0505  0.5594 -0.6636
  131MOL    H7331533   7.991   4.503   6.619  0.7955  0.5646 -2.0563
  131MOL    C7431534   7.564   4.289   6.747  0.2929 -0.2347  0.2515
  131MOL    C7531535   7.551   4.425   6.815  0.4718 -1.2262 -0.5172
  131MOL    O7631536   7.448   4.500   6.755 -0.0406  0.3087  0.6008
  131MOL    C7731537   7.473   4.584   6.651 -0.2126  0.5896  0.5747
  131MOL    C7831538   7.344   4.649   6.597  0.2808 -0.1304 -0.1102
  131MOL    O7931539   7.585   4.620   6.611  0.2712 -0.0290  0.2757
  131MOL    H8031540   7.549   4.289   6.639  0.3131 -1.6761  0.2449
  131MOL    H8131541   7.482   4.233   6.791 -0.6858  0.4111 -0.7422
  131MOL    H8231542   7.645   4.478   6.798 -0.3858  0.6730  0.5930
  131MOL    H8331543   7.259   4.636   6.664  0.4944 -1.4293 -0.0612
  131MOL    H8431544   7.306   4.627   6.497 -2.9389 -0.2087  1.0558
  131MOL    H8531545   7.355   4.757   6.596  0.8038 -0.1507  1.7855
  131MOL    C8631546   7.530   4.415   6.970 -0.7482  0.0102  0.0489
  131MOL    C8731547   7.530   4.552   7.041  0.5488 -0.2253 -1.0972
  131MOL    O8831548   7.427   4.538   7.142  0.1242  0.0044 -0.4430
  131MOL    C8931549   7.307   4.606   7.141  0.2014  0.1246  0.1371
  131MOL    C9031550   7.232   4.582   7.264 -0.0449  0.2156  0.1082
  131MOL    O9131551   7.275   4.687   7.054 -0.2211 -0.8253  0.3062
  131MOL    H9231552   7.436   4.368   6.997 -0.3143 -0.8652  0.0525
  131MOL    H9331553   7.608   4.356   7.018 -0.7491  0.3094  0.4176
  131MOL    H9431554   7.508   4.630   6.968  2.8455  0.1642 -1.3934
  131MOL    H9531555   7.301   4.537   7.336  0.1456  0.4460  0.0705
  131MOL    H9631556   7.153   4.514   7.232  1.2877 -0.8350 -1.0344
  131MOL    H9731557   7.200   4.681   7.297  0.8539 -0.1743  2.2343
  131MOL    C9831558   7.666   4.599   7.111 -0.4468  0.1799  0.6349
  131MOL    C9931559   7.792   4.608   7.016  0.1622 -0.7656 -0.8353
  131MOL   O10031560   7.756   4.719   6.939 -0.1698  0.3101  0.7054
  131MOL   C10131561   7.819   4.746   6.819 -0.3688  0.0449 -0.4783
  131MOL   C10231562   7.761   4.882   6.762  0.2266 -0.3055 -0.5807
  131MOL   O10331563   7.905   4.678   6.763 -0.5524 -0.7323 -0.2716
  131MOL   H10431564   7.660   4.698   7.155  1.3584  0.1583  0.9601
  131MOL   H10531565   7.692   4.529   7.190 -0.0146 -0.5457 -0.1417
  131MOL   H10631566   7.789   4.518   6.954 -1.4247 -0.9488 -0.5196
  131MOL   H10731567   7.741   4.959   6.837 -1.5006 -1.5490  0.2762
  131MOL   H10831568   7.669   4.860   6.707  0.0715 -1.0306 -0.0389
  131MOL   H10931569   7.835   4.916   6.689 -1.8662  3.0176 -1.2342
  131MOL   C11031570   7.923   4.630   7.092 -0.1346  0.6776  0.7940
  131MOL   C11131571   7.959   4.523   7.198  0.0153 -0.3077 -0.2725
  131MOL   O11231572   7.966   4.395   7.140  0.3918  0.8669 -0.1298
  131MOL   C11331573   7.896   4.284   7.191 -0.1040 -1.1028 -0.1156
  131MOL   C11431574   7.933   4.147   7.122  0.7641 -0.0336 -0.3315
  131MOL   O11531575   7.805   4.284   7.274 -0.6920 -0.2505 -0.1511
  131MOL   H11631576   7.997   4.626   7.013 -0.8685 -0.6954  0.1641
  131MOL   H11731577   7.930   4.730   7.136 -0.1830  1.5887 -1.2061
  131MOL   H11831578   7.876   4.523   7.269 -0.3859  0.3548 -0.7272
  131MOL   H11931579   7.908   4.158   7.016 -0.2863 -2.5583 -0.3895
  131MOL   H12031580   7.873   4.065   7.159 -2.9849  2.6731 -0.1280
  131MOL   H12131581   0.020   4.134   7.123  0.6444 -0.9903  0.5924
  131MOL   C12231582   0.063   4.562   7.277 -0.0428  0.1561  0.4422
  131MOL   C12331583   0.069   4.488   7.412 -0.0125  0.5165 -0.6450
  131MOL   O12431584   0.203   4.437   7.436  0.2502 -0.0853 -0.3495
  131MOL   C12531585   0.235   4.317   7.386  0.0668 -0.4255  0.6285
  131MOL   C12631586   0.359   4.257   7.447  0.0563  0.3182 -0.1458
  131MOL   O12731587   0.171   4.252   7.301  0.5272 -0.2015 -0.1135
  131MOL   H12831588   0.145   4.534   7.211  1.4227  1.0798  1.8486
  131MOL   H12931589   0.061   4.671   7.287  0.1182  0.2130 -0.1096
  131MOL   H13031590   0.011   4.396   7.405  0.8023  0.0654 -1.5530
  131MOL   H13131591   0.448   4.320   7.434  0.1630 -0.1405 -1.7259
  131MOL   H13231592   0.379   4.160   7.401  0.8466  0.8281 -0.8991
  131MOL   H13331593   0.351   4.244   7.555  0.2927 -0.9267 -0.2691
  131MOL   C13431594   0.027   4.577   7.535  0.0597  0.1841  0.3967
  131MOL   C13531595   7.917   4.650   7.529  0.4234  0.2327  0.3340
  131MOL   O13631596   7.820   4.541   7.555  0.5207 -0.2305  0.1434
  131MOL   C13731597   7.702   4.535   7.485 -0.2217 -0.4770 -0.0757
  131MOL   C13831598   7.621   4.406   7.509  0.3639  0.3267  0.4625
  131MOL   O13931599   7.664   4.634   7.422  0.6061  0.5882  0.8083
  131MOL   H14031600   0.041   4.512   7.621 -0.6157  2.8333  2.5725
  131MOL   H14131601   0.109   4.647   7.545 -0.2227  0.5367  0.2506
  131MOL   H14231602   7.904   4.676   7.424 -0.8098 -2.4300 -0.2208
  131MOL   H14331603   7.640   4.370   7.610 -0.7618  1.3583  1.0472
  131MOL   H14431604   7.643   4.324   7.440  1.3348 -0.6037  1.8409
  131MOL   H14531605   7.516   4.435   7.513 -0.5494 -2.0662 -3.2081
  131MOL   C14631606   7.911   4.769   7.624  0.1336  0.1546  0.3346
  131MOL   C14731607   7.801   4.870   7.600  0.3078  0.2966  0.1329
  131MOL   O14831608   7.766   4.945   7.721 -0.3257  0.3464  0.2206
  131MOL   C14931609   7.860   5.019   7.783  0.0616  0.4981 -0.6208
  131MOL   C15031610   7.799   5.067   7.917 -0.1816  0.2060  0.5267
  131MOL   O15131611   7.975   5.042   7.740 -0.2981 -0.5612  0.2860
  131MOL   H15231612   7.904   4.730   7.726 -0.7525 -0.0962  0.1767
  131MOL   H15331613   8.007   4.819   7.612 -0.0252  0.5108  0.5413
  131MOL   H15431614   7.709   4.814   7.579  0.6588 -1.7173  3.6769
  131MOL   H15531615   7.732   4.990   7.955  0.4929 -0.2058  0.8845
  131MOL   H15631616   7.727   5.147   7.899 -3.4683 -2.5648  0.8323
  131MOL   H15731617   7.876   5.097   7.988  1.8834 -1.7183 -0.8765
  131MOL   C15831618   7.833   4.951   7.478  0.2099 -0.1122 -0.9028
  131MOL   C15931619   7.717   5.048   7.434 -0.1486 -0.1694 -0.1820
  131MOL   O16031620   7.769   5.122   7.323 -0.3810  0.2089 -0.2220
  131MOL   C16131621   7.774   5.254   7.314  0.0920 -0.3525  0.2172
  131MOL   C16231622   7.837   5.306   7.184  0.3556 -0.2923  0.6822
  131MOL   O16331623   7.751   5.336   7.401  0.1985 -0.1611 -0.3434
  131MOL   H16431624   7.920   5.015   7.488 -1.3290  1.8616  0.2471
  131MOL   H16531625   7.851   4.881   7.396 -0.2100  0.3413 -1.3838
  131MOL   H16631626   7.703   5.114   7.520 -1.1122  0.1751 -0.5902
  131MOL   H16731627   7.902   5.229   7.144 -2.1511 -1.2230 -1.7189
  131MOL   H16831628   7.905   5.385   7.217 -1.6723  1.5634  0.5815
  131MOL   H16931629   7.767   5.347   7.111  2.4913  0.4250 -1.0224
  131MOL   C17031630   7.582   4.984   7.404  0.0020  0.9064  0.0564
  131MOL   C17131631   7.474   5.076   7.359 -0.0820 -0.2055 -0.0492
  131MOL   O17231632   7.372   5.004   7.298  0.7366 -0.0527  0.2971
  131MOL   C17331633   7.299   5.052   7.193 -0.7595 -0.0871 -0.1243
  131MOL   C17431634   7.188   4.968   7.144  0.6643 -0.2649 -0.4410
  131MOL   O17531635   7.290   5.171   7.161  0.0517 -0.4607 -0.1705
  131MOL   H17631636   7.600   4.907   7.330 -1.6650 -0.3324  0.8952
  131MOL   H17731637   7.557   4.937   7.499 -2.2873 -0.6457 -1.2624
  131MOL   H17831638   7.528   5.142   7.291 -0.1914  1.7764  1.7116
  131MOL   H17931639   7.096   5.013   7.180  1.0815  0.1963  0.0521
  131MOL   H18031640   7.196   4.869   7.189  1.1592  1.4886  3.5226
  131MOL   H18131641   7.182   4.950   7.036  0.6759 -0.7737 -0.3615
  131MOL   C18231642   7.410   5.160   7.478  0.8018  0.3359  0.0372
  131MOL   C18331643   7.324   5.280   7.444  0.0660  0.3658 -0.8801
  131MOL   O18431644   7.276   5.321   7.575 -0.0162 -0.0247  0.5478
  131MOL   C18531645   7.142   5.296   7.607  0.5874  0.2338  0.2192
  131MOL   C18631646   7.108   5.327   7.753 -0.4020 -0.1794 -0.3425
  131MOL   O18731647   7.054   5.262   7.532 -0.3184  0.6613  0.2899
  131MOL   H18831648   7.360   5.087   7.541 -0.5033  0.2329 -1.0789
  131MOL   H18931649   7.489   5.208   7.535  1.3486 -1.5913  0.9304
  131MOL   H19031650   7.238   5.253   7.383 -0.6407 -0.1334  0.3028
  131MOL   H19131651   7.165   5.409   7.796 -1.7288  1.3614 -1.4801
  131MOL   H19231652   7.132   5.238   7.811  2.7375 -0.8805 -2.6256
  131MOL   H19331653   7.002   5.352   7.767 -1.1597 -4.1194  1.9440
  131MOL   C19431654   7.390   5.409   7.374 -0.1385 -0.1662  0.9457
  131MOL   C19531655   7.272   5.497   7.319 -0.2925 -0.6178  0.1541
  131MOL   O19631656   7.230   5.570   7.429  0.0736 -0.6028 -0.6694
  131MOL   C19731657   7.105   5.610   7.445  0.3528 -0.1994 -0.3119
  131MOL   C19831658   7.071   5.658   7.585 -0.4176  0.2594  0.3613
  131MOL   O19931659   7.013   5.604   7.365 -0.0467 -0.3709  0.0573
  131MOL   H20031660   7.460   5.462   7.439  2.0405  1.7360 -2.8355
  131MOL   H20131661   7.444   5.380   7.284 -1.2345  0.8770 -0.0685
  131MOL   H20231662   7.194   5.426   7.291 -1.0142 -0.3169  1.3856
  131MOL   H20331663   7.147   5.617   7.651  0.0355  1.6979  0.7515
  131MOL   H20431664   6.973   5.624   7.619  0.9145 -4.0310  0.1997
  131MOL   H20531665   7.082   5.765   7.597 -3.2914  0.8933 -2.0486
  131MOL   C20631666   7.303   5.584   7.195 -0.0786  0.4134  0.0696
  131MOL   C20731667   7.289   5.522   7.053  0.1687  0.8945  0.0901
  131MOL   O20831668   7.388   5.423   7.037 -0.3394 -0.0435  0.2826
  131MOL   C20931669   7.458   5.414   6.927  0.4185 -0.3100 -0.5420
  131MOL   C21031670   7.544   5.284   6.922 -0.4648  0.0641  0.3690
  131MOL   O21131671   7.456   5.504   6.845 -0.2423  0.1457 -0.4947
  131MOL   H21231672   7.237   5.670   7.195 -0.0663  0.4465 -1.3493
  131MOL   H21331673   7.394   5.644   7.203 -0.3448  0.8759 -0.3213
  131MOL   H21431674   7.300   5.602   6.979  0.8734  1.1583  0.4725
  131MOL   H21531675   7.649   5.300   6.900 -1.0990  0.1398 -2.8706
  131MOL   H21631676   7.486   5.215   6.861  0.5372  1.0158 -1.6883
  131MOL   H21731677   7.536   5.235   7.019  0.4297 -3.1230 -1.1076
  131MOL   C21831678   7.147   5.468   7.032 -0.0987  0.1722  0.1514
  131MOL   C21931679   7.034   5.576   7.014 -0.4612  0.7562 -0.2232
  131MOL   O22031680   7.068   5.668   6.903  0.2970  0.0952 -0.1665
  131MOL   C22131681   7.139   5.781   6.929  0.6192 -0.4606 -0.2497
  131MOL   C22231682   7.184   5.858   6.815  0.2881 -0.1158  0.7210
  131MOL   O22331683   7.182   5.823   7.033 -0.1045  0.2798 -0.7060
  131MOL   H22431684   7.144   5.419   6.935 -0.3278 -0.4557  0.4723
  131MOL   H22531685   7.115   5.394   7.105 -0.1911  0.6080  0.5543
  131MOL   H22631686   7.025   5.629   7.108 -0.5463 -0.1993  0.3083
  131MOL   H22731687   7.285   5.896   6.826 -0.5647  1.4137  4.1685
  131MOL   H22831688   7.123   5.949   6.810  0.7450  0.2542  1.7770
  131MOL   H22931689   7.185   5.794   6.727  0.0610  3.3747 -1.9667
  131MOL   C23031690   6.902   5.506   6.986 -0.0408 -0.3060 -0.0296
  131MOL   C23131691   6.844   5.413   7.093  0.4265  0.0408  1.0590
  131MOL   O23231692   6.709   5.366   7.075 -0.7693 -0.2795 -0.0330
  131MOL   C23331693   6.666   5.310   6.967 -0.1786  0.1496 -0.2509
  131MOL   C23431694   6.511   5.317   6.965 -0.2801  0.8879 -0.0483
  131MOL   O23531695   6.739   5.266   6.879 -0.0249  0.1669  0.1403
  131MOL   H23631696   6.826   5.583   6.972 -1.7089 -1.8151  0.5790
  131MOL   H23731697   6.901   5.466   6.885 -0.2029  2.1352 -1.0367
  131MOL   H23831698   6.857   5.466   7.188  0.2384 -0.2860  1.2671
  131MOL   H23931699   6.474   5.283   7.061  1.8712 -1.0750  0.1395
  131MOL   H24031700   6.486   5.250   6.883  0.0110  0.3257  0.3214
  131MOL   H24131701   6.467   5.414   6.942  0.9206  1.2865 -0.6987
  131MOL   H24231702   6.909   5.326   7.105 -0.8959 -1.1563 -0.3564
  132MOL     C131703   4.009   7.329   7.338  0.3102 -0.2885  0.3993
  132MOL     C231704   3.999   7.455   7.428 -0.3215  0.7509 -0.3194
  132MOL     O331705   4.118   7.536   7.417 -0.6394  0.2196  0.3271
  132MOL     C431706   4.237   7.485   7.471  0.4501  0.6596 -0.2135
  132MOL     C531707   4.363   7.573   7.467 -0.4301 -0.2751  0.2832
  132MOL     O631708   4.249   7.380   7.533 -0.2516  0.1049 -0.6151
  132MOL     H731709   4.076   7.355   7.256 -0.0882 -0.9920 -0.1451
  132MOL     H831710   3.919   7.290   7.291  0.9770  0.0042 -1.1405
  132MOL     H931711   3.992   7.419   7.530  0.8954 -2.2104 -1.2132
  132MOL    H1031712   4.415   7.584   7.372 -1.0632  1.8104  0.1418
  132MOL    H1131713   4.440   7.536   7.535  1.0601  2.7431  0.3371
  132MOL    H1231714   4.344   7.672   7.510  1.0262  0.4676 -0.7327
  132MOL    H1331715   4.048   7.248   7.399  0.1542 -0.3348  0.4366
  132MOL    C1431716   3.883   7.551   7.385 -0.1254 -0.5332  0.0179
  132MOL    C1531717   3.739   7.508   7.442  0.1508 -0.0781 -0.1649
  132MOL    O1631718   3.717   7.382   7.389  0.0387  0.4327 -0.9525
  132MOL    C1731719   3.601   7.366   7.323  0.4180  0.2931  0.4366
  132MOL    C1831720   3.595   7.241   7.235  0.1574 -0.1560 -0.5929
  132MOL    O1931721   3.511   7.451   7.319 -0.2323 -0.4143  0.8162
  132MOL    H2031722   3.908   7.650   7.423 -1.4648  0.6808 -2.1598
  132MOL    H2131723   3.885   7.573   7.278 -0.2182  1.9640  0.5083
  132MOL    H2231724   3.680   7.591   7.403  2.4281  1.1176 -1.1542
  132MOL    H2331725   3.567   7.263   7.132 -2.1884  0.3270  0.1220
  132MOL    H2431726   3.542   7.154   7.274 -3.9989  2.1568 -0.7801
  132MOL    H2531727   3.697   7.202   7.237  0.1159 -0.3621 -2.1551
  132MOL    C2631728   3.730   7.507   7.598  0.5732 -0.2457  0.0400
  132MOL    C2731729   3.736   7.649   7.667  0.5204 -0.0458  0.0481
  132MOL    O2831730   3.631   7.732   7.632  0.1347  0.1851  0.5919
  132MOL    C2931731   3.646   7.855   7.579 -0.8059  0.4804 -0.2280
  132MOL    C3031732   3.519   7.923   7.525  0.3099  0.0959  0.2736
  132MOL    O3131733   3.757   7.909   7.571  0.1789  0.1043 -0.3960
  132MOL    H3231734   3.641   7.458   7.637  0.7392 -0.4905  0.1139
  132MOL    H3331735   3.822   7.455   7.625  1.0124 -0.5795 -2.0216
  132MOL    H3431736   3.829   7.699   7.642  0.5827  0.8086  1.9362
  132MOL    H3531737   3.436   7.919   7.595 -0.5490 -0.1101 -0.7294
  132MOL    H3631738   3.494   7.867   7.435  1.1922 -0.8758  0.6191
  132MOL    H3731739   3.522   0.006   7.493 -0.9284  1.4086  4.2488
  132MOL    C3831740   3.739   7.643   7.821 -0.4902  0.8339 -0.2082
  132MOL    C3931741   3.832   7.752   7.877  0.2187 -0.4706  0.1568
  132MOL    O4031742   3.773   7.796   8.000  0.1476 -0.7116  0.1776
  132MOL    C4131743   3.789   7.929   0.009 -0.0468 -0.3869  0.9853
  132MOL    C4231744   3.721   7.968   0.137  0.3608 -0.6677  0.2679
  132MOL    O4331745   3.847   8.015   7.965 -0.2991  0.0961 -0.2269
  132MOL    H4431746   3.644   7.657   7.873 -0.1823 -0.0624  0.6112
  132MOL    H4531747   3.775   7.548   7.862 -3.2728 -0.4967 -0.7450
  132MOL    H4631748   3.825   7.843   7.818  1.4365 -0.3975  0.1269
  132MOL    H4731749   3.721   7.884   0.206 -1.0881  1.1166  2.5307
  132MOL    H4831750   3.620   8.005   0.118 -0.0612 -1.4669  0.9146
  132MOL    H4931751   3.761   0.033   0.191 -2.5355  2.0565 -1.7737
  132MOL    C5031752   3.976   7.702   7.899  0.2332  0.4726 -0.1439
  132MOL    C5131753   4.062   7.666   7.776 -0.8779 -0.5713  0.1725
  132MOL    O5231754   4.045   7.755   7.667 -0.0832  0.9956 -0.5880
  132MOL    C5331755   4.117   7.865   7.642  0.2487  0.3973  0.5750
  132MOL    C5431756   4.070   7.936   7.514  0.0863  0.3168 -0.4481
  132MOL    O5531757   4.198   7.916   7.717 -1.0715 -0.0659  0.5339
  132MOL    H5631758   4.021   7.789   7.948 -0.0053  1.0379 -0.9085
  132MOL    H5731759   3.976   7.622   7.973  0.1278 -0.3771 -1.0544
  132MOL    H5831760   4.025   7.572   7.733  0.1883 -0.7303 -0.4135
  132MOL    H5931761   3.998   8.017   7.527 -2.3881 -1.8470 -0.3027
  132MOL    H6031762   4.035   7.853   7.452  0.7024  0.4197 -0.9454
  132MOL    H6131763   4.150   7.980   7.453  1.3507  1.0130  1.6596
  132MOL    C6231764   4.213   7.626   7.818  0.5134  0.4460  0.3609
  132MOL    C6331765   4.225   7.496   7.896 -0.4680 -0.0996 -0.6979
  132MOL    O6431766   4.160   7.395   7.823 -0.2953 -0.2372  0.4672
  132MOL    C6531767   4.036   7.351   7.868 -0.0501  0.1920 -0.5761
  132MOL    C6631768   3.973   7.244   7.787 -0.6785 -0.2217  0.1391
  132MOL    O6731769   3.974   7.390   7.968 -0.1755  0.2075  0.4913
  132MOL    H6831770   4.277   7.632   7.731  2.5997  2.1473  1.9742
  132MOL    H6931771   4.241   7.705   7.888  0.6752 -1.2331  2.2382
  132MOL    H7031772   4.170   7.515   7.989  2.8493  0.0286  1.3031
  132MOL    H7131773   3.923   7.175   7.856 -0.4261  0.3669  0.9120
  132MOL    H7231774   4.054   7.196   7.731 -0.2845 -1.2561  1.5885
  132MOL    H7331775   3.897   7.286   7.720 -0.4050  0.1333  0.0527
  132MOL    C7431776   4.370   7.451   7.922  1.5543  0.1696 -0.1466
  132MOL    C7531777   4.383   7.335   0.000 -0.3855 -0.0822 -0.3260
  132MOL    O7631778   4.338   7.217   7.957 -0.3631 -0.6490  0.3668
  132MOL    C7731779   4.276   7.119   8.019 -0.6010  0.2382 -0.0127
  132MOL    C7831780   4.228   7.019   7.922 -0.7583 -0.1591  0.3622
  132MOL    O7931781   4.257   7.109   0.120  0.1175  0.8291  0.1348
  132MOL    H8031782   4.424   7.447   7.828  3.4852  0.3054  0.9357
  132MOL    H8131783   4.417   7.536   7.973  1.7334  0.0776 -0.1603
  132MOL    H8231784   4.320   7.361   0.084  0.7768  2.3990 -0.1941
  132MOL    H8331785   4.168   6.948   7.979 -0.1590 -1.1245 -0.2073
  132MOL    H8431786   4.309   6.970   7.868 -1.9494  1.7306 -3.2585
  132MOL    H8531787   4.170   7.064   7.842  1.2732  3.9985  1.0961
  132MOL    C8631788   4.531   7.317   0.042  0.2068  0.1488  0.5484
  132MOL    C8731789   4.595   7.427   0.131  0.0151 -0.5513  0.6263
  132MOL    O8831790   4.670   7.383   0.238  0.2870 -0.5528  0.1118
  132MOL    C8931791   4.616   7.337   0.349  0.7894 -0.0548  0.4927
  132MOL    C9031792   4.717   7.299   0.452  0.4837 -0.3451 -0.7605
  132MOL    O9131793   4.500   7.335   0.382 -0.1081 -0.3168  0.0918
  132MOL    H9231794   4.526   7.225   0.101 -1.5325  1.1167  1.9522
  132MOL    H9331795   4.599   7.293   7.981  0.1262 -1.3888  0.9118
  132MOL    H9431796   4.513   7.492   0.160 -0.8949 -0.4982 -1.9837
  132MOL    H9531797   4.763   7.204   0.425  2.2775 -0.2921  1.8562
  132MOL    H9631798   4.668   7.281   0.547 -2.2534 -2.5541 -2.5187
  132MOL    H9731799   4.790   7.378   0.472  0.8100 -0.1270 -2.7504
  132MOL    C9831800   4.684   7.523   0.044  0.2082 -0.5409  0.4835
  132MOL    C9931801   4.758   7.641   0.124  0.7368  0.1594 -0.3104
  132MOL   O10031802   4.855   7.691   0.034  0.1674 -0.7632  0.5050
  132MOL   C10131803   4.977   7.716   0.060  0.1743  0.4381  0.1347
  132MOL   C10231804   5.044   7.772   7.952  0.3675  0.7162  0.2800
  132MOL   O10331805   5.039   7.702   0.165  0.3955  0.6763 -0.0667
  132MOL   H10431806   4.762   7.464   8.018  0.5073 -0.2186  0.5731
  132MOL   H10531807   4.624   7.557   7.981  0.8329  0.3789  0.4041
  132MOL   H10631808   4.809   7.599   0.211  1.2065  0.0968 -0.6197
  132MOL   H10731809   5.081   7.699   7.880  2.4920  2.2553 -0.2479
  132MOL   H10831810   5.145   7.793   7.989  1.0854 -0.8940 -0.7064
  132MOL   H10931811   4.996   7.858   7.907 -0.8844  0.4440  1.0642
  132MOL   C11031812   4.673   7.759   0.173 -0.0759  0.0881  0.0654
  132MOL   C11131813   4.661   7.764   0.325 -0.0243 -0.3163 -0.0464
  132MOL   O11231814   4.799   7.773   0.380  0.2229  0.0604  0.0234
  132MOL   C11331815   4.829   7.700   0.494  0.1315  0.2652  0.1887
  132MOL   C11431816   4.977   7.676   0.520  0.5754 -0.8412  0.2064
  132MOL   O11531817   4.750   7.634   0.556  0.1984  0.0962 -0.3603
  132MOL   H11631818   4.707   7.852   0.128  0.0389  0.1237  0.2261
  132MOL   H11731819   4.571   7.747   0.138  0.0639  2.0983 -1.1070
  132MOL   H11831820   4.604   7.681   0.367 -0.2874 -0.1149 -0.0058
  132MOL   H11931821   5.045   7.675   0.435 -0.3776  0.0990 -0.5816
  132MOL   H12031822   4.984   7.590   0.587 -0.2046  0.3438  1.8751
  132MOL   H12131823   5.021   7.754   0.582  0.7493 -0.7366 -0.0514
  132MOL   C12231824   4.579   7.897   0.354  0.3523 -0.1016  0.0574
  132MOL   C12331825   4.537   7.896   0.499 -0.0310  0.4261  0.4857
  132MOL   O12431826   4.487   0.003   0.531  0.3297  0.0385  0.1734
  132MOL   C12531827   4.500   0.064   0.657 -0.5079  0.4231  0.4187
  132MOL   C12631828   4.420   0.187   0.673  0.3933 -0.0423 -0.3663
  132MOL   O12731829   4.578   0.022   0.736  0.3443 -0.0147 -0.2380
  132MOL   H12831830   4.645   7.983   0.343 -1.4190  1.1033 -1.4499
  132MOL   H12931831   4.491   7.905   0.290  0.7205 -1.5982 -0.6469
  132MOL   H13031832   4.632   7.881   0.551 -0.3183 -1.1002  0.5822
  132MOL   H13131833   4.377   0.195   0.773 -0.0506  0.7931 -0.6097
  132MOL   H13231834   4.337   0.185   0.602  0.4182 -1.9178 -0.3555
  132MOL   H13331835   4.474   0.281   0.666  0.8271 -0.3286 -0.8142
  132MOL   C13431836   4.433   7.788   0.538  0.2428  0.5129 -0.3444
  132MOL   C13531837   4.292   7.787   0.468 -0.0467  0.0104  0.4287
  132MOL   O13631838   4.260   7.650   0.443 -0.4653 -0.1769  0.3099
  132MOL   C13731839   4.283   7.602   0.320  0.0508  0.4141 -0.6921
  132MOL   C13831840   4.208   7.472   0.310 -0.2228 -0.0484  0.3134
  132MOL   O13931841   4.334   7.653   0.224 -0.1722  0.1790 -0.8753
  132MOL   H14031842   4.483   7.694   0.519  0.2078  0.5451 -0.6045
  132MOL   H14131843   4.424   7.791   0.646  1.9458 -0.9167 -0.1553
  132MOL   H14231844   4.301   7.846   0.377 -0.1017 -1.5194 -0.5950
  132MOL   H14331845   4.268   7.381   0.298 -1.1887 -0.8547  1.4941
  132MOL   H14431846   4.125   7.477   0.239  2.2450 -1.5648 -2.8320
  132MOL   H14531847   4.154   7.456   0.403 -0.9984 -1.8061 -0.4065
  132MOL   C14631848   4.182   7.846   0.554  0.0889  0.2819  0.2789
  132MOL   C14731849   4.047   7.867   0.480 -0.0334 -0.0863 -0.2683
  132MOL   O14831850   3.975   7.749   0.512  0.3868  0.1411 -0.2051
  132MOL   C14931851   3.890   7.693   0.420  0.4074 -0.0299 -0.6467
  132MOL   C15031852   3.838   7.558   0.468 -0.4396  0.1133 -0.6121
  132MOL   O15131853   3.855   7.743   0.307  0.0356  0.1274 -0.5703
  132MOL   H15231854   4.176   7.782   0.641  2.2258  0.5662  0.6696
  132MOL   H15331855   4.218   7.939   0.598  1.7498 -0.3387  0.2950
  132MOL   H15431856   4.060   7.865   0.371 -0.1206  2.2459 -0.3440
  132MOL   H15531857   3.731   7.559   0.484 -0.7741 -0.7115 -2.6589
  132MOL   H15631858   3.904   7.514   0.543  0.1559  3.0370  0.6460
  132MOL   H15731859   3.842   7.491   0.382 -0.1278 -1.5124  0.6643
  132MOL   C15831860   3.966   7.992   0.511 -0.0112  0.1017 -0.2009
  132MOL   C15931861   4.020   0.098   0.435 -0.1973  0.1404  0.4582
  132MOL   O16031862   4.034   0.061   0.299  0.3236 -0.1148 -0.4335
  132MOL   C16131863   4.153   0.066   0.236 -0.1970 -0.2078  0.2872
  132MOL   C16231864   4.131   0.030   0.093  0.6525 -0.4289 -0.0913
  132MOL   O16331865   4.263   0.089   0.281  0.4186  0.1904 -0.0214
  132MOL   H16431866   3.860   7.979   0.488 -0.3775  2.2507  0.1578
  132MOL   H16531867   3.976   8.004   0.619 -0.1780 -1.8996  0.0388
  132MOL   H16631868   4.120   0.115   0.475 -0.5993  0.5197  1.3116
  132MOL   H16731869   4.060   7.968   0.091 -0.2774  0.3548 -0.0455
  132MOL   H16831870   4.226   0.005   0.046  0.2780  1.2384 -1.7851
  132MOL   H16931871   4.082   0.098   0.024  0.5358 -0.8101 -0.3868
  132MOL   C17031872   3.928   0.225   0.441 -0.2574  0.0637  0.0330
  132MOL   C17131873   3.935   0.323   0.563 -0.0355 -0.3844 -0.2673
  132MOL   O17231874   3.932   0.254   0.693 -0.4023 -0.8807  0.5269
  132MOL   C17331875   3.820   0.202   0.737  0.3568 -0.1241 -0.3551
  132MOL   C17431876   3.825   0.158   0.884  0.0398 -0.2887 -0.7251
  132MOL   O17531877   3.722   0.187   0.672  0.4683  0.3134 -0.4803
  132MOL   H17631878   3.953   0.293   0.360  2.7273  0.6975  1.4099
  132MOL   H17731879   3.827   0.189   0.421 -0.1884  0.1130 -0.4149
  132MOL   H17831880   3.850   0.390   0.555 -0.8117 -0.9026  3.1809
  132MOL   H17931881   3.813   0.051   0.899 -0.0781  0.0130  1.4544
  132MOL   H18031882   3.742   0.203   0.939  0.7336  1.9661 -1.4955
  132MOL   H18131883   3.915   0.188   0.937  0.1752 -0.2721 -0.9656
  132MOL   C18231884   4.057   0.405   0.552  0.2415  0.0601 -0.9663
  132MOL   C18331885   4.075   0.509   0.662  0.1866  0.1367  0.4712
  132MOL   O18431886   4.213   0.536   0.671 -0.0417  0.3609  0.2754
  132MOL   C18531887   4.279   0.519   0.790 -0.3829  0.0318 -0.5135
  132MOL   C18631888   4.429   0.555   0.786 -0.4292  0.4840 -0.5501
  132MOL   O18731889   4.231   0.459   0.886 -0.5655  0.0218 -0.1130
  132MOL   H18831890   4.136   0.331   0.564 -1.5901 -1.9869 -1.3333
  132MOL   H18931891   4.067   0.448   0.453 -2.7920  2.0200 -0.4797
  132MOL   H19031892   4.037   0.470   0.756  0.8129  1.7477  1.4080
  132MOL   H19131893   4.442   0.594   0.887  1.2914  2.0739 -1.3644
  132MOL   H19231894   4.442   0.631   0.709 -0.2047  1.1582  0.1569
  132MOL   H19331895   4.481   0.460   0.769  1.8148  1.2255  1.9548
  132MOL   C19431896   4.010   0.650   0.635  0.0975  0.5267 -0.0481
  132MOL   C19531897   3.856   0.644   0.635  0.6236 -0.2265  0.1164
  132MOL   O19631898   3.814   0.602   0.760 -0.1020  0.1479 -0.0149
  132MOL   C19731899   3.694   0.533   0.775  0.3302 -0.0803  0.0491
  132MOL   C19831900   3.671   0.495   0.925  0.0495 -0.8870 -0.5389
  132MOL   O19931901   3.613   0.508   0.690 -0.0184 -0.2416 -0.1070
  132MOL   H20031902   4.037   0.728   0.706 -1.2365 -0.2220  1.3142
  132MOL   H20131903   4.045   0.680   0.536  1.1140 -0.4986 -0.0058
  132MOL   H20231904   3.805   0.582   0.562 -0.1379 -0.1134  0.5462
  132MOL   H20331905   3.765   0.459   0.968  0.7274 -1.8843 -2.7885
  132MOL   H20431906   3.600   0.413   0.936  0.8946 -1.4546  0.8158
  132MOL   H20531907   3.648   0.580   0.989 -0.6221 -1.0122 -0.6134
  132MOL   C20631908   3.785   0.785   0.615 -0.2982  0.1653 -0.3863
  132MOL   C20731909   3.797   0.845   0.471  0.2477  0.2561  0.4566
  132MOL   O20831910   3.722   0.755   0.387  0.7730  0.3387 -0.4855
  132MOL   C20931911   3.785   0.671   0.301 -0.1981  0.5313  0.5167
  132MOL   C21031912   3.688   0.570   0.241  0.1898 -0.0585 -0.0735
  132MOL   O21131913   3.909   0.666   0.285  0.2781 -0.2693 -0.6178
  132MOL   H21231914   3.681   0.782   0.645 -0.5456  0.2660 -1.2055
  132MOL   H21331915   3.831   0.849   0.690  0.6781 -1.4169  0.3929
  132MOL   H21431916   3.900   0.860   0.439 -0.4062  1.1369 -1.2934
  132MOL   H21531917   3.686   0.483   0.306  0.3645 -1.6455 -2.1253
  132MOL   H21631918   3.728   0.554   0.140 -1.7822 -0.7028 -0.7639
  132MOL   H21731919   3.590   0.615   0.230 -0.1775 -0.9394 -0.4531
  132MOL   C21831920   3.742   0.977   0.460  0.2178  0.2379  0.4350
  132MOL   C21931921   3.804   1.065   0.349  0.0018  0.2630 -1.2004
  132MOL   O22031922   3.783   0.992   0.232 -0.2917 -0.0063  0.2433
  132MOL   C22131923   3.883   0.995   0.140 -0.2348  0.0234  0.2528
  132MOL   C22231924   3.863   0.914   0.016 -0.3482  0.0503 -0.4656
  132MOL   O22331925   3.987   1.059   0.148  0.0277  0.3372  0.0233
  132MOL   H22431926   3.636   0.968   0.435  0.4138  3.4170 -1.7464
  132MOL   H22531927   3.756   1.029   0.555 -0.8655  0.5036  0.4533
  132MOL   H22631928   3.909   1.071   0.379 -0.3193 -3.1769  0.9557
  132MOL   H22731929   3.800   0.974   7.971  0.4722  1.0938 -0.3174
  132MOL   H22831930   3.809   0.820   0.026  1.2879 -0.8089  0.3301
  132MOL   H22931931   3.957   0.880   7.995  0.9947  0.6115  1.9575
  132MOL   C23031932   3.730   1.199   0.340  0.3688 -0.0540 -0.0075
  132MOL   C23131933   3.730   1.287   0.471 -0.3405 -0.1199  0.0122
  132MOL   O23231934   3.688   1.408   0.438 -0.3779 -0.4825 -0.0072
  132MOL   C23331935   3.680   1.513   0.525  0.0289 -0.4595  0.1556
  132MOL   C23431936   3.610   1.631   0.457 -0.0344  0.0311 -0.1134
  132MOL   O23531937   3.705   1.506   0.649  0.2161  0.2791  0.1109
  132MOL   H23631938   3.778   1.252   0.259  1.9272 -1.7705 -0.2487
  132MOL   H23731939   3.627   1.172   0.316  0.3276 -0.0782  0.1948
  132MOL   H23831940   3.830   1.296   0.513  0.1478 -0.3095 -1.0861
  132MOL   H23931941   3.595   1.605   0.352 -2.6654  0.1848  0.1942
  132MOL   H24031942   3.669   1.722   0.463  0.0017 -0.0433  0.8063
  132MOL   H24131943   3.515   1.648   0.507  0.7821  5.6211 -0.1614
  132MOL   H24231944   3.660   1.248   0.546  1.0805 -1.4284  0.6912
  133MOL     C131945   2.521   1.988   4.057 -0.7867  0.5563 -0.8219
  133MOL     C231946   2.572   2.073   3.936 -0.2522 -0.2700 -0.4216
  133MOL     O331947   2.621   2.197   3.982 -0.4816 -0.2859  0.0502
  133MOL     C431948   2.528   2.306   3.982 -0.2463  0.3522 -0.2656
  133MOL     C531949   2.596   2.438   4.019  0.5020  0.1168  0.5252
  133MOL     O631950   2.406   2.297   3.965  0.3498  0.2785 -0.0060
  133MOL     H731951   2.462   2.042   4.131 -0.5915  0.5557 -0.6636
  133MOL     H831952   2.612   1.964   4.113 -2.6110 -0.8494  1.6490
  133MOL     H931953   2.488   2.087   3.868  1.5608 -2.0156 -3.0894
  133MOL    H1031954   2.628   2.428   4.123  2.2816 -2.4374 -0.2237
  133MOL    H1131955   2.530   2.521   3.995  0.0025  0.1161  1.8239
  133MOL    H1231956   2.688   2.459   3.966  0.3379 -0.4207  0.0162
  133MOL    H1331957   2.478   1.892   4.030 -0.2566 -0.8863  3.1205
  133MOL    C1431958   2.692   2.009   3.863  0.3605 -0.5159  0.2730
  133MOL    C1531959   2.728   2.060   3.728 -0.2620  0.5661  0.1670
  133MOL    O1631960   2.864   2.044   3.709 -0.2097 -0.0392  0.3789
  133MOL    C1731961   2.939   2.132   3.623 -0.3299 -0.8181 -0.1994
  133MOL    C1831962   3.084   2.102   3.633 -0.0206  0.0143 -0.1720
  133MOL    O1931963   2.895   2.222   3.554 -0.2041 -0.3840  0.0597
  133MOL    H2031964   2.782   2.022   3.924  0.2917 -1.7270  0.6355
  133MOL    H2131965   2.680   1.901   3.859 -1.0084 -0.4270  1.4675
  133MOL    H2231966   2.702   2.166   3.727 -0.5620  0.4960  0.4910
  133MOL    H2331967   3.111   2.033   3.553  1.1102  3.2926 -2.7476
  133MOL    H2431968   3.099   2.044   3.724 -1.0235 -0.2894 -0.1906
  133MOL    H2531969   3.157   2.183   3.625 -0.3278  0.2671 -0.4110
  133MOL    C2631970   2.645   1.996   3.610  0.4557 -0.0111  0.2625
  133MOL    C2731971   2.648   2.060   3.466 -0.9715 -0.2615  0.5320
  133MOL    O2831972   2.580   1.968   3.379 -0.0350 -0.0758 -0.7108
  133MOL    C2931973   2.643   1.859   3.329  0.6317 -0.1642 -0.4631
  133MOL    C3031974   2.554   1.772   3.241 -0.1649  0.5833 -0.4643
  133MOL    O3131975   2.760   1.819   3.354 -0.2445  0.6780 -0.2925
  133MOL    H3231976   2.680   1.893   3.608  1.4939  0.2451  2.9437
  133MOL    H3331977   2.545   1.985   3.650 -0.0895  0.1716 -1.0285
  133MOL    H3431978   2.755   2.073   3.448 -0.2328 -3.1921  2.4310
  133MOL    H3531979   2.476   1.728   3.302 -1.7708  2.6055 -1.0111
  133MOL    H3631980   2.606   1.691   3.190 -3.3449 -0.9530 -1.4236
  133MOL    H3731981   2.503   1.835   3.168  2.8541  0.5598 -2.7142
  133MOL    C3831982   2.590   2.204   3.453 -0.0235  0.1407 -0.3128
  133MOL    C3931983   2.613   2.299   3.332  0.8209  0.2121  0.0418
  133MOL    O4031984   2.551   2.241   3.207 -0.0068  0.2292 -0.3604
  133MOL    C4131985   2.616   2.175   3.110 -0.0199 -0.8236 -0.5666
  133MOL    C4231986   2.535   2.144   2.992  0.2608  0.0403  0.8718
  133MOL    O4331987   2.727   2.120   3.127 -0.3728  0.4537 -0.5809
  133MOL    H4431988   2.484   2.211   3.480  0.2674  1.3151  0.6024
  133MOL    H4531989   2.642   2.253   3.536  1.2171 -1.6185 -0.0142
  133MOL    H4631990   2.721   2.313   3.324  0.8860 -0.5511 -0.5671
  133MOL    H4731991   2.558   2.039   2.974 -0.9528  0.1008 -1.1976
  133MOL    H4831992   2.568   2.217   2.918 -2.9372 -0.4020 -1.1105
  133MOL    H4931993   2.433   2.164   3.026 -0.2293  1.9264 -1.5833
  133MOL    C5031994   2.563   2.442   3.353  0.3677  0.2444 -0.2342
  133MOL    C5131995   2.632   2.554   3.272 -0.1877  0.4887 -0.1548
  133MOL    O5231996   2.556   2.670   3.286 -0.2851  0.1089 -0.0631
  133MOL    C5331997   2.533   2.740   3.181  0.7994  0.3290 -0.1215
  133MOL    C5431998   2.445   2.852   3.213 -0.0880  0.0870 -0.0301
  133MOL    O5531999   2.572   2.712   3.062 -0.1801  0.5129 -0.2109
  133MOL    H5632000   2.457   2.442   3.327  0.0836 -0.4612  0.8931
  133MOL    H5732001   2.571   2.471   3.457 -0.3248 -0.7292  0.0954
  133MOL    H5832002   2.635   2.505   3.174 -0.0768  0.4992 -0.1564
  133MOL    H5932003   2.400   2.848   3.312  0.5192 -1.3789  0.1981
  133MOL    H6032004   2.363   2.863   3.141  0.9462  0.5286 -1.1569
  133MOL    H6132005   2.494   2.948   3.196  2.1785 -0.8279  1.1400
  133MOL    C6232006   2.770   2.588   3.323 -0.0032  1.1258  0.3005
  133MOL    C6332007   2.771   2.629   3.475  0.0256  0.1073 -0.1189
  133MOL    O6432008   2.827   2.526   3.568 -0.2570 -0.5767  0.4168
  133MOL    C6532009   2.754   2.482   3.674 -0.6050  0.7654  0.4693
  133MOL    C6632010   2.855   2.425   3.772 -0.0356 -0.1429 -0.0495
  133MOL    O6732011   2.636   2.495   3.693  0.7357 -0.3890 -0.0003
  133MOL    H6832012   2.840   2.506   3.309  0.5385  1.6203  0.0980
  133MOL    H6932013   2.819   2.665   3.263  0.4699 -0.3192 -1.1907
  133MOL    H7032014   2.666   2.651   3.498  0.3477 -1.5467  3.3673
  133MOL    H7132015   2.815   2.334   3.817  2.4774 -0.3211  1.9681
  133MOL    H7232016   2.893   2.506   3.836 -1.7796 -0.0057  0.8430
  133MOL    H7332017   2.950   2.391   3.730 -0.2225  1.0075 -1.4475
  133MOL    C7432018   2.853   2.760   3.496 -0.5194 -0.9079  0.2226
  133MOL    C7532019   2.805   2.837   3.626 -0.0946  0.4760  0.9046
  133MOL    O7632020   2.909   2.915   3.672 -0.4896  0.3887  0.1749
  133MOL    C7732021   3.005   2.864   3.753  0.5521  0.3020 -0.1342
  133MOL    C7832022   3.102   2.969   3.804 -0.1827 -0.3264  0.6410
  133MOL    O7932023   3.034   2.744   3.776  0.2092 -0.1097 -0.1572
  133MOL    H8032024   2.956   2.727   3.511  0.0072  0.8599  0.6713
  133MOL    H8132025   2.851   2.818   3.403 -1.1346 -2.9697 -1.1026
  133MOL    H8232026   2.779   2.765   3.704  0.8769 -0.5738  0.2870
  133MOL    H8332027   3.145   3.029   3.725 -1.2542 -1.6222 -0.9584
  133MOL    H8432028   3.179   2.917   3.861 -1.0791 -2.3037  0.0872
  133MOL    H8532029   3.071   3.045   3.875  0.1111 -0.2005  0.6350
  133MOL    C8632030   2.692   2.932   3.589  0.0734 -0.5656  0.4500
  133MOL    C8732031   2.605   2.969   3.710  0.2292  0.1963 -0.8779
  133MOL    O8832032   2.506   3.059   3.661  1.1006 -0.1020 -0.3625
  133MOL    C8932033   2.531   3.187   3.658  0.5261 -0.0176  0.5958
  133MOL    C9032034   2.411   3.280   3.629  0.6467 -0.6575  0.2381
  133MOL    O9132035   2.642   3.240   3.678 -0.1480 -0.5518 -0.1897
  133MOL    H9232036   2.736   3.024   3.551 -0.2168 -0.1326  1.1570
  133MOL    H9332037   2.635   2.889   3.507  1.3864  0.8430 -1.2427
  133MOL    H9432038   2.659   3.008   3.796 -1.5949 -0.2385  0.4815
  133MOL    H9532039   2.393   3.323   3.727 -0.6012 -0.5447 -0.0272
  133MOL    H9632040   2.334   3.224   3.577 -0.4126 -1.0418  2.1880
  133MOL    H9732041   2.439   3.361   3.560 -2.6151  0.3179 -0.0243
  133MOL    C9832042   2.507   2.857   3.767 -0.1159 -0.5656  0.4350
  133MOL    C9932043   2.429   2.900   3.895 -0.2040 -0.5553  0.6758
  133MOL   O10032044   2.293   2.849   3.888 -0.6981 -0.0328 -0.1460
  133MOL   C10132045   2.190   2.939   3.853 -0.5338  0.1540  0.0535
  133MOL   C10232046   2.047   2.888   3.883 -0.3598  0.6888  0.2178
  133MOL   O10332047   2.214   3.045   3.795 -0.3804  0.2348 -0.2255
  133MOL   H10432048   2.438   2.831   3.687  0.2910 -0.0918 -0.0743
  133MOL   H10532049   2.559   2.762   3.770  0.7346 -0.1400 -0.3985
  133MOL   H10632050   2.441   3.006   3.915  0.4985 -0.6988  1.0297
  133MOL   H10732051   2.013   2.829   3.798  1.5424 -0.2265  0.0843
  133MOL   H10832052   1.972   2.962   3.910 -0.7928  0.1852  0.4057
  133MOL   H10932053   2.063   2.820   3.966 -0.5327  0.3314 -0.0414
  133MOL   C11032054   2.489   2.835   4.016  0.4343  0.3840  0.5440
  133MOL   C11132055   2.436   2.863   4.152 -0.1741 -0.1869  0.1631
  133MOL   O11232056   2.485   2.758   4.237 -0.0098 -0.7084 -0.3653
  133MOL   C11332057   2.397   2.684   4.300  0.2984  0.6016 -0.4764
  133MOL   C11432058   2.475   2.584   4.378 -0.1619  0.1728  0.2217
  133MOL   O11532059   2.274   2.701   4.314  0.0190  0.5421  0.3401
  133MOL   H11632060   2.482   2.728   3.993  0.8483  0.6914 -1.1227
  133MOL   H11732061   2.594   2.862   4.007  1.3713 -2.8260  1.0293
  133MOL   H11832062   2.329   2.881   4.142  0.3673  2.2484 -1.5708
  133MOL   H11932063   2.498   2.498   4.315 -0.4186 -1.9036  2.8736
  133MOL   H12032064   2.428   2.557   4.472  0.6885 -0.2159  0.5389
  133MOL   H12132065   2.572   2.628   4.398 -0.2531  0.6874 -0.4230
  133MOL   C12232066   2.504   2.987   4.223 -0.1566  0.0160  0.2339
  133MOL   C12332067   2.498   3.125   4.171 -0.0668  0.7620  0.5147
  133MOL   O12432068   2.355   3.153   4.160  0.3828  0.0174  0.4954
  133MOL   C12532069   2.316   3.258   4.081  0.1086 -0.9703  0.4520
  133MOL   C12632070   2.167   3.258   4.061 -0.1976  0.5958  0.3899
  133MOL   O12732071   2.397   3.328   4.018  0.3712 -0.1691 -0.5568
  133MOL   H12832072   2.482   2.991   4.330  1.5821  1.9023  0.5474
  133MOL   H12932073   2.609   2.960   4.221 -0.3047 -0.5380 -0.2064
  133MOL   H13032074   2.536   3.127   4.069  1.5303  0.2109  1.0873
  133MOL   H13132075   2.122   3.331   4.128 -1.1637 -1.4592  2.0678
  133MOL   H13232076   2.129   3.163   4.100  2.0177 -0.6586 -0.4614
  133MOL   H13332077   2.142   3.273   3.956  0.9786 -1.8716 -0.2784
  133MOL   C13432078   2.580   3.215   4.271 -0.0052  0.2235 -0.1901
  133MOL   C13532079   2.732   3.195   4.262  0.1562  0.7014 -0.0473
  133MOL   O13632080   2.777   3.244   4.133  0.0435 -0.3738 -0.1855
  133MOL   C13732081   2.811   3.163   4.040  0.1091 -0.1520  0.0121
  133MOL   C13832082   2.852   3.236   3.912  0.1602  0.0161  0.2571
  133MOL   O13932083   2.811   3.039   4.041  0.2949  0.2634 -0.1395
  133MOL   H14032084   2.556   3.319   4.249 -0.8912  0.3949  1.5003
  133MOL   H14132085   2.547   3.198   4.373 -1.5389 -1.4691 -0.9474
  133MOL   H14232086   2.752   3.088   4.271  0.9965  1.0143  1.9822
  133MOL   H14332087   2.858   3.171   3.824 -0.8258 -1.3873  1.2132
  133MOL   H14432088   2.922   3.318   3.925  1.4235 -1.0165 -0.0141
  133MOL   H14532089   2.768   3.300   3.882 -0.7707  0.1994  3.1484
  133MOL   C14632090   2.812   3.255   4.372  0.7514  0.0730  1.0042
  133MOL   C14732091   2.787   3.201   4.518  0.4083  0.3951  0.1316
  133MOL   O14832092   2.840   3.069   4.523 -0.0346  0.5398  0.4843
  133MOL   C14932093   2.757   2.967   4.526  0.6347  0.1525  0.0690
  133MOL   C15032094   2.830   2.835   4.536  0.2398 -0.6637  0.5531
  133MOL   O15132095   2.633   2.972   4.525 -0.2800 -0.0091 -0.0889
  133MOL   H15232096   2.920   3.250   4.360  0.5981  1.1944 -1.2848
  133MOL   H15332097   2.791   3.362   4.380 -0.1422 -0.0759  0.7527
  133MOL   H15432098   2.682   3.219   4.542 -0.5288 -0.9399 -2.8071
  133MOL   H15532099   2.921   2.820   4.479 -0.9720  0.6600 -1.7822
  133MOL   H15632100   2.759   2.758   4.504  0.5226 -1.6828  2.3071
  133MOL   H15732101   2.856   2.796   4.635  0.2469 -0.1190  0.7624
  133MOL   C15832102   2.853   3.292   4.622  0.0046 -0.4262 -0.3921
  133MOL   C15932103   2.783   3.430   4.648 -0.3261  0.5655  0.4138
  133MOL   O16032104   2.656   3.406   4.720  0.0642 -0.0795  0.1467
  133MOL   C16132105   2.542   3.414   4.640  0.1828  0.0825 -0.0788
  133MOL   C16232106   2.418   3.405   4.726 -0.6227  0.8970  0.5383
  133MOL   O16332107   2.525   3.456   4.527  0.4670  0.0197 -0.1835
  133MOL   H16432108   2.855   3.231   4.712 -1.3067 -0.7495 -0.5716
  133MOL   H16532109   2.956   3.307   4.588  0.2060 -1.1031 -0.0746
  133MOL   H16632110   2.765   3.483   4.554  0.6969  0.1604 -0.0121
  133MOL   H16732111   2.418   3.305   4.771  0.9181  1.8160  2.6305
  133MOL   H16832112   2.326   3.412   4.667  0.5550 -0.0411 -1.4696
  133MOL   H16932113   2.413   3.481   4.803  0.5221  1.0120  0.5027
  133MOL   C17032114   2.871   3.522   4.733  0.9515  0.1203 -0.7888
  133MOL   C17132115   2.801   3.651   4.788 -0.3149 -0.0144  0.6631
  133MOL   O17232116   2.891   3.749   4.852  0.1006 -0.1008  0.1831
  133MOL   C17332117   2.927   3.736   4.981  0.8053 -0.1066  0.2574
  133MOL   C17432118   3.036   3.840   5.021  0.5779 -0.3385  0.3907
  133MOL   O17532119   2.887   3.651   5.060 -0.0424  0.0310 -0.3819
  133MOL   H17632120   2.917   3.473   4.819 -0.1187  0.2204 -0.1389
  133MOL   H17732121   2.949   3.541   4.659  1.3072  0.0484 -0.4335
  133MOL   H17832122   2.729   3.613   4.861  0.2562 -0.1995  1.1351
  133MOL   H17932123   3.014   3.944   4.994  3.2312  0.4424  1.0873
  133MOL   H18032124   3.129   3.819   4.968 -0.9007 -2.8187 -1.3013
  133MOL   H18132125   3.065   3.820   5.124 -1.5494  0.7516  1.2321
  133MOL   C18232126   2.718   3.719   4.669  0.4971  0.2437  0.2360
  133MOL   C18332127   2.801   3.774   4.553  0.9155 -0.1873  0.5513
  133MOL   O18432128   2.729   3.755   4.430 -0.7589 -0.5789 -0.0581
  133MOL   C18532129   2.781   3.670   4.342  0.2933  0.3389  0.2236
  133MOL   C18632130   2.688   3.635   4.230  0.3106  0.0597 -0.1809
  133MOL   O18732131   2.894   3.626   4.339  0.0265 -0.3603 -0.0010
  133MOL   H18832132   2.644   3.649   4.630 -0.7215  1.1748  0.8458
  133MOL   H18932133   2.657   3.795   4.718  0.9064  0.1246  0.9350
  133MOL   H19032134   2.900   3.728   4.548  0.3904 -1.2893  0.2930
  133MOL   H19132135   2.612   3.569   4.272  1.1555 -1.1705 -0.5527
  133MOL   H19232136   2.744   3.586   4.150  2.1321 -2.6344  2.6654
  133MOL   H19332137   2.631   3.722   4.198 -0.3838 -0.6740 -0.9714
  133MOL   C19432138   2.819   3.929   4.573 -0.0255 -0.9053  0.4353
  133MOL   C19532139   2.954   3.977   4.505  0.2294 -0.0284 -0.1441
  133MOL   O19632140   3.075   3.911   4.543  0.0616  0.0988  0.5938
  133MOL   C19732141   3.124   3.931   4.667 -0.3158  0.0370  0.1844
  133MOL   C19832142   3.255   3.846   4.689  0.9524  0.3712  0.1443
  133MOL   O19932143   3.086   3.999   4.759  0.3295  0.3600  0.3684
  133MOL   H20032144   2.734   3.990   4.544  1.1634 -0.1492 -1.5901
  133MOL   H20132145   2.826   3.950   4.680 -1.2828 -2.1385  0.7702
  133MOL   H20232146   2.964   4.082   4.530 -0.2978  0.0026 -0.0588
  133MOL   H20332147   3.246   3.750   4.639  0.5753  0.3537  0.2429
  133MOL   H20432148   3.272   3.848   4.797  2.1957  1.6429 -0.0540
  133MOL   H20532149   3.337   3.898   4.640  0.9413 -0.6618 -0.9832
  133MOL   C20632150   2.956   3.986   4.351 -0.1916 -0.6138 -0.5624
  133MOL   C20732151   2.899   4.129   4.309 -0.1680 -0.6249 -0.0021
  133MOL   O20832152   2.989   4.233   4.348  0.3757 -0.5609 -0.2417
  133MOL   C20932153   2.960   4.320   4.448  0.7892 -0.3574 -0.6572
  133MOL   C21032154   3.078   4.399   4.501  0.1935  0.7599 -0.4660
  133MOL   O21132155   2.852   4.335   4.499  0.4274  0.1636 -0.4012
  133MOL   H21232156   3.056   3.972   4.310 -0.8638 -1.2263 -2.0236
  133MOL   H21332157   2.907   3.903   4.301 -0.5669  0.1983 -1.5592
  133MOL   H21432158   2.805   4.143   4.363 -0.6108 -1.2760 -0.5821
  133MOL   H21532159   3.159   4.418   4.430  1.0023  0.5582  0.3924
  133MOL   H21632160   3.125   4.352   4.587 -1.8116  1.3240  0.9647
  133MOL   H21732161   3.045   4.495   4.541 -0.6271 -0.2836  1.4261
  133MOL   C21832162   2.880   4.144   4.162 -0.2354  0.4086 -0.1383
  133MOL   C21932163   2.745   4.084   4.101  0.0327  0.6374 -0.4858
  133MOL   O22032164   2.649   4.119   4.195 -0.3950 -0.4326 -0.6690
  133MOL   C22132165   2.540   4.048   4.207 -0.4323  0.4033 -1.0025
  133MOL   C22232166   2.446   4.111   4.303 -0.1455  0.5461  0.6009
  133MOL   O22332167   2.502   3.947   4.143  0.0062  0.2608  0.3854
  133MOL   H22432168   2.892   4.247   4.128  0.8811  1.6107  3.6981
  133MOL   H22532169   2.959   4.090   4.110  1.3407  1.9904  0.5376
  133MOL   H22632170   2.753   3.975   4.097  0.7363  0.6376  0.6740
  133MOL   H22732171   2.408   4.047   4.383  1.7260 -0.7298  0.4829
  133MOL   H22832172   2.358   4.142   4.246 -0.5167  0.5939  1.1856
  133MOL   H22932173   2.494   4.200   4.344  1.1583 -0.3530  1.0439
  133MOL   C23032174   2.716   4.139   3.964  0.9102  0.1590 -0.7447
  133MOL   C23132175   2.814   4.096   3.857 -0.2198  0.4063 -0.7424
  133MOL   O23232176   2.785   4.173   3.737  0.6248  0.0944  0.7410
  133MOL   C23332177   2.888   4.242   3.672  0.2267 -0.2231  0.7465
  133MOL   C23432178   2.854   4.299   3.535  0.2747 -0.3002 -0.4809
  133MOL   O23532179   3.006   4.248   3.710 -0.0160 -0.1692  0.6650
  133MOL   H23632180   2.621   4.091   3.941  1.2247 -0.1861 -1.3376
  133MOL   H23732181   2.700   4.247   3.964 -0.3501  0.0259  2.1815
  133MOL   H23832182   2.794   3.990   3.844 -0.8449  0.3750  0.3959
  133MOL   H23932183   2.942   4.339   3.484  0.9324  0.1644  0.9594
  133MOL   H24032184   2.781   4.377   3.557  2.0369  1.3026 -0.1076
  133MOL   H24132185   2.814   4.212   3.485 -1.3392 -1.7444  3.0992
  133MOL   H24232186   2.921   4.106   3.877 -0.3113 -0.1418  0.0702
  134MOL     C132187   1.763   3.855   6.927 -0.1312  0.3513 -0.0253
  134MOL     C232188   1.665   3.898   7.044  0.1203 -0.6889 -0.1191
  134MOL     O332189   1.635   4.038   7.041 -0.1979 -0.0469 -0.2697
  134MOL     C432190   1.668   4.119   7.149 -0.5879 -0.0255  0.9544
  134MOL     C532191   1.632   4.265   7.122 -0.2105  0.1898 -0.4993
  134MOL     O632192   1.716   4.089   7.258  0.1038 -0.1453 -0.1139
  134MOL     H732193   1.849   3.921   6.921  1.1791 -1.2454  0.8469
  134MOL     H832194   1.702   3.859   6.837 -0.7772 -0.6830  0.3539
  134MOL     H932195   1.713   3.871   7.138  0.0701  2.1454  0.7446
  134MOL    H1032196   1.702   4.304   7.049 -1.0733  1.0963 -0.8524
  134MOL    H1132197   1.627   4.331   7.209 -1.8594  0.9546 -1.1386
  134MOL    H1232198   1.533   4.257   7.077 -1.6224  3.9666  1.7035
  134MOL    H1332199   1.792   3.750   6.926 -0.9283  0.1278 -2.1200
  134MOL    C1432200   1.531   3.821   7.028  0.5079 -0.2029  0.0653
  134MOL    C1532201   1.524   3.666   7.024 -0.4248 -0.3082 -0.3253
  134MOL    O1632202   1.587   3.607   6.917 -0.4541  0.0226 -0.1797
  134MOL    C1732203   1.516   3.539   6.814 -0.5204 -0.3227 -0.1651
  134MOL    C1832204   1.612   3.473   6.720  1.0034 -0.2147  0.0004
  134MOL    O1932205   1.395   3.541   6.797  0.0205 -0.8880 -0.0581
  134MOL    H2032206   1.454   3.857   7.096 -0.5975 -0.6832 -0.8917
  134MOL    H2132207   1.488   3.859   6.935 -2.6799 -2.0674  0.6818
  134MOL    H2232208   1.416   3.652   7.016 -0.7290  2.2360 -1.1690
  134MOL    H2332209   1.710   3.517   6.739  0.7674  0.2550  0.1361
  134MOL    H2432210   1.587   3.484   6.614 -1.5072 -1.6889  0.3960
  134MOL    H2532211   1.608   3.366   6.740 -1.4097  0.1789  1.8994
  134MOL    C2632212   1.586   3.594   7.146  0.8004  0.3603  0.2167
  134MOL    C2732213   1.541   3.640   7.284 -0.1616 -0.3668 -0.8005
  134MOL    O2832214   1.415   3.580   7.301 -0.1152 -0.7124 -0.1094
  134MOL    C2932215   1.300   3.654   7.309 -0.1661  1.2401 -0.1099
  134MOL    C3032216   1.180   3.573   7.366  0.3563  0.4374  0.6936
  134MOL    O3132217   1.286   3.767   7.284  0.1822 -0.4546 -0.1537
  134MOL    H3232218   1.563   3.488   7.136 -2.3637  1.0638 -0.6065
  134MOL    H3332219   1.693   3.612   7.152  0.9237 -0.3888  0.2797
  134MOL    H3432220   1.525   3.748   7.277  1.9107 -0.0819 -1.7679
  134MOL    H3532221   1.211   3.532   7.462  0.2650  2.2945  1.5380
  134MOL    H3632222   1.149   3.489   7.304 -1.7425  0.2567  1.9276
  134MOL    H3732223   1.092   3.637   7.374 -0.6937 -0.6440 -1.6912
  134MOL    C3832224   1.644   3.613   7.401 -0.3492  0.5047 -0.9433
  134MOL    C3932225   1.716   3.481   7.394 -0.1424 -0.3103 -0.3013
  134MOL    O4032226   1.831   3.487   7.482  0.4858  0.2226  0.0620
  134MOL    C4132227   1.956   3.519   7.427  0.4819  0.7692 -0.3210
  134MOL    C4232228   2.063   3.487   7.533 -0.0618  0.1439  0.0064
  134MOL    O4332229   1.972   3.550   7.312 -0.0303  0.1194  0.5561
  134MOL    H4432230   1.716   3.695   7.396  1.7322 -0.8986  3.3970
  134MOL    H4532231   1.583   3.629   7.490 -0.4367  1.3678 -1.1636
  134MOL    H4632232   1.732   3.470   7.287 -2.4093  1.2077 -0.8268
  134MOL    H4732233   2.020   3.517   7.629 -0.9110  2.1528 -0.9730
  134MOL    H4832234   2.160   3.537   7.520 -0.1389 -0.0725 -1.4824
  134MOL    H4932235   2.085   3.381   7.547  1.5084  0.5995  1.1433
  134MOL    C5032236   1.618   3.363   7.439  0.6816 -0.0088 -0.6672
  134MOL    C5132237   1.581   3.356   7.597 -0.9490 -0.6452 -0.0430
  134MOL    O5232238   1.466   3.444   7.602 -0.0446 -0.0228  0.4089
  134MOL    C5332239   1.436   3.503   7.719 -0.5870 -0.6537 -0.3369
  134MOL    C5432240   1.300   3.569   7.714  0.2468  0.2445  0.1343
  134MOL    O5532241   1.502   3.508   7.821  0.0824 -0.0219 -0.1547
  134MOL    H5632242   1.534   3.364   7.369  0.1749 -2.4652 -0.1612
  134MOL    H5732243   1.674   3.275   7.407  0.8734  0.3754 -1.4009
  134MOL    H5832244   1.661   3.374   7.669 -1.0562 -2.4836  0.5683
  134MOL    H5932245   1.293   3.641   7.632 -0.8731 -0.5401 -0.4728
  134MOL    H6032246   1.271   3.622   7.805  0.5769 -2.9305  2.1606
  134MOL    H6132247   1.206   3.516   7.696  0.1147 -0.2461  2.2307
  134MOL    C6232248   1.526   3.217   7.636  0.2136 -0.2955  0.5229
  134MOL    C6332249   1.637   3.114   7.670  0.0738  0.4893 -0.0924
  134MOL    O6432250   1.713   3.088   7.553 -0.6269 -0.1419  0.0293
  134MOL    C6532251   1.665   2.986   7.475  0.3689 -0.4644  0.5592
  134MOL    C6632252   1.758   2.969   7.353 -0.3168 -0.2661 -0.2203
  134MOL    O6732253   1.568   2.915   7.499  0.0879 -0.2610 -0.6093
  134MOL    H6832254   1.471   3.212   7.730  1.0596  0.7201  1.0815
  134MOL    H6932255   1.451   3.183   7.563  3.0695  0.4210 -2.8863
  134MOL    H7032256   1.581   3.028   7.707 -1.7978  1.0910 -1.4812
  134MOL    H7132257   1.838   3.043   7.356  0.1998 -0.8534  0.9620
  134MOL    H7232258   1.696   2.976   7.264 -0.0337 -0.8824 -0.4728
  134MOL    H7332259   1.815   2.876   7.349  1.3756  0.7498 -0.3139
  134MOL    C7432260   1.734   3.156   7.777 -0.0206  0.2814  0.5532
  134MOL    C7532261   1.816   3.040   7.838  0.1921  0.3960  0.6328
  134MOL    O7632262   1.929   3.111   7.888  0.6832  0.1572 -0.0503
  134MOL    C7732263   2.050   3.054   7.906 -0.3953  0.6278  0.4787
  134MOL    C7832264   2.149   3.136   7.980 -0.5665 -0.0835  0.4454
  134MOL    O7932265   2.085   2.946   7.858 -0.2233 -0.1106 -0.0314
  134MOL    H8032266   1.803   3.225   7.729  0.6151 -0.3044  0.6151
  134MOL    H8132267   1.691   3.216   7.858  1.6431  0.7932  1.0903
  134MOL    H8232268   1.851   2.981   7.753 -1.0269  0.3187  0.1818
  134MOL    H8332269   2.234   3.170   7.920 -0.0759 -0.7807  0.7425
  134MOL    H8432270   2.195   3.091   0.046  1.5616 -0.1888 -0.7077
  134MOL    H8532271   2.110   3.233   8.012  3.0998  2.5428 -2.5080
  134MOL    C8632272   1.757   2.944   7.952  0.2796 -0.5075  0.0857
  134MOL    C8732273   1.821   2.800   7.964  0.3647  0.6734 -0.1912
  134MOL    O8832274   1.771   2.732   0.061  0.6058 -0.0373  0.6736
  134MOL    C8932275   1.848   2.707   0.165  0.5512  0.4319 -0.5887
  134MOL    C9032276   1.766   2.650   0.280  0.3962  0.6345 -0.1183
  134MOL    O9132277   1.970   2.703   0.167  0.0773  0.0159  0.4838
  134MOL    H9232278   1.762   2.988   0.030  2.1953 -0.2785 -0.1029
  134MOL    H9332279   1.650   2.927   7.941  0.3863 -0.3500 -1.1973
  134MOL    H9432280   1.928   2.820   7.974  0.3061 -0.5850  3.8542
  134MOL    H9532281   1.711   2.561   0.251 -0.6762  1.7625 -1.5676
  134MOL    H9632282   1.693   2.722   0.318 -0.1045  0.7161 -1.2355
  134MOL    H9732283   1.836   2.642   0.364  1.1366  0.7991 -0.7145
  134MOL    C9832284   1.785   2.707   7.842 -0.7002  0.4716 -0.3264
  134MOL    C9932285   1.885   2.585   7.835  0.6084 -0.1800  0.2132
  134MOL   O10032286   1.849   2.500   7.938  0.0422 -0.3400 -0.1269
  134MOL   C10132287   1.937   2.417   7.990  0.4953  0.2452  0.7733
  134MOL   C10232288   1.888   2.322   0.078  0.2585  0.2011  0.6556
  134MOL   O10332289   2.062   2.422   7.965  0.3301  0.0810 -0.1247
  134MOL   H10432290   1.682   2.671   7.835  0.4858 -3.1291 -0.1451
  134MOL   H10532291   1.805   2.764   7.752 -1.4096  0.8523 -0.2522
  134MOL   H10632292   1.982   2.627   7.859  0.7086  0.6005 -1.4667
  134MOL   H10732293   1.944   2.330   0.171 -0.8687 -0.1655  1.3755
  134MOL   H10832294   1.884   2.222   0.034  2.5292  1.1996 -1.9577
  134MOL   H10932295   1.791   2.356   0.113 -0.5074  0.9959 -2.0869
  134MOL   C11032296   1.884   2.507   7.704  0.8807 -0.6977  0.5281
  134MOL   C11132297   2.004   2.556   7.605 -0.4396 -0.5039 -0.2953
  134MOL   O11232298   1.988   2.499   7.474 -0.8170  0.7430 -0.0276
  134MOL   C11332299   2.094   2.448   7.415 -0.2331  0.1901 -0.4601
  134MOL   C11432300   2.052   2.381   7.286 -0.2049  0.0406  0.1592
  134MOL   O11532301   2.209   2.439   7.456  0.2260 -0.4121  0.1877
  134MOL   H11632302   1.910   2.404   7.729 -2.0931 -0.8204  3.5658
  134MOL   H11732303   1.783   2.490   7.667 -0.0962 -1.1251  3.2260
  134MOL   H11832304   2.095   2.511   7.645 -1.0550 -2.4228 -1.0137
  134MOL   H11932305   2.038   2.460   7.212 -2.3077 -0.2067  0.2651
  134MOL   H12032306   1.953   2.338   7.305 -0.4711  1.2423  1.6491
  134MOL   H12132307   2.132   2.314   7.257 -0.8030 -0.4579 -0.3527
  134MOL   C12232308   2.027   2.710   7.584  0.3369  0.3799 -0.2081
  134MOL   C12332309   2.162   2.763   7.533  0.1501 -0.4507 -0.5464
  134MOL   O12432310   2.159   2.904   7.514  0.1382 -0.1693  0.2051
  134MOL   C12532311   2.135   2.960   7.395  0.1792  0.3628 -0.5784
  134MOL   C12632312   2.133   3.113   7.404 -0.2409 -0.2668 -0.1003
  134MOL   O12732313   2.096   2.892   7.294  0.2228  0.3192  0.0034
  134MOL   H12832314   1.948   2.751   7.521  0.6321  0.6508 -0.4088
  134MOL   H12932315   2.018   2.745   7.687 -1.3626  0.7634 -0.4677
  134MOL   H13032316   2.194   2.705   7.446  0.8938 -1.3038  0.2795
  134MOL   H13132317   2.133   3.158   7.305 -0.5038  0.9090  0.4356
  134MOL   H13232318   2.223   3.153   7.452 -0.2009 -2.3360  1.6267
  134MOL   H13332319   2.043   3.150   7.453  0.3173 -1.3690  1.8491
  134MOL   C13432320   2.272   2.742   7.640 -0.1609 -0.0298 -0.9678
  134MOL   C13532321   2.417   2.789   7.601  0.6399 -0.2374  0.3160
  134MOL   O13632322   2.495   2.803   7.714  0.1312 -0.2339  0.2621
  134MOL   C13732323   2.518   2.935   7.762 -0.1625  0.1043  0.2151
  134MOL   C13832324   2.593   2.933   7.889 -0.6667  0.2774 -0.3992
  134MOL   O13932325   2.474   3.037   7.709 -0.2414  0.1551  0.4407
  134MOL   H14032326   2.242   2.794   7.731  2.4809 -2.0990  1.1682
  134MOL   H14132327   2.268   2.638   7.674  0.5248 -0.1059 -1.0979
  134MOL   H14232328   2.398   2.880   7.543 -0.1278 -1.1393 -0.8559
  134MOL   H14332329   2.529   2.962   7.973 -3.0294  1.2311 -2.4637
  134MOL   H14432330   2.677   3.003   7.884 -0.5097  0.2817  1.7417
  134MOL   H14532331   2.626   2.832   7.911 -0.0689  0.6459  0.4066
  134MOL   C14632332   2.478   2.693   7.497  0.1560  0.0362  0.5738
  134MOL   C14732333   2.627   2.733   7.489  0.1219  0.1569 -0.3534
  134MOL   O14832334   2.702   2.659   7.591  0.4164 -0.7925  0.4827
  134MOL   C14932335   2.801   2.713   7.671 -0.1886 -0.1201  0.1394
  134MOL   C15032336   2.857   2.612   7.773 -0.5036  1.0711 -0.7322
  134MOL   O15132337   2.856   2.819   7.649  0.0630 -0.0012  0.3975
  134MOL   H15232338   2.477   2.586   7.521  3.5402 -0.2284 -0.2770
  134MOL   H15332339   2.436   2.710   7.398  0.8773 -0.8360  0.1136
  134MOL   H15432340   2.649   2.833   7.526 -0.1075  1.2179 -2.9268
  134MOL   H15532341   2.787   2.529   7.783  1.1879 -0.4649 -1.4137
  134MOL   H15632342   2.879   2.644   7.875 -0.2847 -0.0418 -0.4256
  134MOL   H15732343   2.946   2.565   7.731 -1.4534 -0.4924 -1.0522
  134MOL   C15832344   2.704   2.717   7.356 -0.0031 -0.1541 -0.1325
  134MOL   C15932345   2.649   2.828   7.267  0.7163  0.5572  0.5181
  134MOL   O16032346   2.671   2.958   7.325  0.0072  0.2232  0.3209
  134MOL   C16132347   2.575   3.054   7.335  0.5678  0.2834  0.0990
  134MOL   C16232348   2.625   3.165   7.417 -0.4769  0.0508  0.1459
  134MOL   O16332349   2.467   3.040   7.281  0.1092 -0.3672 -0.3440
  134MOL   H16432350   2.812   2.727   7.364 -0.3192  1.8847  2.4597
  134MOL   H16532351   2.680   2.615   7.325  1.2687 -0.1263 -1.3010
  134MOL   H16632352   2.543   2.805   7.264  0.8708 -0.3050  1.5845
  134MOL   H16732353   2.641   3.114   7.512  0.2429  1.0926  0.5905
  134MOL   H16832354   2.547   3.241   7.427  0.5686  1.3753 -1.3660
  134MOL   H16932355   2.720   3.195   7.373  0.0028  1.0829  1.8574
  134MOL   C17032356   2.696   2.833   7.117 -0.7487 -0.3570  0.3390
  134MOL   C17132357   2.605   2.914   7.021  0.0474 -0.0618  0.2073
  134MOL   O17232358   2.686   2.927   6.907 -0.1826 -0.3694  0.1779
  134MOL   C17332359   2.740   3.039   6.861 -0.6779 -0.3783  1.0427
  134MOL   C17432360   2.832   3.016   6.739 -0.0206 -0.0622 -0.3492
  134MOL   O17532361   2.729   3.150   6.910  0.1470  0.4179 -0.4953
  134MOL   H17632362   2.798   2.870   7.113 -1.0510  1.3304  5.3639
  134MOL   H17732363   2.713   2.732   7.078  0.5326 -0.5896  1.4751
  134MOL   H17832364   2.583   3.018   7.046 -0.7834  0.0855 -1.0941
  134MOL   H17932365   2.833   2.913   6.705  0.9878 -0.6053  1.3344
  134MOL   H18032366   2.931   3.061   6.742  0.6924 -1.6389 -0.3149
  134MOL   H18132367   2.767   3.064   6.664 -2.1237 -1.4842  0.5202
  134MOL   C18232368   2.468   2.847   6.990  0.1690  0.1192  0.3541
  134MOL   C18332369   2.363   2.930   6.916  0.5978  0.3825  0.0809
  134MOL   O18432370   2.287   2.841   6.833  0.8617 -0.1468 -0.2630
  134MOL   C18532371   2.293   2.850   6.697  0.4836 -0.8245 -0.7094
  134MOL   C18632372   2.188   2.769   6.635  0.5825 -0.3693 -0.1558
  134MOL   O18732373   2.369   2.913   6.625 -0.3123 -0.2477 -0.0842
  134MOL   H18832374   2.508   2.767   6.927 -0.4028  0.3920 -0.3682
  134MOL   H18932375   2.421   2.807   7.079 -0.9813 -2.3829 -1.3446
  134MOL   H19032376   2.420   2.992   6.847 -0.1054 -0.6974 -1.5090
  134MOL   H19132377   2.216   2.739   6.534  0.6637 -1.0680  0.0704
  134MOL   H19232378   2.091   2.819   6.640  0.4250 -0.6964  0.0689
  134MOL   H19332379   2.182   2.675   6.689  0.0106  1.0159  2.2214
  134MOL   C19432380   2.274   3.013   7.005  0.5727 -0.8335 -0.2743
  134MOL   C19532381   2.215   3.138   6.941  0.0797  0.8448 -0.6623
  134MOL   O19632382   2.107   3.192   7.016 -0.5984  0.5182  0.1346
  134MOL   C19732383   1.980   3.159   6.981  0.6000  0.4115 -0.4142
  134MOL   C19832384   1.870   3.233   7.056 -1.0399 -0.4559 -0.1435
  134MOL   O19932385   1.951   3.091   6.888  0.6077  0.2470  0.2117
  134MOL   H20032386   2.194   2.950   7.044  1.0499 -1.5144 -0.3912
  134MOL   H20132387   2.328   3.039   7.096 -2.4920  3.0038  0.5635
  134MOL   H20232388   2.172   3.108   6.845 -0.2934 -1.6198  0.2448
  134MOL   H20332389   1.876   3.205   7.161 -1.6100  0.8925  0.2578
  134MOL   H20432390   1.773   3.225   7.008 -1.0160  1.5320 -0.5789
  134MOL   H20532391   1.900   3.338   7.060  0.8934 -0.9452 -0.9797
  134MOL   C20632392   2.322   3.243   6.924 -0.2551 -0.4328  0.5105
  134MOL   C20732393   2.284   3.352   6.830 -0.2470  0.3995  0.3661
  134MOL   O20832394   2.171   3.431   6.877  0.1255 -0.3692  0.9848
  134MOL   C20932395   2.080   3.482   6.790 -1.2587  0.2648  0.1178
  134MOL   C21032396   1.958   3.541   6.860  0.5243 -0.0302  0.1730
  134MOL   O21132397   2.087   3.477   6.670  0.5457 -0.1017  0.8200
  134MOL   H21232398   2.344   3.290   7.020 -1.7343  0.3404  0.4855
  134MOL   H21332399   2.420   3.209   6.893  0.1793 -0.1235  1.5173
  134MOL   H21432400   2.255   3.299   6.739 -0.0548  2.1381 -0.7341
  134MOL   H21532401   1.903   3.613   6.800  1.3533  0.7205  0.3120
  134MOL   H21632402   1.982   3.602   6.946  0.2867 -0.3745  0.4841
  134MOL   H21732403   1.888   3.466   6.896 -0.3185 -0.0744 -1.4847
  134MOL   C21832404   2.406   3.442   6.799 -0.4946 -1.1125 -0.3875
  134MOL   C21932405   2.476   3.384   6.666  0.3054  0.0658  0.5656
  134MOL   O22032406   2.376   3.397   6.566 -0.1534 -0.0770 -0.6178
  134MOL   C22132407   2.365   3.310   6.462 -1.0051 -0.2470  0.8087
  134MOL   C22232408   2.235   3.327   6.382  0.3138  0.3228 -0.0373
  134MOL   O22332409   2.455   3.225   6.441  0.1242  0.2900 -0.1181
  134MOL   H22432410   2.378   3.547   6.795 -0.4397 -1.0936 -0.2620
  134MOL   H22532411   2.488   3.442   6.870 -0.7154  2.4798 -0.0576
  134MOL   H22632412   2.518   3.286   6.691  1.1936 -0.3830 -2.4949
  134MOL   H22732413   2.160   3.393   6.426 -1.3664  0.3286 -2.7392
  134MOL   H22832414   2.185   3.230   6.376 -1.6827  1.4677 -5.8492
  134MOL   H22932415   2.240   3.352   6.276  0.2578 -1.0498 -0.3771
  134MOL   C23032416   2.586   3.470   6.616 -0.5799  0.1846 -0.2953
  134MOL   C23132417   2.705   3.486   6.710 -0.4274 -0.5581  0.2495
  134MOL   O23232418   2.792   3.583   6.659  0.5332 -0.1482 -0.5050
  134MOL   C23332419   2.921   3.590   6.686 -0.4957  0.2913  0.2148
  134MOL   C23432420   2.986   3.722   6.639 -0.4525 -0.3869  0.1239
  134MOL   O23532421   2.982   3.502   6.750  0.6824 -0.1645 -0.6924
  134MOL   H23632422   2.612   3.436   6.515  0.5104 -0.7426  0.2816
  134MOL   H23732423   2.536   3.565   6.600 -0.0399  0.5083 -0.0783
  134MOL   H23832424   2.739   3.383   6.721  0.2600 -0.3789 -0.1647
  134MOL   H23932425   2.954   3.815   6.684 -0.0618 -1.0360  1.7952
  134MOL   H24032426   2.961   3.749   6.537 -2.1409  2.2924  1.2183
  134MOL   H24132427   3.093   3.732   6.655 -0.0936 -1.3238 -1.5135
  134MOL   H24232428   2.675   3.512   6.811  0.7157  0.0215  0.4390
  135MOL     C132429   7.554   6.134   3.391 -0.7551 -0.4835  0.6241
  135MOL     C232430   7.667   6.071   3.468  0.3240  0.0098 -0.4270
  135MOL     O332431   7.766   6.005   3.381  0.0600  0.1337 -0.5503
  135MOL     C432432   7.859   5.917   3.429  0.2161  1.6647 -0.3470
  135MOL     C532433   7.931   5.839   3.315  0.1653  0.0586  0.0648
  135MOL     O632434   7.887   5.901   3.548  0.1483  0.3677 -0.1766
  135MOL     H732435   7.474   6.158   3.461  0.1241  0.0278  1.4696
  135MOL     H832436   7.508   6.073   3.313 -3.5951 -0.4705  2.2184
  135MOL     H932437   7.627   5.990   3.530 -1.9839  0.1108 -1.7085
  135MOL    H1032438   7.869   5.788   3.241  0.8006 -1.2963  0.4554
  135MOL    H1132439   8.000   5.770   3.363  0.4399  0.7272  0.6425
  135MOL    H1232440   7.991   5.915   3.264  0.2544 -0.1802 -0.1891
  135MOL    H1332441   7.581   6.224   3.336 -1.1101 -2.2744 -2.5794
  135MOL    C1432442   7.730   6.179   3.564 -0.8973 -0.6092 -0.9098
  135MOL    C1532443   7.648   6.220   3.687  0.3888  0.0839 -0.0365
  135MOL    O1632444   7.706   6.150   3.801  0.7730  0.1151  1.0114
  135MOL    C1732445   7.651   6.045   3.858 -0.5106 -0.2156  0.6532
  135MOL    C1832446   7.730   5.985   3.973 -0.4947 -0.0100  0.0505
  135MOL    O1932447   7.555   5.986   3.822  0.5819 -0.6447 -0.3439
  135MOL    H2032448   7.822   6.136   3.603 -1.3109  0.8965  1.8765
  135MOL    H2132449   7.754   6.265   3.501  0.0268  0.2824  0.6309
  135MOL    H2232450   7.547   6.183   3.671  0.2449  1.0387 -1.3929
  135MOL    H2332451   7.694   6.016   4.071 -1.3055  0.7010 -0.4712
  135MOL    H2432452   7.832   6.019   3.962  1.0362 -3.9945  0.9634
  135MOL    H2532453   7.739   5.876   3.973 -0.7892 -0.0366 -0.1542
  135MOL    C2632454   7.649   6.376   3.712  0.2728  0.3807  0.0173
  135MOL    C2732455   7.565   6.414   3.840 -0.0598  0.7526 -0.7327
  135MOL    O2832456   7.592   6.546   3.884 -0.1751  0.2734 -0.6527
  135MOL    C2932457   7.628   6.568   4.014  0.1644 -0.4730 -0.7137
  135MOL    C3032458   7.639   6.716   4.056 -0.1860  0.4323  0.5538
  135MOL    O3132459   7.659   6.474   4.094  0.4169 -0.3685  1.0670
  135MOL    H3232460   7.749   6.418   3.718 -0.5832  2.4122  0.1852
  135MOL    H3332461   7.599   6.420   3.625 -0.2808 -1.6388 -0.7232
  135MOL    H3432462   7.582   6.339   3.917 -1.8350 -0.4387 -1.4910
  135MOL    H3532463   7.547   6.760   4.018  1.0072  1.8867 -0.7188
  135MOL    H3632464   7.724   6.768   4.012 -1.9080  2.2284 -0.7409
  135MOL    H3732465   7.639   6.730   4.164 -0.2917  0.5089  0.5435
  135MOL    C3832466   7.411   6.401   3.807 -0.1020  0.4636 -0.4867
  135MOL    C3932467   7.343   6.498   3.717 -0.0735 -0.1788 -0.5078
  135MOL    O4032468   7.222   6.444   3.666 -0.1748  0.2652 -0.0104
  135MOL    C4132469   7.235   6.385   3.546 -0.5273 -0.4985  0.2163
  135MOL    C4232470   7.112   6.312   3.499 -0.2851 -0.7947  0.4365
  135MOL    O4332471   7.339   6.386   3.480  0.2488 -0.1010 -0.1378
  135MOL    H4432472   7.408   6.302   3.763  3.8069  0.9712 -2.1137
  135MOL    H4532473   7.359   6.394   3.903 -1.5033 -0.6948 -1.3215
  135MOL    H4632474   7.421   6.525   3.646  1.1632  1.6363  1.4774
  135MOL    H4732475   7.125   6.291   3.393 -1.2533  2.1028 -0.3136
  135MOL    H4832476   7.025   6.374   3.521  0.3891 -0.9601  3.8523
  135MOL    H4932477   7.099   6.218   3.553 -0.3734 -0.4362  1.0388
  135MOL    C5032478   7.310   6.632   3.796  0.8333 -0.3555  0.6511
  135MOL    C5132479   7.258   6.747   3.703  0.6045 -0.6097 -0.5492
  135MOL    O5232480   7.130   6.707   3.652  0.2683 -0.2513 -1.0233
  135MOL    C5332481   7.088   6.739   3.529  0.0047 -0.2693 -0.1695
  135MOL    C5432482   6.953   6.681   3.485 -0.2745  0.2362  0.2752
  135MOL    O5532483   7.151   6.820   3.462  0.5455 -0.1324  0.1606
  135MOL    H5632484   7.240   6.609   3.875  1.8095  0.3220  1.7281
  135MOL    H5732485   7.395   6.680   3.846 -1.2502  1.6996  2.3508
  135MOL    H5832486   7.332   6.760   3.625  0.9089  1.1750  0.0196
  135MOL    H5932487   6.874   6.727   3.545 -0.4208 -1.9165  1.8053
  135MOL    H6032488   6.966   6.574   3.500 -1.1245  0.3227  1.7585
  135MOL    H6132489   6.930   6.706   3.381  0.6038  0.0279  0.0310
  135MOL    C6232490   7.234   6.878   3.780  0.4131 -0.2339  0.1321
  135MOL    C6332491   7.365   6.958   3.814  0.2908  1.0648  0.1691
  135MOL    O6432492   7.419   6.997   3.686  0.3252  0.2875 -0.2584
  135MOL    C6532493   7.530   6.941   3.641  0.2658 -0.2694 -0.3003
  135MOL    C6632494   7.570   6.978   3.504  0.4668  0.1739 -0.1557
  135MOL    O6732495   7.606   6.859   3.707  0.0394  0.5645  0.7580
  135MOL    H6832496   7.164   6.937   3.722  1.6558 -0.6236 -1.7936
  135MOL    H6932497   7.179   6.864   3.874  0.5118  4.2446  0.9744
  135MOL    H7032498   7.434   6.900   3.875 -0.2553  0.1812 -0.0356
  135MOL    H7132499   7.587   6.892   3.439 -2.0427 -0.0235 -0.5917
  135MOL    H7232500   7.659   7.040   3.511 -0.5901  1.7463 -0.5781
  135MOL    H7332501   7.496   7.042   3.456 -0.7666 -1.6699 -0.7655
  135MOL    C7432502   7.333   7.089   3.894 -0.2199  0.4911  0.1610
  135MOL    C7532503   7.464   7.170   3.926 -0.2554 -0.1116 -0.0162
  135MOL    O7632504   7.421   7.280   4.003  0.2266 -0.3500  0.8175
  135MOL    C7732505   7.396   7.407   3.963  0.2966  0.6099 -0.1239
  135MOL    C7832506   7.368   7.500   4.080 -0.0051  0.1607 -0.0244
  135MOL    O7932507   7.391   7.453   3.846 -0.3718  0.2580  0.1327
  135MOL    H8032508   7.270   7.157   3.837 -0.6834  1.1230  1.4312
  135MOL    H8132509   7.282   7.069   3.988  0.7291 -0.9560  0.3933
  135MOL    H8232510   7.504   7.188   3.826 -1.6989  2.1403 -0.2126
  135MOL    H8332511   7.462   7.502   4.135  0.0791 -2.2701 -0.0197
  135MOL    H8432512   7.279   7.460   4.130 -0.3659  1.6668  0.5784
  135MOL    H8532513   7.343   7.600   4.044 -0.0147  0.1812  0.0401
  135MOL    C8632514   7.566   7.103   4.003  0.1700  0.0599  0.0979
  135MOL    C8732515   7.672   7.205   4.070  0.6393 -0.6283 -0.1675
  135MOL    O8832516   7.769   7.126   4.140  0.3649  0.3860  0.1949
  135MOL    C8932517   7.758   7.097   4.267  0.3574 -0.1106  0.4063
  135MOL    C9032518   7.870   7.006   4.316 -0.4556 -0.2624 -0.3464
  135MOL    O9132519   7.669   7.146   4.339  0.0628 -0.1199  0.8394
  135MOL    H9232520   7.524   7.052   4.090  1.5081  0.2952  0.8928
  135MOL    H9332521   7.616   7.026   3.945  1.2543  0.5671  0.3374
  135MOL    H9432522   7.630   7.271   4.146 -0.6212 -2.3656  0.7019
  135MOL    H9532523   7.918   7.049   4.404  0.1955 -2.5689  0.4553
  135MOL    H9632524   7.943   6.995   4.236 -1.4807 -3.1420 -0.9549
  135MOL    H9732525   7.828   6.906   4.328 -1.2066  0.1542  0.6234
  135MOL    C9832526   7.752   7.278   3.965 -0.6251  0.3558 -0.3122
  135MOL    C9932527   7.814   7.411   4.017 -0.3189  0.1126 -0.2411
  135MOL   O10032528   7.939   7.363   4.080  0.4124 -0.3699  0.1203
  135MOL   C10132529   7.984   7.435   4.192  0.6559  0.3812  0.1984
  135MOL   C10232530   0.082   7.372   4.263  1.0449 -0.2858  0.2792
  135MOL   O10332531   7.940   7.539   4.241  0.6196 -0.2027 -0.0911
  135MOL   H10432532   7.830   7.218   3.918  0.9156  1.7770  0.3705
  135MOL   H10532533   7.694   7.311   3.879 -0.4555 -1.2165 -1.0528
  135MOL   H10632534   7.741   7.458   4.083 -0.9630 -0.8970 -0.2170
  135MOL   H10732535   0.056   7.269   4.286 -2.8381 -0.0281 -2.4891
  135MOL   H10832536   0.092   7.427   4.357 -1.1928 -0.4522  0.6225
  135MOL   H10932537   0.175   7.368   4.206 -0.5868 -1.9328 -2.3389
  135MOL   C11032538   7.848   7.514   3.906  0.6149  0.4811 -0.3831
  135MOL   C11132539   7.752   7.633   3.898 -0.1366  0.2418  0.2233
  135MOL   O11232540   7.792   7.722   4.005 -0.4432  0.5910  0.0463
  135MOL   C11332541   7.707   7.748   4.108  0.0800  0.3577 -0.6982
  135MOL   C11432542   7.780   7.812   4.230 -0.3222  0.8796  0.2484
  135MOL   O11532543   7.597   7.692   4.116  0.1035 -0.3878  0.3760
  135MOL   H11632544   7.946   7.561   3.915 -0.1710  1.9300  1.0431
  135MOL   H11732545   7.853   7.467   3.808  0.9662  0.4905 -0.3723
  135MOL   H11832546   7.658   7.582   3.917  1.2790 -2.1101  1.1184
  135MOL   H11932547   7.728   7.893   4.282 -0.7570 -0.0376  1.2842
  135MOL   H12032548   7.879   7.841   4.195 -0.9902  2.4566 -0.4053
  135MOL   H12132549   7.790   7.732   4.303 -1.0645  1.5730  1.1320
  135MOL   C12232550   7.756   7.713   3.766 -0.3823 -0.0280  0.4677
  135MOL   C12332551   7.634   7.801   3.742 -0.7852  0.3635  0.1263
  135MOL   O12432552   7.654   7.895   3.636 -0.5993  0.2899  0.0791
  135MOL   C12532553   7.730   8.009   3.657 -0.1126  0.3996  0.1652
  135MOL   C12632554   7.733   0.071   3.531  0.1477  0.5382 -0.2078
  135MOL   O12732555   7.780   0.026   3.767 -0.3982 -0.5158 -0.3700
  135MOL   H12832556   7.848   7.770   3.754  0.6600 -1.7705 -0.0728
  135MOL   H12932557   7.745   7.639   3.686  2.0479  0.3273 -0.2482
  135MOL   H13032558   7.618   7.859   3.832 -1.3014 -0.5755  0.6506
  135MOL   H13132559   7.827   0.056   3.478 -0.0496  0.7537 -0.6224
  135MOL   H13232560   7.730   0.179   3.548 -2.1287  0.3267  0.9950
  135MOL   H13332561   7.652   0.045   3.462 -0.2872 -0.2015  0.5805
  135MOL   C13432562   7.506   7.720   3.716 -0.6934 -0.1389  0.1036
  135MOL   C13532563   7.376   7.789   3.712  0.3065  0.2342 -0.2024
  135MOL   O13632564   7.280   7.695   3.655  0.0550 -0.6649  0.1263
  135MOL   C13732565   7.266   7.694   3.522  0.4123  0.2195 -0.1004
  135MOL   C13832566   7.201   7.564   3.466  0.0323  0.0727 -0.0116
  135MOL   O13932567   7.303   7.784   3.444  0.3230  0.3225  0.0799
  135MOL   H14032568   7.513   7.660   3.626 -0.8816  2.0050 -1.3753
  135MOL   H14132569   7.505   7.653   3.803 -0.7099  1.0723  1.0542
  135MOL   H14232570   7.380   7.875   3.646 -2.3435  1.2223  0.8534
  135MOL   H14332571   7.241   7.469   3.502 -2.0660 -0.8409 -0.0422
  135MOL   H14432572   7.223   7.567   3.359  1.0443  1.2544  0.2189
  135MOL   H14532573   7.098   7.574   3.500  0.3157  0.0721  0.8422
  135MOL   C14632574   7.316   7.834   3.851 -0.0940 -0.4855  0.0294
  135MOL   C14732575   7.241   7.969   3.843  0.3908  1.0992 -0.2372
  135MOL   O14832576   7.136   7.956   3.750  0.5583 -0.1970 -0.5051
  135MOL   C14932577   7.122   8.020   3.629 -0.2123  0.3301 -0.3281
  135MOL   C15032578   6.984   8.002   3.564 -0.2025  0.1589  0.0437
  135MOL   O15132579   7.203   0.082   3.582  0.0795  0.0989 -0.7564
  135MOL   H15232580   7.246   7.758   3.887 -0.6580 -0.7635 -1.6106
  135MOL   H15332581   7.404   7.844   3.915  1.7355  1.2961 -2.6335
  135MOL   H15432582   7.313   0.020   3.806  0.9870 -0.1965 -1.6749
  135MOL   H15532583   6.916   0.059   3.600  0.4154  1.0218 -0.6667
  135MOL   H15632584   6.953   7.899   3.582  1.0222 -0.1738  0.2895
  135MOL   H15732585   7.005   7.999   3.458  2.6717  5.3051  0.3110
  135MOL   C15832586   7.173   8.019   3.968 -0.0365 -0.1734  0.0242
  135MOL   C15932587   7.266   0.019   4.083 -0.3744  0.3093 -0.1692
  135MOL   O16032588   7.290   7.915   4.140  0.1956 -0.2483 -0.0936
  135MOL   C16132589   7.283   7.895   4.270  0.3724 -0.6949 -0.1698
  135MOL   C16232590   7.260   7.755   4.305  0.0130  0.8803 -0.6541
  135MOL   O16332591   7.280   7.982   4.356  0.8220 -0.1788  0.0848
  135MOL   H16432592   7.117   0.090   3.951  1.8976  0.8484 -0.9080
  135MOL   H16532593   7.092   7.949   3.992  0.1304 -0.4585 -0.2439
  135MOL   H16632594   7.213   0.082   4.154 -0.3325  0.9480 -0.6963
  135MOL   H16732595   7.198   7.737   4.393  0.1457 -0.6357 -0.8583
  135MOL   H16832596   7.351   7.694   4.302 -0.1026  0.5964  0.9201
  135MOL   H16932597   7.199   7.720   4.222 -0.3612  2.9023 -1.2636
  135MOL   C17032598   7.393   0.096   4.050  0.7662  0.0166 -0.5178
  135MOL   C17132599   7.467   0.171   4.167 -0.1382  0.6014  0.7828
  135MOL   O17232600   7.573   0.238   4.103  0.5837  0.6872 -0.3874
  135MOL   C17332601   7.692   0.180   4.083  0.5035 -0.7072  0.3093
  135MOL   C17432602   7.779   0.263   3.987  0.4674 -0.8493  0.0667
  135MOL   O17532603   7.724   0.069   4.119 -0.0642 -0.0232 -0.6396
  135MOL   H17632604   7.463   0.020   4.015 -0.5167 -2.3830  1.9361
  135MOL   H17732605   7.370   0.160   3.965 -0.6685 -0.2587 -0.3514
  135MOL   H17832606   7.509   0.104   4.242 -2.9547  2.0469  3.7549
  135MOL   H17932607   7.807   0.358   4.033  0.7204 -0.5815 -0.6259
  135MOL   H18032608   7.717   0.281   3.899 -0.1797  1.2330  0.9118
  135MOL   H18132609   7.871   0.208   3.970  0.4399 -0.3756 -1.7631
  135MOL   C18232610   7.376   0.274   4.237 -0.4503 -0.0355 -1.2805
  135MOL   C18332611   7.461   0.353   4.341  0.1815 -0.5747 -0.2967
  135MOL   O18432612   7.382   0.462   4.390 -0.3082  0.8247  0.1053
  135MOL   C18532613   7.424   0.582   4.396  0.2601  0.7001  0.1601
  135MOL   C18632614   7.353   0.673   4.494 -0.1115 -0.3777  0.5149
  135MOL   O18732615   7.513   0.627   4.329  0.4462  0.5259 -0.6927
  135MOL   H18832616   7.319   0.334   4.166 -0.7919 -1.9242 -2.6385
  135MOL   H18932617   7.309   0.215   4.299  0.4121 -0.6192 -0.9148
  135MOL   H19032618   7.545   0.391   4.283 -0.4055 -0.6420 -1.2034
  135MOL   H19132619   7.399   0.651   4.590  2.0678 -1.3092 -0.7221
  135MOL   H19232620   7.253   0.630   4.484  0.2748 -1.0549 -0.5146
  135MOL   H19332621   7.355   0.776   4.458  1.4965 -0.5904 -0.0271
  135MOL   C19432622   7.517   0.273   4.463 -0.2865 -0.0173  0.4218
  135MOL   C19532623   7.570   0.356   4.585 -0.2338  0.0282  0.6358
  135MOL   O19632624   7.602   0.265   4.691  0.6995 -0.0711 -0.1482
  135MOL   C19732625   7.514   0.252   4.796  0.2382  0.5530  0.2235
  135MOL   C19832626   7.564   0.162   4.906 -0.1401  0.6764 -0.1112
  135MOL   O19932627   7.405   0.299   4.797 -0.1416  0.5237 -0.8613
  135MOL   H20032628   7.435   0.212   4.501 -2.1338  2.5220  0.6221
  135MOL   H20132629   7.590   0.204   4.420  0.7497  1.1687  0.2469
  135MOL   H20232630   7.496   0.428   4.618  1.4125  0.6705  3.0328
  135MOL   H20332631   7.481   0.130   4.968 -0.5602  1.6225 -0.1714
  135MOL   H20432632   7.633   0.216   4.971  0.3216 -0.4153  0.3053
  135MOL   H20532633   7.616   0.075   4.866 -2.0692 -1.5882  2.2009
  135MOL   C20632634   7.702   0.436   4.552  0.5467  0.5197  0.2429
  135MOL   C20732635   7.725   0.558   4.642  0.0785 -0.1685  0.2327
  135MOL   O20832636   7.710   0.540   4.788  0.2912  0.1296  0.5846
  135MOL   C20932637   7.621   0.623   4.855  0.2479  0.1673  0.5256
  135MOL   C21032638   7.593   0.584   5.002 -0.4673  0.2421  0.1988
  135MOL   O21132639   7.579   0.733   4.809  0.1204  0.6234 -0.3957
  135MOL   H21232640   7.787   0.367   4.552  0.7656  0.6890 -3.1631
  135MOL   H21332641   7.689   0.469   4.449 -0.2160  0.2790  0.2586
  135MOL   H21432642   7.651   0.632   4.612 -0.8903 -1.4455 -0.6017
  135MOL   H21532643   7.505   0.627   5.049  0.5905 -0.6799  3.1383
  135MOL   H21632644   7.686   0.617   5.049  0.9606 -2.8787 -0.3134
  135MOL   H21732645   7.576   0.476   5.005 -0.5379  0.2430 -0.1979
  135MOL   C21832646   7.860   0.632   4.611 -0.2269  0.1251  0.4615
  135MOL   C21932647   7.885   0.705   4.479 -0.3999 -0.5767  0.3690
  135MOL   O22032648   7.802   0.820   4.468  0.0145  0.7703  0.3907
  135MOL   C22132649   7.733   0.831   4.355 -0.9908 -0.2634  0.4455
  135MOL   C22232650   7.637   0.946   4.354  0.2710 -0.2839 -0.6499
  135MOL   O22332651   7.755   0.774   4.247  0.1586 -0.3561  0.0760
  135MOL   H22432652   7.894   0.696   4.692 -0.3700  0.5556  0.1816
  135MOL   H22532653   7.939   0.557   4.616  1.8601  2.1815 -0.6076
  135MOL   H22632654   7.861   0.637   4.397 -1.5534  0.3036 -0.0291
  135MOL   H22732655   7.640   0.974   4.249  0.5499  0.2440 -0.5029
  135MOL   H22832656   7.683   1.031   4.404  0.0572  0.3258 -1.4897
  135MOL   H22932657   7.538   0.928   4.395 -0.0635  0.2085 -1.2403
  135MOL   C23032658   0.008   0.755   4.473 -0.1545  0.6336  0.3064
  135MOL   C23132659   0.049   0.819   4.339  0.0412 -0.2943  0.6893
  135MOL   O23232660   0.184   0.863   4.337  0.2233  0.2879  0.5065
  135MOL   C23332661   0.218   0.986   4.292  0.8426  0.3031  0.0683
  135MOL   C23432662   0.367   1.009   4.313 -0.3540 -0.1405 -0.0310
  135MOL   O23532663   0.137   1.074   4.255 -0.6669 -0.3967  0.2939
  135MOL   H23632664   0.022   0.832   4.549 -0.5914  1.7251 -0.7028
  135MOL   H23732665   0.081   0.682   4.506  0.0500  1.3599  1.5063
  135MOL   H23832666   7.992   0.891   4.315  0.2985 -0.3404 -0.2762
  135MOL   H23932667   0.381   1.033   4.419 -0.2955 -2.3848  0.4851
  135MOL   H24032668   0.392   1.094   4.249  0.9428 -1.0210 -0.7146
  135MOL   H24132669   0.426   0.922   4.286  1.0355  1.0969 -1.0772
  135MOL   H24232670   0.053   0.754   4.252  2.1201 -0.2684  0.7486
  136MOL     C132671   3.850   6.337   4.562 -0.1730 -0.1538 -0.6230
  136MOL     C232672   3.951   6.398   4.654  0.0641  0.3629 -0.2919
  136MOL     O332673   4.084   6.394   4.608  0.5554  0.1052 -0.0379
  136MOL     C432674   4.160   6.286   4.627  0.4990  0.1106  0.6090
  136MOL     C532675   4.302   6.301   4.570  0.3985 -0.5781  0.0812
  136MOL     O632676   4.131   6.190   4.696  0.6326  0.2647  0.2020
  136MOL     H732677   3.868   6.384   4.466  0.1621  0.2532 -0.3605
  136MOL     H832678   3.749   6.355   4.598  0.1910 -0.5440  0.6372
  136MOL     H932679   3.947   6.333   4.742 -0.8051 -2.1494 -2.1085
  136MOL    H1032680   4.360   6.348   4.649 -1.7428  0.1849  1.2567
  136MOL    H1132681   4.297   6.369   4.486  0.8355  0.6084  1.0031
  136MOL    H1232682   4.335   6.204   4.532 -3.6458 -0.7561 -3.4002
  136MOL    H1332683   3.869   6.230   4.570  0.9035  0.2037  2.3253
  136MOL    C1432684   3.923   6.546   4.679 -0.3252  0.0821 -0.0889
  136MOL    C1532685   3.789   6.590   4.757  0.1098 -0.0218 -0.3421
  136MOL    O1632686   3.804   6.576   4.898  0.1932 -0.3028 -0.1730
  136MOL    C1732687   3.757   6.460   4.955 -0.8127 -1.7141 -0.0019
  136MOL    C1832688   3.754   6.464   5.109  0.1271 -0.0302 -0.0850
  136MOL    O1932689   3.727   6.358   4.895 -0.4340 -0.3504 -0.1400
  136MOL    H2032690   4.010   6.603   4.712 -1.7006  2.4057 -0.3405
  136MOL    H2132691   3.907   6.593   4.582 -0.2291 -0.0151 -0.1509
  136MOL    H2232692   3.704   6.526   4.735 -0.7806  0.9957  0.0610
  136MOL    H2332693   3.712   6.560   5.136  3.8693  1.5907  0.3038
  136MOL    H2432694   3.842   6.442   5.170  0.4024 -1.4171 -0.9531
  136MOL    H2532695   3.671   6.399   5.136  0.6104 -0.3785  0.5690
  136MOL    C2632696   3.756   6.739   4.715  0.5118 -0.0337 -0.6926
  136MOL    C2732697   3.622   6.793   4.774 -0.5848  0.2212  0.4152
  136MOL    O2832698   3.646   6.843   4.901 -0.1633  0.0714  0.4429
  136MOL    C2932699   3.565   6.818   4.999  0.3033  0.5483 -0.1264
  136MOL    C3032700   3.583   6.902   5.123 -0.0770 -0.1535 -0.1479
  136MOL    O3132701   3.481   6.725   4.992  0.2332 -0.4051 -0.5869
  136MOL    H3232702   3.837   6.808   4.734 -0.5742  1.5650 -1.6979
  136MOL    H3332703   3.744   6.737   4.607  0.4831 -0.0119 -0.6900
  136MOL    H3432704   3.559   6.705   4.775  0.1466 -0.3054  0.7280
  136MOL    H3532705   3.501   6.971   5.148 -0.3331  0.3109 -2.1882
  136MOL    H3632706   3.666   6.970   5.104 -0.1482 -0.2801 -0.9110
  136MOL    H3732707   3.600   6.843   5.212 -1.1800  2.6881  2.0494
  136MOL    C3832708   3.539   6.895   4.689 -0.8213 -0.9816  0.3349
  136MOL    C3932709   3.610   7.015   4.622 -0.5085  0.1473  0.3087
  136MOL    O4032710   3.683   6.967   4.508 -0.3059  0.3415  0.5901
  136MOL    C4132711   3.806   7.008   4.480  0.6444 -0.2831 -0.5221
  136MOL    C4232712   3.875   6.926   4.370  0.2560 -0.6162  0.5227
  136MOL    O4332713   3.867   7.097   4.536 -0.3685  0.2687 -0.1713
  136MOL    H4432714   3.494   6.839   4.606  1.9347 -2.2628 -0.3548
  136MOL    H4532715   3.453   6.930   4.746 -1.4806 -2.6894  0.4181
  136MOL    H4632716   3.669   7.062   4.701 -2.4711  1.1072  1.2483
  136MOL    H4732717   3.839   6.948   4.269  0.1879  1.2527  0.9356
  136MOL    H4832718   3.858   6.820   4.388  0.9037 -0.6017  1.2385
  136MOL    H4932719   3.984   6.935   4.378  0.5849 -2.2614 -1.5953
  136MOL    C5032720   3.515   7.126   4.560  0.5222  0.4911  0.1933
  136MOL    C5132721   3.429   7.193   4.667  0.8792 -0.5539  0.0352
  136MOL    O5232722   3.500   7.282   4.750 -0.0940 -0.3983  0.1750
  136MOL    C5332723   3.536   7.243   4.876  0.1941 -0.3377 -0.3991
  136MOL    C5432724   3.625   7.344   4.941  0.5756 -0.3095 -0.0787
  136MOL    O5532725   3.498   7.139   4.930  0.6727 -0.0719 -0.0748
  136MOL    H5632726   3.580   7.197   4.508  1.5137  0.2971  1.1522
  136MOL    H5732727   3.447   7.081   4.488 -0.0403  2.1305 -0.3335
  136MOL    H5832728   3.379   7.113   4.722  0.9786  0.7395  2.0516
  136MOL    H5932729   3.730   7.330   4.918  1.2492  2.1362  1.3722
  136MOL    H6032730   3.608   7.342   5.048 -2.3964 -0.7311 -0.5057
  136MOL    H6132731   3.582   7.439   4.908  1.0837  0.7915  2.3262
  136MOL    C6232732   3.318   7.275   4.598  0.8713 -0.1069  0.5225
  136MOL    C6332733   3.224   7.347   4.698 -0.2141 -0.4166 -0.1387
  136MOL    O6432734   3.221   7.485   4.676  0.3891 -0.1039 -0.8383
  136MOL    C6532735   3.172   7.572   4.768  0.4028 -0.1537 -0.3459
  136MOL    C6632736   3.162   7.717   4.720  0.4455 -0.0195 -0.0347
  136MOL    O6732737   3.126   7.539   4.879 -0.1247  0.0732 -0.1703
  136MOL    H6832738   3.364   7.359   4.547 -0.9231  1.6258  1.6734
  136MOL    H6932739   3.261   7.210   4.530  2.0998 -1.1295  0.4602
  136MOL    H7032740   3.271   7.347   4.797  0.6408  1.5234 -0.5209
  136MOL    H7132741   3.237   7.779   4.769 -0.6185 -0.1534  1.7798
  136MOL    H7232742   3.065   7.764   4.732 -0.4468 -1.0819 -2.5888
  136MOL    H7332743   3.193   7.736   4.617 -3.2967  0.6316 -1.0902
  136MOL    C7432744   3.080   7.285   4.702 -0.2038 -0.0854 -0.1903
  136MOL    C7532745   3.048   7.157   4.789  0.2544 -0.6841  0.3588
  136MOL    O7632746   3.131   7.053   4.744  0.1908  0.3416 -0.1162
  136MOL    C7732747   3.067   6.950   4.683  0.3000  0.7431  0.8640
  136MOL    C7832748   3.142   6.824   4.697 -0.5733  0.3057  0.6309
  136MOL    O7932749   2.953   6.956   4.638  0.1292  0.3931 -0.0011
  136MOL    H8032750   3.006   7.359   4.732 -0.8434 -0.8747  0.2101
  136MOL    H8132751   3.040   7.274   4.601 -1.3926  0.0550  0.2521
  136MOL    H8232752   2.941   7.141   4.777 -0.1537  1.3081  1.1403
  136MOL    H8332753   3.077   6.740   4.720 -0.0273  0.0019  1.0758
  136MOL    H8432754   3.217   6.827   4.776  1.8965 -3.6081 -1.4342
  136MOL    H8532755   3.204   6.805   4.610  0.2239 -0.7284  1.4159
  136MOL    C8632756   3.073   7.167   4.942  0.0423 -0.2838  0.3945
  136MOL    C8732757   2.978   7.274   5.007  0.1373 -0.4273  0.3410
  136MOL    O8832758   2.846   7.221   4.999  0.0331 -0.3330  0.7532
  136MOL    C8932759   2.757   7.253   4.905 -0.4343  0.2815  0.5497
  136MOL    C9032760   2.626   7.185   4.922 -0.7450  0.2755  0.4883
  136MOL    O9132761   2.778   7.334   4.812 -0.0224  0.3243  0.6428
  136MOL    H9232762   3.055   7.071   4.991 -2.4149 -0.3450 -0.5502
  136MOL    H9332763   3.175   7.204   4.959 -0.7932  2.8750 -1.0539
  136MOL    H9432764   2.994   7.369   4.957  3.7823 -0.8108  0.6079
  136MOL    H9532765   2.616   7.114   4.840  1.1211 -0.2142  0.6609
  136MOL    H9632766   2.543   7.255   4.913 -0.5335  0.5258  0.4539
  136MOL    H9732767   2.620   7.129   5.016  0.3706  0.0956  0.4572
  136MOL    C9832768   3.027   7.300   5.149 -0.3116 -0.5478  0.2825
  136MOL    C9932769   2.963   7.423   5.219  0.1797 -0.1682 -1.2147
  136MOL   O10032770   2.828   7.392   5.256  0.1456 -0.4730 -0.1524
  136MOL   C10132771   2.732   7.472   5.215 -0.3208  0.3329  0.5547
  136MOL   C10232772   2.594   7.406   5.219 -0.7708  0.2930 -0.0032
  136MOL   O10332773   2.753   7.580   5.164 -0.1548 -0.3058  0.0518
  136MOL   H10432774   3.021   7.209   5.209 -3.0968 -0.9314 -0.5070
  136MOL   H10532775   3.128   7.340   5.139 -1.3032  1.9208 -0.2382
  136MOL   H10632776   2.976   7.501   5.143  1.1542  1.3568  0.4607
  136MOL   H10732777   2.521   7.484   5.235 -2.7378 -1.2469 -1.2624
  136MOL   H10832778   2.591   7.327   5.294 -4.0545  1.0858  0.7778
  136MOL   H10932779   2.576   7.362   5.121 -0.1881 -0.9240  0.4178
  136MOL   C11032780   3.055   7.471   5.343 -0.1048 -0.2070  0.8415
  136MOL   C11132781   3.059   7.628   5.371 -0.7784  0.5567 -0.4069
  136MOL   O11232782   2.936   7.654   5.432 -0.6623  0.6169  0.0864
  136MOL   C11332783   2.882   7.777   5.431 -0.1666  0.1016 -0.3596
  136MOL   C11432784   2.732   7.773   5.453  0.2446  0.3739 -0.1633
  136MOL   O11532785   2.937   7.885   5.415 -0.6443 -0.1235  0.7928
  136MOL   H11632786   3.031   7.432   5.442 -1.6509  0.8325  0.9047
  136MOL   H11732787   3.156   7.436   5.321  0.0922 -0.1468  1.6250
  136MOL   H11832788   3.069   7.676   5.273 -0.1307 -1.5965 -1.4334
  136MOL   H11932789   2.707   7.701   5.531 -0.4644  0.7163 -0.0688
  136MOL   H12032790   2.677   7.753   5.361  2.2652 -0.0643 -1.3077
  136MOL   H12132791   2.688   7.866   5.489 -1.5957 -0.1178 -1.0473
  136MOL   C12232792   3.174   7.656   5.470  0.2577 -0.6051 -0.4440
  136MOL   C12332793   3.288   7.745   5.401  0.2131  0.8078 -0.0696
  136MOL   O12432794   3.255   7.887   5.411  0.1949 -0.1824 -0.4248
  136MOL   C12532795   3.297   7.971   5.320  0.3072  0.1700 -0.2299
  136MOL   C12632796   3.223   0.084   5.321 -0.0505  0.5665 -0.4719
  136MOL   O12732797   3.385   7.945   5.239 -0.4662 -0.3141  0.1850
  136MOL   H12832798   3.138   7.718   5.552 -2.2235 -2.0527 -0.3947
  136MOL   H12932799   3.208   7.560   5.510 -0.7829 -0.6490  0.3446
  136MOL   H13032800   3.297   7.711   5.297 -2.9751 -1.3499  0.2939
  136MOL   H13132801   3.298   0.161   5.307  0.3968  0.4872  1.3489
  136MOL   H13232802   3.171   0.110   5.413  0.1074  0.8855 -0.4728
  136MOL   H13332803   3.160   0.105   5.234 -0.2548  1.3826 -0.1255
  136MOL   C13432804   3.430   7.703   5.443 -0.2146 -0.4466 -0.7266
  136MOL   C13532805   3.481   7.746   5.592  0.6206  0.4641  0.4448
  136MOL   O13632806   3.581   7.650   5.639  0.0768  0.1766  0.6988
  136MOL   C13732807   3.556   7.568   5.749  0.3541 -0.6998 -0.2844
  136MOL   C13832808   3.669   7.481   5.803 -0.2235  0.6277 -0.2896
  136MOL   O13932809   3.441   7.562   5.795 -0.2257 -0.4695 -0.3879
  136MOL   H14032810   3.427   7.594   5.431 -2.0829 -0.4020 -0.9049
  136MOL   H14132811   3.501   7.740   5.370  1.1273 -0.6332  0.4708
  136MOL   H14232812   3.395   7.736   5.658  0.3014 -1.2018 -0.2047
  136MOL   H14332813   3.636   7.378   5.796 -1.6706  1.1215 -0.8660
  136MOL   H14432814   3.710   7.508   5.901  1.0453  0.9372 -0.9025
  136MOL   H14532815   3.755   7.493   5.737 -0.0545  3.6072  0.3903
  136MOL   C14632816   3.529   7.893   5.605 -0.0946  0.1484 -0.3137
  136MOL   C14732817   3.608   7.935   5.731 -0.5924 -0.5744  0.3482
  136MOL   O14832818   3.536   7.885   5.847  0.0044  0.3370 -0.2088
  136MOL   C14932819   3.521   7.971   5.949  0.1705 -0.1023  0.0869
  136MOL   C15032820   3.421   7.914   6.044  0.0749  0.1863  0.3908
  136MOL   O15132821   3.564   0.066   5.960  0.1050 -0.6523  0.0150
  136MOL   H15232822   3.601   7.924   5.530  0.1389 -1.9222 -0.9623
  136MOL   H15332823   3.444   7.962   5.596 -0.5081 -0.1411  1.1138
  136MOL   H15432824   3.603   0.022   5.732 -0.2296 -0.5569  0.1772
  136MOL   H15532825   3.405   7.807   6.032  0.1049 -0.0765  2.5707
  136MOL   H15632826   3.326   7.967   6.032 -1.1070 -2.0482 -0.2642
  136MOL   H15732827   3.466   7.923   6.143 -0.7866  0.1656  0.7913
  136MOL   C15832828   3.757   7.886   5.729  0.2616 -0.6799  0.0454
  136MOL   C15932829   3.851   7.971   5.818 -0.1017 -0.0980 -0.2133
  136MOL   O16032830   3.975   7.899   5.836  0.1960  0.0138 -0.4566
  136MOL   C16132831   4.007   7.820   5.935  0.0573 -1.1317  0.6925
  136MOL   C16232832   4.154   7.776   5.918  0.3562  0.3952 -0.7008
  136MOL   O16332833   3.947   7.788   6.038  0.4618  0.2661 -0.4175
  136MOL   H16432834   3.757   7.788   5.776  0.4798 -0.0197  1.4565
  136MOL   H16532835   3.800   7.880   5.629  0.9754  1.5972  0.1839
  136MOL   H16632836   3.804   7.993   5.914 -1.3392  0.3681 -0.9152
  136MOL   H16732837   4.179   7.689   5.979  1.4623  0.2424 -1.3691
  136MOL   H16832838   4.216   7.863   5.940  2.3985 -0.9591 -0.9770
  136MOL   H16932839   4.157   7.740   5.816 -0.3809  0.5870 -0.7951
  136MOL   C17032840   3.896   0.089   5.756  0.0478  0.6322  0.1074
  136MOL   C17132841   3.938   0.208   5.849 -0.3816  0.2966 -0.5827
  136MOL   O17232842   3.832   0.226   5.951 -0.8925 -0.2584  0.5143
  136MOL   C17332843   3.783   0.353   5.970  0.6919  1.2883 -0.7555
  136MOL   C17432844   3.664   0.360   6.073 -0.1359 -0.1279  0.5966
  136MOL   O17532845   3.824   0.457   5.918  0.2446  0.0240  0.0086
  136MOL   H17632846   3.957   0.088   5.665  2.2692 -1.4372  1.5729
  136MOL   H17732847   3.804   0.121   5.707  0.9719  0.8712 -1.5280
  136MOL   H17832848   3.958   0.300   5.795 -1.2525  0.3440 -0.8403
  136MOL   H17932849   3.568   0.397   6.036 -0.1746 -0.2464  0.5767
  136MOL   H18032850   3.684   0.414   6.165 -0.7209  1.0300  0.0585
  136MOL   H18132851   3.637   0.260   6.107 -1.4086  0.2231  0.6520
  136MOL   C18232852   4.062   0.175   5.926 -0.1061  0.5210 -0.3962
  136MOL   C18332853   4.110   0.313   5.987  0.0920  0.2332  0.3387
  136MOL   O18432854   4.166   0.297   6.111  0.4668  0.1044  0.2218
  136MOL   C18532855   4.093   0.323   6.221 -0.7900 -0.5809  0.8650
  136MOL   C18632856   4.149   0.286   6.352 -0.8247  0.8159  0.5400
  136MOL   O18732857   3.987   0.375   6.219  0.3307 -0.3408 -0.3808
  136MOL   H18832858   4.038   0.102   6.004 -0.2623 -1.0319 -1.8695
  136MOL   H18932859   4.139   0.118   5.874  0.8876  0.8203  0.7158
  136MOL   H19032860   4.027   0.383   5.989 -0.1951 -0.1046  0.3274
  136MOL   H19132861   4.128   0.367   6.421 -0.3528  1.3028  0.1188
  136MOL   H19232862   4.256   0.268   6.364 -1.0641 -1.2092 -0.1261
  136MOL   H19332863   4.111   0.188   6.382  0.6683  0.3624  1.0038
  136MOL   C19432864   4.227   0.369   5.902  0.0573 -0.1706  0.0830
  136MOL   C19532865   4.291   0.496   5.949  0.1923 -0.0319 -0.2410
  136MOL   O19632866   4.397   0.516   5.861  0.1726  0.2802 -0.5922
  136MOL   C19732867   4.515   0.559   5.906 -0.3876  0.1281  0.0635
  136MOL   C19832868   4.613   0.575   5.788  0.0395  0.5499 -0.4381
  136MOL   O19932869   4.553   0.560   6.021  0.2671  0.3460 -0.2207
  136MOL   H20032870   4.298   0.287   5.897  0.9534  0.5431  0.9211
  136MOL   H20132871   4.197   0.386   5.798  0.9392 -2.7890 -0.6363
  136MOL   H20232872   4.333   0.483   6.049 -1.8621 -1.3295  0.5073
  136MOL   H20332873   4.609   0.510   5.700  0.8647  0.1593 -0.1941
  136MOL   H20432874   4.714   0.567   5.827  0.0317  1.2371 -0.2710
  136MOL   H20532875   4.608   0.678   5.753  2.9461  0.9330  0.2185
  136MOL   C20632876   4.200   0.620   5.940 -0.0565 -0.1600  0.1699
  136MOL   C20732877   4.146   0.667   6.082 -0.3318 -0.2203  0.3257
  136MOL   O20832878   4.251   0.704   6.180 -0.0831  0.1001  0.1946
  136MOL   C20932879   4.338   0.807   6.147 -0.2008  0.2758  0.2645
  136MOL   C21032880   4.450   0.829   6.244 -0.0580  0.3354 -0.3139
  136MOL   O21132881   4.331   0.878   6.046 -0.0101  0.4785  0.1664
  136MOL   H21232882   4.252   0.696   5.883 -0.0567 -0.7524 -0.6380
  136MOL   H21332883   4.113   0.600   5.877 -1.8782  2.6074  1.7072
  136MOL   H21432884   4.081   0.587   6.118  0.9419 -1.1755  0.5433
  136MOL   H21532885   4.541   0.795   6.196  0.3417 -1.0907  1.4254
  136MOL   H21632886   4.438   0.775   6.338  1.0559  0.6440  0.0097
  136MOL   H21732887   4.472   0.933   6.269 -1.7946  0.5346  0.5037
  136MOL   C21832888   4.038   0.772   6.056 -0.2272  0.2196  0.1869
  136MOL   C21932889   3.932   0.798   6.172  0.1635  0.5918  0.1182
  136MOL   O22032890   3.863   0.926   6.148 -0.1021  0.0869 -0.0423
  136MOL   C22132891   3.852   1.016   6.242 -0.6735 -0.2651  0.1907
  136MOL   C22232892   3.771   1.136   6.194 -0.7246  0.6607 -0.4910
  136MOL   O22332893   3.900   1.007   6.355 -0.1412  0.1270  0.7053
  136MOL   H22432894   4.090   0.868   6.056  2.1203 -1.0204  0.8796
  136MOL   H22532895   3.995   0.777   5.956 -1.2916 -1.0051  0.5764
  136MOL   H22632896   3.989   0.802   6.265 -2.5051 -0.9987  1.8898
  136MOL   H22732897   3.670   1.099   6.179  0.1745 -2.0813 -0.2794
  136MOL   H22832898   3.823   1.178   6.107  1.5022  0.9157  0.9090
  136MOL   H22932899   3.779   1.209   6.274 -1.8426  0.8030 -0.5054
  136MOL   C23032900   3.825   0.686   6.186  0.0497 -0.1841  0.0186
  136MOL   C23132901   3.733   0.715   6.303 -0.4047  0.7779 -0.5159
  136MOL   O23232902   3.621   0.631   6.303  0.0422  0.0101  0.5070
  136MOL   C23332903   3.496   0.663   6.270  0.1661  0.1239 -0.3833
  136MOL   C23432904   3.401   0.551   6.296  0.0101  0.4717  0.2375
  136MOL   O23532905   3.455   0.773   6.242  0.1384  0.0761  0.1860
  136MOL   H23632906   3.769   0.673   6.094  0.2395  1.1464 -0.2880
  136MOL   H23732907   3.868   0.589   6.210 -0.9256 -0.7801 -0.6374
  136MOL   H23832908   3.699   0.818   6.313  0.9851  1.2471 -0.4128
  136MOL   H23932909   3.383   0.507   6.198 -1.2594  2.3471 -0.3890
  136MOL   H24032910   3.304   0.587   6.330  0.8829  1.9847  1.1690
  136MOL   H24132911   3.443   0.469   6.354 -3.3964 -2.8108 -1.6923
  136MOL   H24232912   3.792   0.686   6.390 -2.9439 -1.7274  0.4476
  137MOL     C132913   3.873   0.473   3.558 -0.1746  0.1172  0.2849
  137MOL     C232914   3.892   0.367   3.669  0.3784  0.3064  0.1367
  137MOL     O332915   3.850   0.421   3.790 -0.0784  0.1045  0.3534
  137MOL     C432916   3.954   0.469   3.870  0.1312  0.0268  0.3532
  137MOL     C532917   3.885   0.540   3.983 -0.3904  0.1557 -0.4777
  137MOL     O632918   4.074   0.469   3.849 -0.4197 -0.4267 -0.1613
  137MOL     H732919   3.774   0.512   3.540 -0.1752 -0.9414 -2.1989
  137MOL     H832920   3.900   0.443   3.457  0.3522  1.7429 -0.0674
  137MOL     H932921   3.990   0.323   3.682  0.1531  0.0741  1.0606
  137MOL    H1032922   3.777   0.546   3.990 -0.2562  2.4597  0.0399
  137MOL    H1132923   3.910   0.646   3.975 -0.6662  0.2757  0.2412
  137MOL    H1232924   3.929   0.509   4.078  0.4314  1.7427 -0.3237
  137MOL    H1332925   3.939   0.557   3.581 -2.2729  1.5116  1.2881
  137MOL    C1432926   3.798   0.248   3.646  0.3986  0.3843  0.0753
  137MOL    C1532927   3.828   0.162   3.521  0.1109 -0.7909  0.0118
  137MOL    O1632928   3.956   0.098   3.538 -0.2741  0.7678  0.0605
  137MOL    C1732929   4.061   0.103   3.455  0.0080  0.5381 -0.4759
  137MOL    C1832930   4.187   0.075   3.531 -0.0387  0.0039 -0.2774
  137MOL    O1932931   4.065   0.157   3.344 -0.4172 -0.1476 -0.0712
  137MOL    H2032932   3.800   0.183   3.733  0.2273 -1.5258 -1.3272
  137MOL    H2132933   3.696   0.285   3.642  0.2146 -0.2557 -1.6325
  137MOL    H2232934   3.831   0.223   3.430 -0.3670  0.5391  0.8801
  137MOL    H2332935   4.215   7.999   3.489  1.4984  0.2400  0.1737
  137MOL    H2432936   4.176   0.083   3.639 -1.6039 -0.8722 -0.3604
  137MOL    H2532937   4.264   0.147   3.501  1.0135 -0.8045  0.4277
  137MOL    C2632938   3.715   0.056   3.509  0.6875 -0.1373  0.4891
  137MOL    C2732939   3.655   0.034   3.364 -0.0260 -0.6079  0.3684
  137MOL    O2832940   3.588   7.931   3.349 -0.6363 -0.5950 -0.0448
  137MOL    C2932941   3.656   7.825   3.299  0.4451 -0.4056 -0.3699
  137MOL    C3032942   3.573   7.697   3.290 -0.1654 -0.7602 -0.0736
  137MOL    O3132943   3.772   7.828   3.264 -0.3610 -0.1983  0.1361
  137MOL    H3232944   3.751   7.979   3.539  0.7951 -0.4830 -0.7339
  137MOL    H3332945   3.633   0.075   3.579  1.2496  1.5502  0.7228
  137MOL    H3432946   3.738   0.033   3.294  1.0838 -0.7528  1.6618
  137MOL    H3532947   3.512   7.682   3.380  1.5013  1.7983  1.5462
  137MOL    H3632948   3.635   7.610   3.268  2.5064  1.2677 -0.7245
  137MOL    H3732949   3.506   7.699   3.204  1.3210 -0.0364 -1.2355
  137MOL    C3832950   3.552   0.145   3.316  0.2141 -0.5305  0.4385
  137MOL    C3932951   3.611   0.286   3.291  0.1813  0.0661 -0.6098
  137MOL    O4032952   3.697   0.266   3.168  0.1926 -0.3510 -0.3072
  137MOL    C4132953   3.798   0.348   3.137 -0.9147  0.1786 -0.4024
  137MOL    C4232954   3.875   0.298   3.013  0.2717  0.2102  0.5464
  137MOL    O4332955   3.836   0.442   3.199  0.0774 -0.5833  0.0162
  137MOL    H4432956   3.518   0.104   3.221 -1.0370  0.4674  0.4437
  137MOL    H4532957   3.467   0.138   3.384 -0.1072  1.2723  0.2430
  137MOL    H4632958   3.665   0.317   3.381  0.4156  1.2310 -1.1426
  137MOL    H4732959   3.843   0.372   2.939 -1.6166  0.8894  1.9940
  137MOL    H4832960   3.841   0.201   2.977  0.9586  0.4944 -0.9363
  137MOL    H4932961   3.983   0.305   3.026  0.2647 -0.9630  1.2221
  137MOL    C5032962   3.513   0.391   3.259 -0.8183 -0.6722 -0.3003
  137MOL    C5132963   3.411   0.415   3.369  0.5985 -0.6322  0.5561
  137MOL    O5232964   3.473   0.388   3.493  0.2255 -0.2975 -0.4589
  137MOL    C5332965   3.398   0.351   3.604 -0.7463  0.3032 -0.1903
  137MOL    C5432966   3.465   0.378   3.733  0.1634  0.4601 -0.0158
  137MOL    O5532967   3.283   0.315   3.596  0.3661 -0.0297 -0.1535
  137MOL    H5632968   3.576   0.480   3.257  0.9508 -1.8865 -0.1508
  137MOL    H5732969   3.472   0.369   3.161 -0.4615 -1.7152 -0.2198
  137MOL    H5832970   3.325   0.349   3.359  1.5679 -2.2359  2.4985
  137MOL    H5932971   3.563   0.426   3.741 -0.8190  2.4602  0.2867
  137MOL    H6032972   3.476   0.284   3.787 -0.4719  0.6078  0.3727
  137MOL    H6132973   3.389   0.427   3.794 -1.9402 -1.8457 -0.7253
  137MOL    C6232974   3.359   0.559   3.383 -0.0128  0.7630 -0.0562
  137MOL    C6332975   3.463   0.681   3.425 -0.0276  0.0793  0.4772
  137MOL    O6432976   3.520   0.740   3.310  0.7660  0.0593  0.6667
  137MOL    C6532977   3.653   0.762   3.312 -0.1585 -0.9214  0.1898
  137MOL    C6632978   3.707   0.799   3.179  0.2984 -0.7845 -0.2067
  137MOL    O6732979   3.721   0.755   3.411 -0.1105  0.1524  0.6858
  137MOL    H6832980   3.314   0.580   3.286 -3.6431 -0.5708  1.2790
  137MOL    H6932981   3.281   0.559   3.459 -0.5674  0.3842 -0.6254
  137MOL    H7032982   3.536   0.624   3.482 -0.3077 -1.6213 -0.8216
  137MOL    H7132983   3.625   0.827   3.112 -1.1243 -2.2001  0.9187
  137MOL    H7232984   3.762   0.710   3.148  0.6789 -0.9959  1.0806
  137MOL    H7332985   3.769   0.888   3.178 -1.3187  0.3705 -2.4467
  137MOL    C7432986   3.403   0.793   3.504 -0.1465 -0.0439  0.3024
  137MOL    C7532987   3.411   0.772   3.659  0.4360 -0.3899  0.2250
  137MOL    O7632988   3.529   0.834   3.710 -0.3838 -0.1447  0.2122
  137MOL    C7732989   3.636   0.760   3.732 -0.2649  0.3594 -0.1689
  137MOL    C7832990   3.764   0.836   3.755  0.0039  0.1970 -0.0071
  137MOL    O7932991   3.641   0.640   3.722 -0.3699  0.8176  0.2757
  137MOL    H8032992   3.451   0.889   3.487  1.3977 -0.4867  1.9456
  137MOL    H8132993   3.305   0.803   3.457  0.8969 -2.7046 -2.6677
  137MOL    H8232994   3.391   0.669   3.687  0.9204 -0.3610  0.6710
  137MOL    H8332995   3.803   0.803   3.851  1.1407 -2.3042 -1.2738
  137MOL    H8432996   3.750   0.944   3.747  0.4360  0.1777 -1.1445
  137MOL    H8532997   3.843   0.798   3.689  1.5304 -0.3917  2.0921
  137MOL    C8632998   3.299   0.847   3.737  0.0249  0.2464 -0.7264
  137MOL    C8732999   3.259   0.797   3.871  0.3549  0.2877 -0.4564
  137MOL    O8833000   3.361   0.808   3.966 -0.2127  0.6344  0.0355
  137MOL    C8933001   3.424   0.693   4.002  0.6485 -0.2757 -0.3630
  137MOL    C9033002   3.554   0.732   4.066  0.1111  0.6016  0.5225
  137MOL    O9133003   3.381   0.579   3.973  0.5000  0.3744  0.0525
  137MOL    H9233004   3.320   0.953   3.747 -0.5026  0.4100 -1.2856
  137MOL    H9333005   3.214   0.841   3.668 -0.9313  0.5320  0.4213
  137MOL    H9433006   3.214   0.700   3.849 -1.8236  0.8169  1.5159
  137MOL    H9533007   3.540   0.810   4.141  2.1102 -0.1360  1.7038
  137MOL    H9633008   3.619   0.773   3.989 -2.0835 -0.4529 -1.9580
  137MOL    H9733009   3.598   0.641   4.107 -2.4723 -0.4662  1.0451
  137MOL    C9833010   3.145   0.889   3.918  0.0275  0.4864 -0.0262
  137MOL    C9933011   3.016   0.880   3.841  0.2092 -0.2464  0.4746
  137MOL   O10033012   2.961   0.756   3.858 -0.1802 -0.4912  1.1207
  137MOL   C10133013   2.946   0.674   3.749 -0.0303 -0.2389  0.1425
  137MOL   C10233014   2.871   0.546   3.777 -0.1731 -0.0377  0.4771
  137MOL   O10333015   2.988   0.698   3.634 -0.3078  0.0069 -0.8448
  137MOL   H10433016   3.123   0.869   4.023  1.3862 -0.2025  0.1340
  137MOL   H10533017   3.166   0.996   3.922  1.4847  0.2159 -0.2204
  137MOL   H10633018   3.024   0.900   3.734 -0.5491 -0.1460  0.4397
  137MOL   H10733019   2.942   0.463   3.779  1.8691  1.6492  0.1660
  137MOL   H10833020   2.807   0.542   3.689 -0.0925 -1.4827  0.4745
  137MOL   H10933021   2.817   0.547   3.872  1.7560 -1.6834  1.6449
  137MOL   C11033022   2.907   0.970   3.904  0.8217  0.0852 -0.5576
  137MOL   C11133023   2.812   1.026   3.795  0.0988 -0.9628  0.1449
  137MOL   O11233024   2.680   1.027   3.843  0.6004  0.1499  0.1654
  137MOL   C11333025   2.593   0.932   3.814  0.3171 -0.3227 -0.4543
  137MOL   C11433026   2.465   0.948   3.889 -0.5094  0.2676  0.1373
  137MOL   O11533027   2.611   0.837   3.733  0.3539  0.3467  0.2167
  137MOL   H11633028   2.860   0.913   3.984  0.2912  2.3068  0.7683
  137MOL   H11733029   2.943   1.054   3.964  0.8515 -1.2055  1.2561
  137MOL   H11833030   2.814   0.954   3.714  0.3938 -0.9492  0.1402
  137MOL   H11933031   2.392   1.006   3.832 -0.4417 -2.5649 -2.9977
  137MOL   H12033032   2.479   0.977   3.993  0.7867 -0.0789  0.0679
  137MOL   H12133033   2.424   0.849   3.906  1.1466 -0.3834  0.3825
  137MOL   C12233034   2.851   1.165   3.749  0.4430 -0.7622 -0.3493
  137MOL   C12333035   2.994   1.183   3.684  0.1290  0.2702 -0.1261
  137MOL   O12433036   2.996   1.138   3.550 -0.2034  0.2006  0.0902
  137MOL   C12533037   3.106   1.079   3.495 -0.1617 -0.5226  0.3861
  137MOL   C12633038   3.078   1.009   3.357  0.4722 -0.0785 -0.1680
  137MOL   O12733039   3.220   1.074   3.540  0.3125  0.4484 -0.6447
  137MOL   H12833040   2.773   1.202   3.682  3.1282  0.4906 -2.8747
  137MOL   H12933041   2.859   1.224   3.840  1.9787 -2.3198  0.5662
  137MOL   H13033042   3.064   1.115   3.733 -1.3194 -1.3236 -0.2479
  137MOL   H13133043   3.173   1.003   3.304  0.0655  3.0574 -1.4113
  137MOL   H13233044   3.011   1.063   3.290 -0.2928 -1.7323 -0.7424
  137MOL   H13333045   3.055   0.905   3.377 -1.5378  0.5231  0.7170
  137MOL   C13433046   3.030   1.332   3.690  0.3393  0.5555 -0.2400
  137MOL   C13533047   3.159   1.379   3.619 -0.2021  0.2342 -0.3392
  137MOL   O13633048   3.144   1.518   3.589  0.5184  0.0826 -0.1328
  137MOL   C13733049   3.213   1.581   3.495 -0.4614 -0.4091  0.1871
  137MOL   C13833050   3.173   1.727   3.482 -0.2038  0.5121 -0.3874
  137MOL   O13933051   3.300   1.528   3.428  0.1519 -0.0349  0.4447
  137MOL   H14033052   2.959   1.409   3.659 -0.1944 -0.8318 -2.5842
  137MOL   H14133053   3.052   1.357   3.794  0.1089 -2.0864  0.4784
  137MOL   H14233054   3.167   1.327   3.523 -1.1153 -1.5345  0.5284
  137MOL   H14333055   3.237   1.769   3.405 -0.5373  2.6403  0.4350
  137MOL   H14433056   3.183   1.780   3.577  2.3229  0.0179 -0.3558
  137MOL   H14533057   3.073   1.719   3.439 -1.9999 -1.8699  3.9648
  137MOL   C14633058   3.300   1.344   3.688 -0.3898 -0.3532  0.3027
  137MOL   C14733059   3.328   1.396   3.825  0.1221  0.8553  0.3885
  137MOL   O14833060   3.449   1.333   3.863 -0.6540 -0.0704  0.5011
  137MOL   C14933061   3.451   1.220   3.941 -0.2603 -1.0864  0.2595
  137MOL   C15033062   3.593   1.156   3.938  0.1906  0.2782  0.3658
  137MOL   O15133063   3.357   1.167   4.001  0.1071  0.3162 -0.6299
  137MOL   H15233064   3.298   1.235   3.684  1.6687 -0.4382  1.1655
  137MOL   H15333065   3.380   1.374   3.620  0.4386 -3.9254 -0.3786
  137MOL   H15433066   3.250   1.365   3.895  0.8744 -2.7950 -0.2405
  137MOL   H15533067   3.653   1.173   4.027  0.0827  1.1426  0.2743
  137MOL   H15633068   3.656   1.163   3.848 -1.7245  0.2548 -1.0010
  137MOL   H15733069   3.549   1.056   3.936  0.4939  0.1606 -1.3011
  137MOL   C15833070   3.347   1.548   3.825  0.0260  0.4517  0.8514
  137MOL   C15933071   3.393   1.624   3.955  0.9237  0.1124  0.4268
  137MOL   O16033072   3.379   1.765   3.943  0.6585 -0.5001  0.2549
  137MOL   C16133073   3.476   1.836   3.876  0.5031 -0.1051  0.7699
  137MOL   C16233074   3.449   1.989   3.881  0.3055  0.2563 -0.1453
  137MOL   O16333075   3.576   1.784   3.822  0.7225  0.2452  0.4168
  137MOL   H16433076   3.413   1.566   3.741 -0.1160 -0.4688  0.5333
  137MOL   H16533077   3.254   1.601   3.807  0.2070  0.2412 -0.7559
  137MOL   H16633078   3.495   1.586   3.966  0.0378 -2.9986 -1.4172
  137MOL   H16733079   3.542   2.039   3.907  0.8148 -2.1106  2.8047
  137MOL   H16833080   3.377   2.018   3.958 -0.8241 -2.3760 -0.1636
  137MOL   H16933081   3.404   2.031   3.791  0.2251  0.1552 -0.1527
  137MOL   C17033082   3.311   1.586   4.079 -0.2984 -0.7165 -0.4844
  137MOL   C17133083   3.376   1.611   4.221 -0.5411 -0.0973 -0.3445
  137MOL   O17233084   3.420   1.739   4.246 -0.5256  0.0849  0.6040
  137MOL   C17333085   3.334   1.849   4.241  0.2672 -0.5871  0.9568
  137MOL   C17433086   3.412   1.977   4.270 -0.0440  0.0474 -0.3612
  137MOL   O17533087   3.212   1.844   4.232 -0.2027 -0.9671 -0.6273
  137MOL   H17633088   3.215   1.637   4.085  0.5638  0.8127  0.5912
  137MOL   H17733089   3.302   1.477   4.078 -2.1474 -0.5907  0.9178
  137MOL   H17833090   3.468   1.554   4.235  0.6150  2.2283  2.0886
  137MOL   H17933091   3.516   1.976   4.238  0.2074 -0.7355  0.4835
  137MOL   H18033092   3.412   2.006   4.375 -0.9435 -0.3553 -0.2435
  137MOL   H18133093   3.369   2.068   4.227 -0.0109  0.2821  0.0989
  137MOL   C18233094   3.299   1.551   4.340  0.2011  0.4557 -0.6709
  137MOL   C18333095   3.392   1.527   4.464 -0.2826  0.8970  0.0723
  137MOL   O18433096   3.412   1.659   4.514  0.1013  0.2022 -0.2188
  137MOL   C18533097   3.525   1.687   4.583  0.2027  0.1633  0.4496
  137MOL   C18633098   3.523   1.830   4.645  0.3531 -0.1302 -0.1174
  137MOL   O18733099   3.622   1.613   4.596  0.2435 -0.9790  0.0205
  137MOL   H18833100   3.220   1.623   4.362 -1.1704 -0.8170 -1.2836
  137MOL   H18933101   3.249   1.457   4.316 -1.0306  1.3312 -1.5935
  137MOL   H19033102   3.488   1.489   4.429 -0.5408 -0.6004  0.9385
  137MOL   H19133103   3.618   1.852   4.696  0.0619  0.9527 -0.0236
  137MOL   H19233104   3.437   1.846   4.711  0.2800  1.7688 -0.6321
  137MOL   H19333105   3.525   1.911   4.573 -0.4409  0.0988  0.1166
  137MOL   C19433106   3.341   1.428   4.571  0.0008 -0.7070 -0.1927
  137MOL   C19533107   3.348   1.277   4.538  0.2669  0.3998 -0.6565
  137MOL   O19633108   3.475   1.223   4.517  0.0048  0.0787  0.1095
  137MOL   C19733109   3.529   1.206   4.400  0.0731 -0.0403 -0.1257
  137MOL   C19833110   3.667   1.135   4.401  0.0127  0.4952  0.0910
  137MOL   O19933111   3.477   1.245   4.299  0.2457  0.2237 -0.1376
  137MOL   H20033112   3.396   1.449   4.663 -0.1592  0.6504 -0.4006
  137MOL   H20133113   3.238   1.454   4.595  0.7912  1.6991  0.7232
  137MOL   H20233114   3.289   1.253   4.450  0.0302 -1.3938 -0.0250
  137MOL   H20333115   3.743   1.192   4.454  0.6755  2.1260 -2.5013
  137MOL   H20433116   3.699   1.134   4.297 -1.2002  2.3687 -0.3228
  137MOL   H20533117   3.666   1.031   4.433  0.8247  1.2182  2.5244
  137MOL   C20633118   3.285   1.197   4.655  0.6591  0.1301 -0.4263
  137MOL   C20733119   3.207   1.066   4.613  0.6488  0.5291 -0.5235
  137MOL   O20833120   3.284   0.994   4.518  0.1513 -0.0911  0.3649
  137MOL   C20933121   3.228   0.947   4.402 -0.7204 -0.2532  0.2094
  137MOL   C21033122   3.320   0.863   4.323 -0.6891  0.2365 -0.4521
  137MOL   O21133123   3.106   0.956   4.376 -0.0291  0.3627  0.5369
  137MOL   H21233124   3.356   1.173   4.734 -1.4964 -0.5221  1.3741
  137MOL   H21333125   3.207   1.257   4.701  1.8333  1.6689 -0.4351
  137MOL   H21433126   3.122   1.109   4.560 -0.2966 -1.1410 -0.3901
  137MOL   H21533127   3.329   0.893   4.218 -2.8169  0.9356 -0.4445
  137MOL   H21633128   3.268   0.767   4.320 -3.3039  1.5260  1.5576
  137MOL   H21733129   3.423   0.857   4.358 -0.6618 -0.8965 -0.7002
  137MOL   C21833130   3.161   0.971   4.727  0.4534  0.0690 -0.2781
  137MOL   C21933131   3.066   1.036   4.828  0.3469  0.2558  0.0086
  137MOL   O22033132   2.953   1.098   4.768  0.2713 -0.1961  0.1523
  137MOL   C22133133   2.928   1.227   4.796  0.2260 -0.1145  1.0307
  137MOL   C22233134   2.799   1.280   4.738  0.4637 -0.0113  0.0089
  137MOL   O22333135   2.990   1.308   4.865 -0.2851  0.1262 -0.1738
  137MOL   H22433136   3.114   0.884   4.679  1.4285 -1.8303  2.1185
  137MOL   H22533137   3.251   0.944   4.782 -0.0624  3.5888  2.4443
  137MOL   H22633138   3.128   1.113   4.872 -0.2487  0.3664  0.6687
  137MOL   H22733139   2.767   1.220   4.652 -0.8839  1.9445 -0.8882
  137MOL   H22833140   2.819   1.383   4.709 -0.9543  0.3761  0.3734
  137MOL   H22933141   2.721   1.297   4.813 -1.4164  0.0458 -1.9017
  137MOL   C23033142   3.014   0.945   4.943  0.5944 -0.0854  0.1461
  137MOL   C23133143   2.924   0.834   4.886  0.4300 -0.9194 -0.6693
  137MOL   O23233144   2.884   0.744   4.986  0.0089 -0.4429 -0.2571
  137MOL   C23333145   2.969   0.659   5.020  0.2017  0.9999 -0.4732
  137MOL   C23433146   2.909   0.536   5.086  0.1653  0.5754 -0.0901
  137MOL   O23533147   3.092   0.655   4.997 -0.5413 -0.7134  0.0316
  137MOL   H23633148   3.091   0.905   5.009  0.2961  1.9438  1.7706
  137MOL   H23733149   2.950   1.003   5.010  0.1989  1.4296 -1.5127
  137MOL   H23833150   2.966   0.781   4.801  1.0474  0.7388 -1.4048
  137MOL   H23933151   2.862   0.468   5.015 -0.6835  1.5554 -0.4730
  137MOL   H24033152   2.826   0.568   5.149 -0.9498 -0.4442 -1.0468
  137MOL   H24133153   2.987   0.478   5.135 -1.5237 -0.4076  1.5085
  137MOL   H24233154   2.831   0.880   4.852  0.6180 -0.6506 -0.8114
  138MOL     C133155   1.604   0.977   4.235 -0.0697 -0.9358  0.4381
  138MOL     C233156   1.456   0.994   4.199 -0.8098 -0.7920 -0.7240
  138MOL     O333157   1.394   1.092   4.286 -0.4825 -0.3747  0.9385
  138MOL     C433158   1.346   1.056   4.412  0.7770  0.4862 -0.4146
  138MOL     C533159   1.299   1.177   4.495  0.3498  0.0571  0.0598
  138MOL     O633160   1.349   0.944   4.463 -0.2099 -0.2591  0.6533
  138MOL     H733161   1.643   0.877   4.214  1.4758 -0.0151 -1.2456
  138MOL     H833162   1.627   1.022   4.331  1.5325  1.9484 -1.2413
  138MOL     H933163   1.405   0.903   4.233 -3.5179  1.6512  2.1201
  138MOL    H1033164   1.369   1.260   4.499  1.4897 -0.7396 -2.1042
  138MOL    H1133165   1.274   1.149   4.597  1.4248 -2.5692 -0.3475
  138MOL    H1233166   1.203   1.215   4.460 -0.4000 -0.9274  1.0056
  138MOL    H1333167   1.664   1.039   4.169 -1.1882 -0.4709 -0.1394
  138MOL    C1433168   1.435   1.022   4.044  0.1440  0.2963  0.3310
  138MOL    C1533169   1.432   0.897   3.955 -0.0955  0.5930  0.6565
  138MOL    O1633170   1.372   0.936   3.832 -0.4680  0.3069  0.4588
  138MOL    C1733171   1.279   0.852   3.783  0.6392  0.5699  0.1535
  138MOL    C1833172   1.198   0.897   3.662  0.5776 -0.0180  0.2166
  138MOL    O1933173   1.255   0.739   3.834  0.2634 -0.3206  0.1774
  138MOL    H2033174   1.333   1.061   4.050  0.0288  0.0318  0.1289
  138MOL    H2133175   1.499   1.102   4.009 -1.4403  2.1868  1.6766
  138MOL    H2233176   1.369   0.833   4.017 -0.1663  0.0376  0.0086
  138MOL    H2333177   1.117   0.957   3.704  0.8155 -0.5702  1.5032
  138MOL    H2433178   1.162   0.805   3.616  0.9436 -0.0642  0.0256
  138MOL    H2533179   1.241   0.953   3.580 -0.6683  0.7881  0.0906
  138MOL    C2633180   1.568   0.818   3.932 -0.3270 -0.1887  0.3188
  138MOL    C2733181   1.679   0.887   3.840  0.5182 -0.2045  0.0751
  138MOL    O2833182   1.739   0.998   3.914 -0.0482  0.4857 -0.3544
  138MOL    C2933183   1.740   1.122   3.862 -0.2845  0.7861  1.0111
  138MOL    C3033184   1.832   1.215   3.941 -0.6128  0.0642  0.3882
  138MOL    O3133185   1.681   1.162   3.759  0.6180  0.3333  0.2248
  138MOL    H3233186   1.609   0.787   4.029 -2.0672 -0.3740  1.0064
  138MOL    H3333187   1.552   0.718   3.891  2.7132 -1.1757  1.3722
  138MOL    H3433188   1.632   0.932   3.752  1.4957 -1.8435 -1.3216
  138MOL    H3533189   1.831   1.316   3.899  1.0584  1.5038  3.6878
  138MOL    H3633190   1.934   1.179   3.937 -1.1281 -1.4311  0.3654
  138MOL    H3733191   1.785   1.219   4.039 -1.1968  0.6036  0.0924
  138MOL    C3833192   1.787   0.792   3.773  0.4977  0.7270  0.7199
  138MOL    C3933193   1.746   0.657   3.705 -0.1972 -0.0337  0.2779
  138MOL    O4033194   1.644   0.693   3.614 -0.5157  0.0613  0.4152
  138MOL    C4133195   1.527   0.624   3.614 -0.3141 -0.1668  0.1301
  138MOL    C4233196   1.429   0.680   3.509 -0.0533  0.1497 -0.7847
  138MOL    O4333197   1.500   0.525   3.685 -0.0125  0.5177 -0.0569
  138MOL    H4433198   1.844   0.852   3.703 -0.5117  1.5995  0.6482
  138MOL    H4533199   1.863   0.775   3.850  1.2063  0.9178  0.0614
  138MOL    H4633200   1.706   0.584   3.775 -0.2782  0.1931  0.4718
  138MOL    H4733201   1.453   0.785   3.491 -0.9242  0.1317 -2.0710
  138MOL    H4833202   1.322   0.670   3.524  0.4447 -4.5814  0.4816
  138MOL    H4933203   1.442   0.629   3.414 -1.5931 -3.0686  0.6577
  138MOL    C5033204   1.869   0.604   3.622 -0.0134  0.1213 -0.5808
  138MOL    C5133205   1.848   0.459   3.579  0.3107  0.9971 -0.3672
  138MOL    O5233206   1.878   0.449   3.439  0.1355  0.0406 -0.1152
  138MOL    C5333207   1.784   0.468   3.341 -0.2875  0.3354 -0.1902
  138MOL    C5433208   1.846   0.483   3.206  0.9648 -0.8243 -0.1424
  138MOL    O5533209   1.669   0.498   3.361  0.0005 -0.1170 -0.5094
  138MOL    H5633210   1.875   0.669   3.535  0.4714  0.7901 -0.0551
  138MOL    H5733211   1.964   0.606   3.675  0.4094  0.5868 -1.3388
  138MOL    H5833212   1.747   0.420   3.587  0.7260 -0.1548 -0.6265
  138MOL    H5933213   1.781   0.550   3.151  0.3827  0.0339  1.5381
  138MOL    H6033214   1.861   0.394   3.146  0.1831 -1.5723  0.7371
  138MOL    H6133215   1.939   0.538   3.193  0.7713 -0.0028  1.7766
  138MOL    C6233216   1.947   0.351   3.647  0.6164  0.2256  0.3859
  138MOL    C6333217   1.955   0.326   3.800 -0.1884 -0.0885 -0.0357
  138MOL    O6433218   1.990   0.439   3.875 -0.1545  0.2256 -0.3656
  138MOL    C6533219   2.113   0.481   3.883 -0.0676  0.3157  0.4444
  138MOL    C6633220   2.125   0.624   3.937  0.1232  0.9260 -0.1088
  138MOL    O6733221   2.207   0.421   3.827  0.3131 -1.0033  0.1888
  138MOL    H6833222   1.933   0.256   3.595  3.0311  0.1378 -0.1497
  138MOL    H6933223   2.049   0.379   3.620  0.2745 -0.3543 -1.5864
  138MOL    H7033224   2.030   0.249   3.818 -1.0127 -0.6344  1.1026
  138MOL    H7133225   2.224   0.665   3.914  1.4713 -2.2847 -0.3031
  138MOL    H7233226   2.109   0.639   4.043  0.1315  1.4244 -0.1765
  138MOL    H7333227   2.051   0.682   3.882  0.4980  0.7487 -0.8122
  138MOL    C7433228   1.829   0.264   3.859 -0.3447  0.2513  0.4008
  138MOL    C7533229   1.828   0.109   3.840  0.0106 -0.8043  0.5061
  138MOL    O7633230   1.908   0.061   3.941 -0.0310  0.1212 -0.2003
  138MOL    C7733231   1.979   7.972   3.918  0.1157  0.9987 -0.5641
  138MOL    C7833232   2.084   7.926   4.028 -0.3512 -0.1435 -0.3508
  138MOL    O7933233   1.973   7.910   3.815 -0.3365 -0.1098  0.3160
  138MOL    H8033234   1.828   0.296   3.963  0.7586  0.4240  0.3716
  138MOL    H8133235   1.746   0.305   3.802  0.1723 -0.5904 -1.0005
  138MOL    H8233236   1.872   0.080   3.745 -0.0666  0.9773 -0.0917
  138MOL    H8333237   2.113   8.018   4.080  3.1777 -1.2270 -0.2819
  138MOL    H8433238   2.176   7.890   3.983  0.8686  0.4988  1.5714
  138MOL    H8533239   2.046   7.846   4.091  0.9753 -0.4099  0.1067
  138MOL    C8633240   1.685   0.049   3.853 -0.0236 -0.1793  0.2795
  138MOL    C8733241   1.590   0.081   3.739  0.1524 -0.4760 -0.0838
  138MOL    O8833242   1.648   8.018   3.639  0.1466 -0.0396 -0.3444
  138MOL    C8933243   1.705   0.042   3.527  0.3138  0.7817 -0.1965
  138MOL    C9033244   1.818   7.970   3.482 -0.4492 -0.1466 -0.3235
  138MOL    O9133245   1.676   0.145   3.466  0.3775  0.0511  0.2507
  138MOL    H9233246   1.693   7.962   3.854 -2.6115 -0.4721 -3.0147
  138MOL    H9333247   1.628   0.072   3.943 -2.3912 -0.7274 -1.0426
  138MOL    H9433248   1.597   0.188   3.719  1.5755 -0.2986  1.2860
  138MOL    H9533249   1.912   8.014   3.516 -0.3686 -0.9410  0.5208
  138MOL    H9633250   1.828   7.974   3.374  0.1572  1.2496 -0.2312
  138MOL    H9733251   1.790   7.872   3.522 -1.0554  0.8897  1.8410
  138MOL    C9833252   1.444   0.037   3.760 -0.4423  0.4111 -0.4760
  138MOL    C9933253   1.340   0.075   3.657 -0.0002 -0.8128 -0.8968
  138MOL   O10033254   1.218   0.009   3.682  0.6223 -0.6277 -0.1500
  138MOL   C10133255   1.180   7.924   3.617  1.0779 -0.3702 -0.4608
  138MOL   C10233256   1.039   7.869   3.665 -0.5451 -0.4434  0.1152
  138MOL   O10333257   1.247   7.870   3.535 -0.1928 -0.0638  0.1771
  138MOL   H10433258   1.449   7.950   3.765 -2.8575  0.2029 -1.6508
  138MOL   H10533259   1.412   0.069   3.858 -0.0901 -1.8008  0.3929
  138MOL   H10633260   1.377   0.051   3.557  0.4903 -0.7617 -0.7260
  138MOL   H10733261   1.042   7.821   3.763  0.4442 -2.3404 -0.8151
  138MOL   H10833262   1.008   7.802   3.585  1.5092 -1.0440 -0.2079
  138MOL   H10933263   0.967   7.951   3.672 -0.8114 -0.6530 -0.1287
  138MOL   C11033264   1.304   0.220   3.659 -0.7713 -1.0345  0.2014
  138MOL   C11133265   1.219   0.270   3.537  0.6530 -0.9027 -0.1571
  138MOL   O11233266   1.149   0.388   3.583  0.0515  0.3340  0.0264
  138MOL   C11333267   1.022   0.406   3.549 -0.2416  0.0512 -0.3995
  138MOL   C11433268   0.969   0.541   3.581 -0.4936 -0.1233  0.2593
  138MOL   O11533269   0.952   0.338   3.478  0.0951  0.2362  0.5179
  138MOL   H11633270   1.247   0.240   3.750 -1.1245  0.5994 -0.3541
  138MOL   H11733271   1.392   0.282   3.672  0.2058 -2.3168 -0.1976
  138MOL   H11833272   1.149   0.196   3.497  0.4614 -1.1975  0.7152
  138MOL   H11933273   0.959   0.583   3.481 -0.6195 -0.9364 -0.0764
  138MOL   H12033274   1.046   0.594   3.637 -0.2767  0.3842 -0.5130
  138MOL   H12133275   0.869   0.522   3.619 -0.1078 -2.2942  0.3080
  138MOL   C12233276   1.314   0.311   3.421 -0.2488  0.4976 -0.1199
  138MOL   C12333277   1.259   0.342   3.283 -0.7970  0.6826  0.2494
  138MOL   O12433278   1.348   0.438   3.224  0.0677  0.1086 -0.4598
  138MOL   C12533279   1.305   0.556   3.176 -0.8747 -1.0458 -0.4824
  138MOL   C12633280   1.392   0.629   3.066 -0.3727 -0.0026  0.9340
  138MOL   O12733281   1.194   0.606   3.209  0.1662  0.2053  0.4715
  138MOL   H12833282   1.364   0.401   3.456 -1.2562  2.1142 -2.7159
  138MOL   H12933283   1.391   0.235   3.406 -1.1962 -0.3999 -0.4942
  138MOL   H13033284   1.155   0.371   3.298 -0.3937  1.9616  0.6596
  138MOL   H13133285   1.393   0.736   3.090 -0.0333 -0.0013  0.9177
  138MOL   H13233286   1.354   0.613   2.965  0.4840  0.5743  0.5131
  138MOL   H13333287   1.496   0.596   3.064 -0.5404 -0.5209 -2.6592
  138MOL   C13433288   1.261   0.220   3.179 -0.0564  0.4525  0.4340
  138MOL   C13533289   1.201   0.078   3.211  0.5982 -0.0245 -0.1449
  138MOL   O13633290   1.060   0.102   3.220 -0.1662  0.0013 -0.6611
  138MOL   C13733291   0.986   0.000   3.279  0.3564  1.2531 -0.5538
  138MOL   C13833292   0.843   0.041   3.312 -0.0057 -0.1707  0.1174
  138MOL   O13933293   1.025   7.907   3.304  0.1327 -0.0983 -0.0737
  138MOL   H14033294   1.214   0.246   3.085  0.6304 -2.5957 -0.7960
  138MOL   H14133295   1.363   0.209   3.141 -0.2164  1.8998 -0.4201
  138MOL   H14233296   1.233   0.050   3.312 -1.6273 -0.9776  0.3495
  138MOL   H14333297   0.807   8.015   3.403 -0.1897  2.7463  1.6569
  138MOL   H14433298   0.782   0.010   3.228  1.0676 -0.6845 -0.4729
  138MOL   H14533299   0.844   0.150   3.320  0.9907 -0.0967 -1.0566
  138MOL   C14633300   1.226   8.001   3.099  0.1131 -0.2531  0.0526
  138MOL   C14733301   1.356   7.920   3.120  0.3235  0.6954  0.5622
  138MOL   O14833302   1.470   7.987   3.151  0.5492 -1.1720 -0.3740
  138MOL   C14933303   1.550   0.017   3.059 -0.3121  0.3325  0.5277
  138MOL   C15033304   1.672   0.091   3.109 -0.8898 -0.2280  0.3898
  138MOL   O15133305   1.532   0.002   2.939 -0.0379 -0.6548  0.1770
  138MOL   H15233306   1.142   7.940   3.064  1.1484 -0.9868 -1.2280
  138MOL   H15333307   1.253   0.036   3.010  0.4019  0.9505  0.9000
  138MOL   H15433308   1.365   7.872   3.022 -0.7330  0.2591  0.6668
  138MOL   H15533309   1.652   0.192   3.145  0.0428  0.3328 -0.6526
  138MOL   H15633310   1.746   0.118   3.034 -0.7130 -1.1611  0.2239
  138MOL   H15733311   1.726   0.042   3.190  2.0448  1.3793 -0.5135
  138MOL   C15833312   1.340   7.802   3.217 -0.1275 -0.4694 -0.9823
  138MOL   C15933313   1.433   7.683   3.186 -0.2236  0.9855  0.5670
  138MOL   O16033314   1.473   7.623   3.307 -0.3742 -0.3081 -0.5283
  138MOL   C16133315   1.585   7.656   3.369 -0.0170  0.4346  0.5789
  138MOL   C16233316   1.618   7.562   3.483  0.0150 -0.4613  0.2150
  138MOL   O16333317   1.660   7.746   3.331 -0.5718 -0.4207 -0.5554
  138MOL   H16433318   1.364   7.850   3.311 -0.6813 -1.3425 -0.3917
  138MOL   H16533319   1.238   7.772   3.243  0.6510 -2.9171 -0.6593
  138MOL   H16633320   1.516   7.718   3.124  1.0778 -0.7480  1.2563
  138MOL   H16733321   1.709   7.597   3.531 -0.7795 -0.1549  1.5167
  138MOL   H16833322   1.634   7.459   3.451 -1.4099 -0.6211 -0.0216
  138MOL   H16933323   1.527   7.556   3.543 -1.1909 -0.5940 -1.6132
  138MOL   C17033324   1.366   7.569   3.105  0.4393  0.1104 -0.2352
  138MOL   C17133325   1.468   7.464   3.036 -0.4153  0.4714 -0.1588
  138MOL   O17233326   1.529   7.371   3.132 -0.7163  0.7072  0.1160
  138MOL   C17333327   1.671   7.371   3.155  0.1183  0.6278 -0.2008
  138MOL   C17433328   1.736   7.239   3.210 -0.0208 -0.0552  0.1814
  138MOL   O17533329   1.745   7.471   3.140  0.4112  0.9712 -0.9489
  138MOL   H17633330   1.291   7.515   3.163 -0.9959  0.8814 -1.3190
  138MOL   H17733331   1.309   7.625   3.031  0.9315  0.3514 -0.4354
  138MOL   H17833332   1.555   7.516   2.995 -0.0552  0.2640  0.3284
  138MOL   H17933333   1.834   7.231   3.163  1.4431  1.3938  2.9076
  138MOL   H18033334   1.668   7.160   3.178  0.5353 -0.1719 -0.7340
  138MOL   H18133335   1.745   7.236   3.318 -0.4924 -3.5344  0.1847
  138MOL   C18233336   1.413   7.370   2.926 -0.6105 -0.4153 -0.2261
  138MOL   C18333337   1.364   7.441   2.801  0.2599  0.0145 -0.9198
  138MOL   O18433338   1.453   7.547   2.768  0.4087  0.6251 -0.5851
  138MOL   C18533339   1.417   7.684   2.762 -0.2980  0.5557  0.0772
  138MOL   C18633340   1.536   7.781   2.738  0.8372 -0.0682  0.2231
  138MOL   O18733341   1.305   7.733   2.761  0.6552  0.0289 -0.0158
  138MOL   H18833342   1.497   7.305   2.903 -0.3168  0.5293 -1.9598
  138MOL   H18933343   1.334   7.306   2.963  0.6282  0.1350  3.5626
  138MOL   H19033344   1.264   7.482   2.815  0.1023 -0.6145 -0.1825
  138MOL   H19133345   1.598   7.757   2.652  0.7979 -0.7031  0.3682
  138MOL   H19233346   1.592   7.778   2.832  2.8474 -1.0293 -0.9657
  138MOL   H19333347   1.509   7.886   2.743  0.4853 -0.1445 -0.0799
  138MOL   C19433348   1.341   7.348   2.678  0.4496  0.6508 -0.1315
  138MOL   C19533349   1.310   7.397   2.539  0.3992 -0.5443 -0.2573
  138MOL   O19633350   1.294   7.280   2.455  0.2421  0.3620  0.6154
  138MOL   C19733351   1.366   7.260   2.335 -0.1089 -0.2057  0.1245
  138MOL   C19833352   1.341   7.127   2.264 -0.0412  0.0020  0.2851
  138MOL   O19933353   1.455   7.336   2.299  0.2221 -0.2078  0.3198
  138MOL   H20033354   1.435   7.292   2.669  0.5068  0.7388 -0.0845
  138MOL   H20133355   1.261   7.280   2.707  0.6790  0.6399  0.4877
  138MOL   H20233356   1.399   7.451   2.508  0.4413  0.5321  1.6390
  138MOL   H20333357   1.277   7.148   2.178 -0.9386 -2.9121  0.1776
  138MOL   H20433358   1.283   7.058   2.324 -0.9838  0.4350 -0.1211
  138MOL   H20533359   1.436   7.092   2.223 -0.4393 -1.2165  0.3830
  138MOL   C20633360   1.179   7.488   2.527 -0.0642  0.1172 -0.1156
  138MOL   C20733361   1.145   7.537   2.383 -1.0585 -0.0811 -0.2676
  138MOL   O20833362   1.030   7.618   2.395  0.0682 -0.9063  0.0890
  138MOL   C20933363   0.909   7.580   2.349 -0.0567  0.4265  0.1193
  138MOL   C21033364   0.806   7.689   2.382 -0.0260  0.2367  0.4971
  138MOL   O21133365   0.886   7.478   2.289 -0.1979  0.0999  0.3563
  138MOL   H21233366   1.094   7.422   2.543 -1.2228  1.2127 -1.5945
  138MOL   H21333367   1.181   7.566   2.602  2.4474  0.9237 -0.9750
  138MOL   H21433368   1.139   7.448   2.320  0.5827 -0.4138  0.0270
  138MOL   H21533369   0.804   7.709   2.489  1.1256  1.0201  0.3765
  138MOL   H21633370   0.700   7.687   2.355 -0.1738  1.0038  1.0081
  138MOL   H21733371   0.838   7.783   2.338 -1.9965  0.5208 -0.4323
  138MOL   C21833372   1.256   7.630   2.329  0.4168  0.2831  0.4550
  138MOL   C21933373   1.209   7.694   2.198  0.6369 -0.1444  0.0149
  138MOL   O22033374   1.151   7.829   2.226 -0.4895  0.0406 -0.3415
  138MOL   C22133375   1.052   7.871   2.147  0.8068  0.5475 -0.7929
  138MOL   C22233376   0.975   7.986   2.202 -0.2624  0.1332  0.5990
  138MOL   O22333377   1.016   7.824   2.043 -0.1492  0.6743 -0.3974
  138MOL   H22433378   1.299   7.703   2.398  2.8765 -0.3132 -0.4022
  138MOL   H22533379   1.333   7.557   2.300 -1.9381 -1.2047 -2.2990
  138MOL   H22633380   1.129   7.630   2.160  0.5546 -0.3981  0.6213
  138MOL   H22733381   0.870   7.958   2.201  0.2000 -1.7511 -1.6101
  138MOL   H22833382   0.978   0.046   2.130 -1.0160  0.3595  0.8250
  138MOL   H22933383   1.008   8.007   2.303 -1.3053 -1.0022  1.1805
  138MOL   C23033384   1.320   7.699   2.092  0.4664 -1.5361 -0.3935
  138MOL   C23133385   1.344   7.561   2.027 -0.1210  0.1247  0.2836
  138MOL   O23233386   1.437   7.577   1.921  0.4355 -0.8279  0.2146
  138MOL   C23333387   1.392   7.618   1.801  0.3974 -0.3033  0.0345
  138MOL   C23433388   1.499   7.613   1.703  0.1226 -0.1300  0.4907
  138MOL   O23533389   1.281   7.672   1.773  0.6184 -0.2517  0.0040
  138MOL   H23633390   1.300   7.771   2.012  0.7501 -2.0927 -0.9700
  138MOL   H23733391   1.409   7.736   2.144 -1.6464 -0.6079  2.6535
  138MOL   H23833392   1.262   7.501   1.988 -1.8364  0.3859  3.3742
  138MOL   H23933393   1.591   7.662   1.733 -0.5500  1.3068  0.2257
  138MOL   H24033394   1.461   7.655   1.610  0.4669  0.6293  0.6930
  138MOL   H24133395   1.527   7.510   1.681 -0.5313 -0.0495 -0.7314
  138MOL   H24233396   1.383   7.499   2.107  0.8117 -0.6170 -0.7311
  139MOL     C133397   6.108   1.250   6.781 -0.0130  0.2600 -0.0117
  139MOL     C233398   5.960   1.307   6.744  0.1704 -0.3102  0.5404
  139MOL     O333399   5.967   1.443   6.777  0.0907 -0.0786 -0.0098
  139MOL     C433400   5.931   1.489   6.893 -0.6243 -0.0278 -0.0454
  139MOL     C533401   5.957   1.636   6.916  0.3849  0.3992 -0.4427
  139MOL     O633402   5.890   1.422   6.989 -0.4671  0.6664  0.0379
  139MOL     H733403   6.132   1.263   6.886 -1.0359  0.3144  0.2254
  139MOL     H833404   6.194   1.294   6.732  0.6385 -0.5858  0.3633
  139MOL     H933405   5.877   1.256   6.793  0.2704  1.1857  2.3399
  139MOL    H1033406   5.882   1.694   6.863 -0.0831 -1.5829 -1.9982
  139MOL    H1133407   6.055   1.659   6.873  0.4002  0.4335 -0.3884
  139MOL    H1233408   5.933   1.670   7.017 -0.3648  0.1405 -0.5351
  139MOL    H1333409   6.105   1.141   6.778  0.4173  0.2627 -0.6222
  139MOL    C1433410   5.948   1.301   6.591  0.2717 -0.6843  0.5347
  139MOL    C1533411   5.906   1.164   6.529  0.8497  0.7341  0.0794
  139MOL    O1633412   5.777   1.144   6.580 -0.3241  0.1122 -0.5420
  139MOL    C1733413   5.733   1.026   6.633 -0.1283  0.2219  0.7258
  139MOL    C1833414   5.598   1.039   6.690  0.7476 -0.2188 -0.3562
  139MOL    O1933415   5.792   0.915   6.637  0.2886 -0.0037  0.0540
  139MOL    H2033416   5.862   1.365   6.572  0.1334 -1.0354 -0.0491
  139MOL    H2133417   6.038   1.324   6.534  1.1680  1.1828  2.6764
  139MOL    H2233418   5.983   1.087   6.541  0.4607  0.0440 -1.6183
  139MOL    H2333419   5.568   1.143   6.704  1.4303  0.2443 -2.1938
  139MOL    H2433420   5.581   0.979   6.780  2.1368  0.5198  0.4114
  139MOL    H2533421   5.531   0.998   6.615 -0.4319 -0.4734  0.8217
  139MOL    C2633422   5.889   1.174   6.371 -0.6426 -0.3792  0.3037
  139MOL    C2733423   5.862   1.039   6.295 -0.4385 -0.8964 -0.0224
  139MOL    O2833424   5.802   1.066   6.162 -0.3103 -0.1490 -0.3072
  139MOL    C2933425   5.674   1.026   6.144 -0.1206 -0.2276  0.8296
  139MOL    C3033426   5.648   1.002   6.001 -0.0206  0.4224  0.7953
  139MOL    O3133427   5.588   1.007   6.230 -0.2176  0.4823 -0.5150
  139MOL    H3233428   5.806   1.243   6.353  0.2834  0.0042 -2.8866
  139MOL    H3333429   5.978   1.232   6.345 -0.5985 -1.1340 -1.3263
  139MOL    H3433430   5.798   0.972   6.353  0.1663 -1.8214 -0.4083
  139MOL    H3533431   5.543   1.022   5.977 -0.5307  0.1233  2.6789
  139MOL    H3633432   5.672   0.899   5.973  1.4955  0.9045  0.3177
  139MOL    H3733433   5.708   1.070   5.941 -0.5283  1.7640  1.7798
  139MOL    C3833434   5.990   0.973   6.276 -0.1007 -0.4756 -0.1846
  139MOL    C3933435   5.993   0.830   6.217  0.0757  0.4998  0.4132
  139MOL    O4033436   6.129   0.783   6.225  0.2125 -0.5649  0.7310
  139MOL    C4133437   6.203   0.773   6.120  0.2546  0.8840 -0.3589
  139MOL    C4233438   6.335   0.721   6.157 -0.0551  0.1436 -0.0490
  139MOL    O4333439   6.168   0.797   6.004  0.3797  0.1105  0.3100
  139MOL    H4433440   6.055   1.039   6.217  1.1842 -1.3318  0.2446
  139MOL    H4533441   6.046   0.960   6.369  0.9143 -0.7387 -0.8240
  139MOL    H4633442   5.966   0.838   6.112  0.2649 -5.3801 -0.2282
  139MOL    H4733443   6.404   0.731   6.073 -0.8529 -0.2047 -0.7576
  139MOL    H4833444   6.340   0.619   6.195 -1.8245 -0.5192 -1.4939
  139MOL    H4933445   6.378   0.782   6.236  0.7281 -1.2092  0.5824
  139MOL    C5033446   5.901   0.727   6.284  0.4877  0.3280  0.9088
  139MOL    C5133447   5.885   0.589   6.211  0.4143 -0.6659 -0.5619
  139MOL    O5233448   6.007   0.522   6.185 -0.0209 -0.3801  0.0135
  139MOL    C5333449   6.017   0.429   6.088 -0.3487 -0.3902  0.1541
  139MOL    C5433450   6.161   0.393   6.060  0.1402  0.7330 -0.1756
  139MOL    O5533451   5.923   0.378   6.026  0.1308  0.3175 -0.1419
  139MOL    H5633452   5.921   0.721   6.391 -0.1023  0.4253  1.0255
  139MOL    H5733453   5.804   0.774   6.274  0.5207 -0.2944 -3.0603
  139MOL    H5833454   5.846   0.601   6.110 -0.3246 -0.4712 -0.2536
  139MOL    H5933455   6.232   0.394   6.143 -1.6471  0.4352  1.3890
  139MOL    H6033456   6.186   0.467   5.984  0.3286 -0.1065 -0.9333
  139MOL    H6133457   6.180   0.301   6.005  1.8406  2.0026 -1.7808
  139MOL    C6233458   5.791   0.502   6.294  0.3129 -0.1513 -0.3831
  139MOL    C6333459   5.640   0.535   6.278  0.0813  0.8139 -0.3582
  139MOL    O6433460   5.596   0.473   6.161  0.7267 -0.0529 -0.7323
  139MOL    C6533461   5.582   0.536   6.044  0.0524 -0.4472 -0.4414
  139MOL    C6633462   5.575   0.438   5.931  0.3978 -0.3592  0.2589
  139MOL    O6733463   5.578   0.661   6.034  0.1618  0.0983  0.3805
  139MOL    H6833464   5.800   0.396   6.271 -0.4920 -0.3834  0.3352
  139MOL    H6933465   5.822   0.507   6.398  0.6737 -0.2571 -0.4840
  139MOL    H7033466   5.622   0.643   6.275  1.3411  1.0199 -0.5739
  139MOL    H7133467   5.647   0.358   5.948  1.0532 -0.1348 -1.3290
  139MOL    H7233468   5.585   0.477   5.830  2.0250 -0.7319  0.2628
  139MOL    H7333469   5.481   0.384   5.940 -0.5439  1.6183  3.1556
  139MOL    C7433470   5.559   0.486   6.398  0.6236 -0.0084  0.3790
  139MOL    C7533471   5.556   0.575   6.530  0.0554  0.3925  0.4284
  139MOL    O7633472   5.681   0.588   6.599 -0.2605  0.3113  0.3418
  139MOL    C7733473   5.729   0.493   6.676 -0.2515 -0.1637  0.5757
  139MOL    C7833474   5.865   0.518   6.731 -0.0347  0.1163  0.0868
  139MOL    O7933475   5.661   0.401   6.725 -0.2871  0.3050  0.4553
  139MOL    H8033476   5.460   0.475   6.353  1.1262 -0.4156 -0.6473
  139MOL    H8133477   5.593   0.384   6.414 -0.6984 -0.8097 -1.7105
  139MOL    H8233478   5.494   0.530   6.608 -0.0037 -0.5010 -0.1240
  139MOL    H8333479   5.937   0.458   6.676  0.9598  2.0780 -0.7990
  139MOL    H8433480   5.880   0.489   6.835  1.5301  0.1935 -0.1063
  139MOL    H8533481   5.901   0.621   6.731  2.7531 -0.8351 -0.6673
  139MOL    C8633482   5.491   0.713   6.511  0.1699  0.6842  0.0666
  139MOL    C8733483   5.339   0.717   6.526  0.2389 -0.1768  0.1427
  139MOL    O8833484   5.317   0.693   6.666  0.1908 -0.1566  0.1497
  139MOL    C8933485   5.248   0.591   6.710  0.0362  0.1868  0.1223
  139MOL    C9033486   5.226   0.601   6.865  0.1222 -0.2390 -0.5465
  139MOL    O9133487   5.204   0.496   6.648  0.5807 -0.3881  0.1627
  139MOL    H9233488   5.528   0.775   6.593  3.1735 -1.4190  0.3992
  139MOL    H9333489   5.527   0.754   6.416  0.4019 -1.5510 -0.8450
  139MOL    H9433490   5.295   0.641   6.462  0.6463 -1.0093  0.8311
  139MOL    H9533491   5.221   0.707   6.888  0.4006 -0.2658 -0.3616
  139MOL    H9633492   5.307   0.562   6.926 -0.8685  1.9495  2.2577
  139MOL    H9733493   5.136   0.554   6.905  0.8831 -0.3862  1.0139
  139MOL    C9833494   5.272   0.851   6.485  1.0071  0.1294  0.1647
  139MOL    C9933495   5.117   0.862   6.523  0.2209 -0.0549 -0.4942
  139MOL   O10033496   5.073   0.985   6.467  0.0677  0.4964 -0.0930
  139MOL   C10133497   5.054   1.102   6.539  0.1778 -0.0061  0.3284
  139MOL   C10233498   4.991   1.210   6.454  0.1304  0.4260  0.4865
  139MOL   O10333499   5.085   1.118   6.657  0.5273 -0.2203 -0.2730
  139MOL   H10433500   5.320   0.941   6.524  1.2898  0.0642 -0.0341
  139MOL   H10533501   5.273   0.871   6.378 -1.0965 -1.1565 -0.1300
  139MOL   H10633502   5.106   0.863   6.632 -3.4621  0.8400 -0.8221
  139MOL   H10733503   4.964   1.168   6.357  1.3892  1.8250 -0.5059
  139MOL   H10833504   5.059   1.295   6.446  1.1998 -0.2819  1.8067
  139MOL   H10933505   4.901   1.245   6.504  0.1762 -0.3356  1.1124
  139MOL   C11033506   5.036   0.749   6.458 -0.0069  0.9936 -0.5348
  139MOL   C11133507   4.895   0.714   6.504 -0.1764  0.0762 -0.5906
  139MOL   O11233508   4.807   0.817   6.457  0.0116 -0.1570 -0.2144
  139MOL   C11333509   4.762   0.913   6.536  0.0301 -0.1564  0.0566
  139MOL   C11433510   4.677   1.004   6.462  0.3806  0.2554  0.3209
  139MOL   O11533511   4.781   0.918   6.656  0.4313  0.3769 -0.6047
  139MOL   H11633512   5.037   0.750   6.349 -1.6629  0.6900 -0.5739
  139MOL   H11733513   5.089   0.659   6.489  1.3300  2.0123  0.1533
  139MOL   H11833514   4.911   0.727   6.611  1.3499  2.6552 -1.0877
  139MOL   H11933515   4.578   1.019   6.504 -0.7258 -1.5498 -1.5130
  139MOL   H12033516   4.657   0.965   6.362 -0.1733  1.0566  0.1115
  139MOL   H12133517   4.712   1.107   6.456 -0.8785  0.6501 -0.5344
  139MOL   C12233518   4.855   0.565   6.470  0.6150 -0.2438  0.6728
  139MOL   C12333519   4.702   0.523   6.466  0.3414 -0.2410 -0.1562
  139MOL   O12433520   4.692   0.411   6.375 -0.5903 -0.0072  0.3880
  139MOL   C12533521   4.578   0.387   6.316  0.6229 -0.0650  0.4881
  139MOL   C12633522   4.575   0.274   6.214  0.2291  0.2519 -0.1482
  139MOL   O12733523   4.475   0.440   6.345 -0.2674 -0.4898  0.4986
  139MOL   H12833524   4.885   0.549   6.367 -1.3196 -0.7169  0.1667
  139MOL   H12933525   4.917   0.489   6.518  0.6392 -1.2126 -0.8799
  139MOL   H13033526   4.640   0.596   6.414 -1.0738 -2.1610 -1.2120
  139MOL   H13133527   4.673   0.265   6.166  2.6441  0.1430  4.4698
  139MOL   H13233528   4.500   0.303   6.141 -0.5578  0.2350  0.6481
  139MOL   H13333529   4.549   0.176   6.254 -1.8165  0.2609 -1.3977
  139MOL   C13433530   4.647   0.493   6.611 -1.1493 -0.5177  0.3035
  139MOL   C13533531   4.580   0.614   6.677  0.5474 -0.4801 -0.0891
  139MOL   O13633532   4.467   0.662   6.595 -0.0323  0.2462 -0.0321
  139MOL   C13733533   4.357   0.586   6.594 -0.0757  0.2859  0.5755
  139MOL   C13833534   4.242   0.653   6.525 -0.1845  0.1269 -0.1935
  139MOL   O13933535   4.343   0.477   6.645 -0.6404 -0.9964  0.1291
  139MOL   H14033536   4.581   0.406   6.605 -1.3490 -0.3231 -0.3024
  139MOL   H14133537   4.712   0.437   6.678 -2.6978 -1.7905  0.7850
  139MOL   H14233538   4.653   0.695   6.667 -0.2911  0.0313 -2.5789
  139MOL   H14333539   4.160   0.585   6.547  0.5317 -0.6702  0.0503
  139MOL   H14433540   4.275   0.653   6.421 -0.5389 -0.6645 -0.3124
  139MOL   H14533541   4.237   0.756   6.560 -1.2153  0.5281 -1.4811
  139MOL   C14633542   4.548   0.605   6.833 -0.1233 -1.2224 -0.9911
  139MOL   C14733543   4.525   0.741   6.909  0.7460 -0.0609 -0.4068
  139MOL   O14833544   4.391   0.799   6.900 -0.0561  0.4813 -0.4112
  139MOL   C14933545   4.372   0.905   6.813  0.1533  0.2890 -0.1775
  139MOL   C15033546   4.238   0.967   6.830  0.1812 -0.4177 -0.3033
  139MOL   O15133547   4.450   0.939   6.726  0.2722  0.2473  0.5294
  139MOL   H15233548   4.452   0.558   6.850 -1.3720  0.8067 -2.2130
  139MOL   H15333549   4.624   0.542   6.880 -0.4653 -0.6816  0.3224
  139MOL   H15433550   4.604   0.806   6.871  0.7220 -0.1767 -0.6504
  139MOL   H15533551   4.207   1.008   6.734 -2.2861  0.3468  0.7882
  139MOL   H15633552   4.229   1.034   6.915  1.1302 -2.5210  1.5254
  139MOL   H15733553   4.169   0.885   6.853  1.6474 -1.8759 -0.9642
  139MOL   C15833554   4.555   0.742   7.067  0.0146  0.7128  0.9701
  139MOL   C15933555   4.696   0.711   7.092  0.3721 -0.0521  0.7798
  139MOL   O16033556   4.777   0.815   7.040 -0.0454 -0.3623  0.2933
  139MOL   C16133557   4.877   0.800   6.941  0.3527 -0.0213  0.2601
  139MOL   C16233558   4.946   0.937   6.911 -0.2300  0.2446  0.3167
  139MOL   O16333559   4.898   0.701   6.877  0.3715  0.5308 -0.3539
  139MOL   H16433560   4.534   0.843   7.105 -0.8409  1.7187 -2.0305
  139MOL   H16533561   4.478   0.678   7.111 -1.3882  0.3357 -1.9504
  139MOL   H16633562   4.716   0.615   7.045  1.1355  0.9967 -1.1180
  139MOL   H16733563   4.885   0.989   6.836 -1.4402 -1.8580 -0.1991
  139MOL   H16833564   5.046   0.918   6.873  0.2247 -1.3719  2.2386
  139MOL   H16933565   4.942   1.008   6.993  1.7291  1.3544 -0.5227
  139MOL   C17033566   4.729   0.691   7.242 -0.6115 -0.6558  0.4186
  139MOL   C17133567   4.657   0.569   7.315  0.3048 -0.7045 -0.0748
  139MOL   O17233568   4.708   0.444   7.262  0.5862  0.6446  0.5581
  139MOL   C17333569   4.644   0.381   7.158  0.0298 -0.3473 -0.4107
  139MOL   C17433570   4.713   0.254   7.114  0.5696  0.9379  0.2615
  139MOL   O17533571   4.537   0.412   7.112  0.0444 -0.2784 -0.5078
  139MOL   H17633572   4.832   0.658   7.257 -0.7962 -1.1235  0.6563
  139MOL   H17733573   4.698   0.780   7.297  0.6203  1.9613 -2.8879
  139MOL   H17833574   4.550   0.582   7.300  0.5659  0.3418 -1.1061
  139MOL   H17933575   4.659   0.215   7.028  0.2635 -0.7558  1.2104
  139MOL   H18033576   4.721   0.178   7.191  0.3677  0.8852  0.2294
  139MOL   H18133577   4.807   0.284   7.067  0.2406  1.3782 -0.1287
  139MOL   C18233578   4.692   0.577   7.470 -0.1218 -0.1210  0.2334
  139MOL   C18333579   4.649   0.452   7.558  0.0403 -0.6475  0.0482
  139MOL   O18433580   4.698   0.472   7.693  0.0857  0.2852  0.3493
  139MOL   C18533581   4.806   0.404   7.733  0.3875  0.5696 -0.8418
  139MOL   C18633582   4.836   0.429   7.882 -0.1893 -0.3936  0.1909
  139MOL   O18733583   4.872   0.327   7.664 -0.0516  1.0090 -0.3060
  139MOL   H18833584   4.800   0.574   7.481  0.2598 -2.5420 -3.2353
  139MOL   H18933585   4.660   0.670   7.517  0.6292  1.0511 -1.5480
  139MOL   H19033586   4.688   0.362   7.511 -0.6577  0.0037 -1.8267
  139MOL   H19133587   4.913   0.356   7.905 -1.4338 -1.9979 -0.5927
  139MOL   H19233588   4.745   0.406   7.938  0.9525 -0.6213  1.9660
  139MOL   H19333589   4.850   0.533   7.910  1.7802 -1.0642  1.8270
  139MOL   C19433590   4.501   0.436   7.567 -0.7588 -0.2458 -0.3265
  139MOL   C19533591   4.469   0.282   7.571 -0.0339  0.5506  0.1092
  139MOL   O19633592   4.337   0.283   7.630 -0.0399 -0.3396  0.8080
  139MOL   C19733593   4.307   0.212   7.733 -0.8718 -0.2312  0.1395
  139MOL   C19833594   4.170   0.241   7.787 -0.2985 -0.3496  0.0565
  139MOL   O19933595   4.387   0.157   7.800  0.3820 -0.0662  0.1877
  139MOL   H20033596   4.459   0.490   7.653  0.4483 -0.0749  0.1607
  139MOL   H20133597   4.457   0.481   7.479 -0.7600 -0.7571 -0.5891
  139MOL   H20233598   4.544   0.237   7.636 -2.3330 -1.3074  1.5584
  139MOL   H20333599   4.133   0.144   7.821 -3.2596  0.5017 -0.5888
  139MOL   H20433600   4.092   0.265   7.715  1.2108  0.9561 -1.1658
  139MOL   H20533601   4.184   0.308   7.872  0.3201 -1.6835  1.0484
  139MOL   C20633602   4.482   0.208   7.438  0.0349 -0.1510  0.6835
  139MOL   C20733603   4.488   0.054   7.429 -0.3460 -0.1137  0.5529
  139MOL   O20833604   4.481   0.028   7.281  0.2819 -0.3255  0.3664
  139MOL   C20933605   4.373   0.030   7.216 -0.8833 -0.2291 -0.4495
  139MOL   C21033606   4.389   0.014   7.067 -0.4436 -0.0917  0.4883
  139MOL   O21133607   4.262   0.037   7.271 -0.3397  0.0998 -0.0258
  139MOL   H21233608   4.410   0.252   7.368  0.0330  0.8339  1.2870
  139MOL   H21333609   4.576   0.240   7.394  0.1558 -0.9219  0.3861
  139MOL   H21433610   4.405   0.013   7.486  1.2332 -2.2750  1.3519
  139MOL   H21533611   4.298   7.983   7.036 -0.4645 -0.8251  1.7356
  139MOL   H21633612   4.466   7.961   7.047  0.9404  1.3936  0.2416
  139MOL   H21733613   4.401   0.107   7.011 -0.5224  0.0582  0.7210
  139MOL   C21833614   4.623   0.002   7.484  0.3186  0.2760  0.1440
  139MOL   C21933615   4.650   7.873   7.489  0.1196 -0.3407 -0.0596
  139MOL   O22033616   4.584   7.810   7.601 -0.4220  0.0473 -0.1326
  139MOL   C22133617   4.623   7.836   7.730  0.3497 -0.1713  0.6558
  139MOL   C22233618   4.518   7.791   7.826 -0.1031  0.0223  0.4555
  139MOL   O22333619   4.728   7.886   7.766 -0.6405  0.3280  0.3968
  139MOL   H22433620   4.692   0.059   7.421  0.1180 -0.0199 -0.3469
  139MOL   H22533621   4.634   0.048   7.582 -2.7272  0.2845  0.5402
  139MOL   H22633622   4.755   7.864   7.517 -0.5693 -0.3054  2.6165
  139MOL   H22733623   4.559   7.803   7.927 -0.9774 -1.9208  1.0625
  139MOL   H22833624   4.521   7.684   7.810  1.7693  0.3745 -1.8059
  139MOL   H22933625   4.417   7.830   7.812 -0.1625 -1.1596 -2.6539
  139MOL   C23033626   4.627   7.791   7.361 -0.4134 -0.6156 -0.3993
  139MOL   C23133627   4.697   7.653   7.381 -0.0787  0.4674  0.6914
  139MOL   O23233628   4.710   7.588   7.255 -1.3815 -0.1977  0.0928
  139MOL   C23333629   4.662   7.465   7.237 -0.0027 -0.3436 -0.0311
  139MOL   C23433630   4.703   7.405   7.108 -0.5386 -0.0027 -0.2088
  139MOL   O23533631   4.587   7.404   7.306 -0.3345 -0.3898 -0.3862
  139MOL   H23633632   4.521   7.777   7.339 -0.7304  0.4624  0.3714
  139MOL   H23733633   4.667   7.852   7.280  0.6492 -1.4841 -0.5337
  139MOL   H23833634   4.637   7.590   7.446  0.2997  0.1383  0.7257
  139MOL   H23933635   4.781   7.331   7.120 -0.4893  0.1782  0.5989
  139MOL   H24033636   4.732   7.476   7.030 -0.3069 -0.1850 -0.2894
  139MOL   H24133637   4.613   7.362   7.064 -0.8188  2.9149 -2.6777
  139MOL   H24233638   4.796   7.656   7.427 -0.0026 -1.2849  0.6540
  140MOL     C133639   7.638   5.269   4.530 -0.2777  0.0742  0.0460
  140MOL     C233640   7.621   5.158   4.645 -0.0115  0.1700  0.1017
  140MOL     O333641   7.580   5.036   4.582 -0.0727 -0.0482  0.4652
  140MOL     C433642   7.470   4.983   4.626 -0.8390 -0.0840 -0.1878
  140MOL     C533643   7.457   4.835   4.592  0.1844 -0.1225 -0.6859
  140MOL     O633644   7.367   5.032   4.677 -0.8977 -0.3982  0.4468
  140MOL     H733645   7.719   5.258   4.457  0.7364  0.9399  1.0277
  140MOL     H833646   7.658   5.365   4.576  1.5124  0.3579 -1.2708
  140MOL     H933647   7.549   5.187   4.721  0.1377  1.3712 -0.1939
  140MOL    H1033648   7.493   4.763   4.666 -0.6077  0.3858  0.1997
  140MOL    H1133649   7.511   4.816   4.499  0.1589  0.0822 -0.7431
  140MOL    H1233650   7.355   4.800   4.577  0.4305 -1.2317  0.1024
  140MOL    H1333651   7.544   5.271   4.475 -0.0179 -1.3502 -0.4854
  140MOL    C1433652   7.758   5.127   4.723  0.1751 -0.0272 -0.2096
  140MOL    C1533653   7.813   5.246   4.812 -1.1398  0.3030  0.0277
  140MOL    O1633654   7.897   5.189   4.920 -0.2485  0.0720  0.2495
  140MOL    C1733655   7.876   5.223   5.047  0.3352 -0.0152 -0.5544
  140MOL    C1833656   7.983   5.171   5.139  0.5447  0.1757  0.0061
  140MOL    O1933657   7.777   5.284   5.094 -0.1868  0.5104  0.1203
  140MOL    H2033658   7.739   5.045   4.793 -1.9489  1.1544  0.6415
  140MOL    H2133659   7.834   5.104   4.648 -0.0113 -1.7884  0.1121
  140MOL    H2233660   7.729   5.287   4.868 -1.7908  1.5703 -1.7929
  140MOL    H2333661   0.041   5.245   5.136 -0.1069  0.9881  2.1201
  140MOL    H2433662   0.007   5.079   5.103 -0.7150 -0.2021 -0.6719
  140MOL    H2533663   7.962   5.170   5.246  0.2389 -1.0908 -0.0558
  140MOL    C2633664   7.900   5.362   4.748 -0.5513  0.1073 -1.1275
  140MOL    C2733665   0.027   5.334   4.706  0.7582 -0.2715  0.0304
  140MOL    O2833666   0.034   5.243   4.592 -0.5356  0.5756 -0.2815
  140MOL    C2933667   0.102   5.130   4.603 -1.2328  0.0912  0.7390
  140MOL    C3033668   0.105   5.050   4.470  0.0200  0.0187  0.4777
  140MOL    O3133669   0.154   5.083   4.709 -0.3461 -0.0572 -0.0783
  140MOL    H3233670   7.838   5.407   4.670 -0.9066  1.0654 -0.3030
  140MOL    H3333671   7.909   5.436   4.828 -0.0548 -1.1826  0.0243
  140MOL    H3433672   0.089   5.306   4.791  1.1806 -2.7886 -1.0507
  140MOL    H3533673   0.012   4.998   4.445 -0.0981  0.7849 -0.7336
  140MOL    H3633674   0.191   4.983   4.476 -0.8169 -1.1819 -0.5771
  140MOL    H3733675   0.128   5.125   4.395 -0.1044  1.0007  1.4151
  140MOL    C3833676   0.083   5.461   4.641  0.5870 -0.0401 -0.1632
  140MOL    C3933677   0.104   5.573   4.746 -0.6280  0.8774  0.0370
  140MOL    O4033678   0.219   5.546   4.829 -0.3818 -0.0241  0.3941
  140MOL    C4133679   0.204   5.546   4.961  0.3432 -0.2145 -0.3749
  140MOL    C4233680   0.344   5.546   5.034  0.1603  0.5209 -0.1300
  140MOL    O4333681   0.097   5.542   5.025 -0.3445 -0.7811 -0.1470
  140MOL    H4433682   0.179   5.443   4.593  0.3147 -1.4043 -0.2087
  140MOL    H4533683   0.011   5.494   4.566  0.0696  2.0018  1.1919
  140MOL    H4633684   0.015   5.598   4.804 -0.9292 -0.1282  0.0115
  140MOL    H4733685   0.375   5.650   5.043  0.8131  0.2768  0.4922
  140MOL    H4833686   0.411   5.485   4.973  0.0553 -0.1290  0.3863
  140MOL    H4933687   0.339   5.499   5.133  1.8313  0.6390  0.0193
  140MOL    C5033688   0.150   5.700   4.670  0.5894 -0.3466  0.2959
  140MOL    C5133689   0.038   5.767   4.583  0.4819  0.3144  0.1333
  140MOL    O5233690   7.997   5.855   4.673  0.2680 -0.1346 -0.1436
  140MOL    C5333691   7.870   5.815   4.727 -0.0498  1.0243 -0.3901
  140MOL    C5433692   7.809   5.907   4.828 -0.4074 -0.6059  0.1374
  140MOL    O5533693   7.817   5.715   4.699 -0.4353  0.1163  0.2138
  140MOL    H5633694   0.193   5.768   4.743 -1.0656  1.8266 -0.6774
  140MOL    H5733695   0.229   5.661   4.606 -0.9609  1.3278 -2.8076
  140MOL    H5833696   7.988   5.696   4.541  2.2918 -1.6939  0.3555
  140MOL    H5933697   7.701   5.916   4.820 -0.2396  0.2269 -1.2297
  140MOL    H6033698   7.854   6.006   4.828 -0.1518 -0.6903  2.0681
  140MOL    H6133699   7.844   5.854   4.917 -0.0706  0.5355  0.7020
  140MOL    C6233700   0.100   5.838   4.461  0.6275  0.4499 -0.4939
  140MOL    C6333701   8.021   5.880   4.357 -0.2969  0.4461  0.5206
  140MOL    O6433702   7.940   5.984   4.413  0.1621  0.2901  0.3633
  140MOL    C6533703   7.810   5.981   4.399 -0.0504 -0.0986 -0.4406
  140MOL    C6633704   7.745   6.096   4.476 -0.1243  0.2745 -0.1846
  140MOL    O6733705   7.751   5.891   4.334 -0.1224 -0.6684 -0.4404
  140MOL    H6833706   0.153   5.929   4.487 -3.0884  2.5511  0.0393
  140MOL    H6933707   0.163   5.761   4.416 -0.2691 -1.2520  1.1099
  140MOL    H7033708   7.964   5.794   4.324  2.1712 -1.0063 -0.1290
  140MOL    H7133709   7.798   6.114   4.570  1.4841  3.7702 -1.6730
  140MOL    H7233710   7.638   6.097   4.494 -0.2294  0.8210 -0.8363
  140MOL    H7333711   7.758   6.193   4.429 -0.7318  1.9100  2.8889
  140MOL    C7433712   0.066   5.934   4.225 -1.0998  0.0868  1.5473
  140MOL    C7533713   0.153   5.829   4.157  0.1035 -0.4278 -0.5812
  140MOL    O7633714   0.145   5.852   4.019  0.3107 -0.1953 -0.1523
  140MOL    C7733715   0.038   5.805   3.952  0.0472  0.5256 -0.2365
  140MOL    C7833716   0.053   5.835   3.806  0.5488  0.0712  0.6902
  140MOL    O7933717   7.964   5.744   4.002  0.3053 -1.0036  0.5294
  140MOL    H8033718   8.010   5.964   4.155  3.2712  0.0262 -3.6349
  140MOL    H8133719   0.127   6.023   4.243  0.1859 -1.2550  4.1291
  140MOL    H8233720   0.106   5.732   4.174 -0.0295 -0.1036  1.0341
  140MOL    H8333721   0.151   5.815   3.763  0.6615 -1.8653  1.7885
  140MOL    H8433722   0.029   5.939   3.785 -0.2794  0.0121  1.3340
  140MOL    H8533723   8.007   5.773   3.747 -0.0557  1.5027 -0.1511
  140MOL    C8633724   0.301   5.847   4.201  0.6049 -0.8413 -0.0515
  140MOL    C8733725   0.381   5.724   4.181  0.3470 -0.6010 -0.4528
  140MOL    O8833726   0.522   5.761   4.185 -0.0204 -0.5436 -0.4866
  140MOL    C8933727   0.574   5.819   4.082  0.2880  0.7888 -0.5157
  140MOL    C9033728   0.716   5.865   4.095 -0.0149  0.0804  0.5537
  140MOL    O9133729   0.517   5.827   3.971  0.0684 -0.1797  0.3107
  140MOL    H9233730   0.336   5.924   4.132  0.7550 -0.3288  0.5971
  140MOL    H9333731   0.295   5.882   4.303 -0.4731  2.1377 -1.0942
  140MOL    H9433732   0.341   5.671   4.094 -1.7308 -2.0276  1.3104
  140MOL    H9533733   0.788   5.791   4.128  1.6938  1.2899 -0.4300
  140MOL    H9633734   0.714   5.942   4.173 -0.8706 -0.5017  1.1193
  140MOL    H9733735   0.745   5.898   3.995 -1.8221 -0.8901 -0.3157
  140MOL    C9833736   0.352   5.624   4.297  0.3603  0.2560 -0.2501
  140MOL    C9933737   0.419   5.485   4.293  0.6419 -0.6767  0.0125
  140MOL   O10033738   0.411   5.442   4.433  0.6241  0.3481 -0.1388
  140MOL   C10133739   0.520   5.469   4.511 -0.0667  0.8047  0.9924
  140MOL   C10233740   0.496   5.429   4.658  0.3752  0.2328 -0.2893
  140MOL   O10333741   0.622   5.525   4.473  0.0084  0.3999 -0.8099
  140MOL   H10433742   0.382   5.663   4.394 -0.1577  0.7236 -0.2757
  140MOL   H10533743   0.246   5.599   4.288  0.3322 -0.9096  2.7114
  140MOL   H10633744   0.521   5.502   4.260  0.3232 -0.0826 -0.6851
  140MOL   H10733745   0.416   5.355   4.658  0.5365 -0.0147 -3.6464
  140MOL   H10833746   0.463   5.515   4.717  1.1897  1.1029 -1.0855
  140MOL   H10933747   0.586   5.381   4.697 -2.3061 -3.9210  1.1202
  140MOL   C11033748   0.360   5.364   4.208 -0.2286  0.5324  0.4851
  140MOL   C11133749   0.323   5.393   4.068  0.0450  0.8283  0.6056
  140MOL   O11233750   0.441   5.446   4.012 -0.0668 -0.3386  0.2085
  140MOL   C11333751   0.422   5.525   3.908 -0.3801  0.4489 -0.8078
  140MOL   C11433752   0.553   5.534   3.827  0.4936 -0.5638  0.9188
  140MOL   O11533753   0.314   5.559   3.863 -0.1196  0.7134 -0.0803
  140MOL   H11633754   0.430   5.282   4.194 -0.7301  0.2140 -0.1551
  140MOL   H11733755   0.274   5.321   4.259  1.0186  0.0428  2.2590
  140MOL   H11833756   0.241   5.465   4.073 -0.6328  0.0327  1.0797
  140MOL   H11933757   0.579   5.639   3.810 -1.6518 -0.4584 -1.9007
  140MOL   H12033758   0.546   5.481   3.732 -1.1724 -0.7465  1.1323
  140MOL   H12133759   0.644   5.497   3.877  0.1121  0.7075  2.6124
  140MOL   C12233760   0.277   5.272   3.989 -0.0190  0.2452 -0.3135
  140MOL   C12333761   0.148   5.214   4.040 -0.6014 -0.6313 -0.4344
  140MOL   O12433762   0.028   5.290   4.025  1.1123 -0.0840  0.1366
  140MOL   C12533763   8.005   5.371   4.130  1.5909  0.7014  0.0188
  140MOL   C12633764   7.880   5.452   4.091 -0.3845 -0.2552 -0.1100
  140MOL   O12733765   0.036   5.383   4.240 -0.3021 -0.3120  0.2287
  140MOL   H12833766   0.269   5.290   3.882  0.7331 -0.9632 -0.5799
  140MOL   H12933767   0.359   5.203   4.008  0.2207  1.0978  1.9868
  140MOL   H13033768   0.154   5.182   4.144 -0.9831 -0.2122 -0.2853
  140MOL   H13133769   7.796   5.383   4.101 -1.4651  1.0928  0.2989
  140MOL   H13233770   7.897   5.477   3.987  0.0616  0.7497  0.1965
  140MOL   H13333771   7.867   5.540   4.154 -0.6053 -0.3496 -0.0234
  140MOL   C13433772   0.128   5.074   3.967  0.0866  0.2108  0.3226
  140MOL   C13533773   0.051   4.972   4.054  0.2516  1.1656  0.2848
  140MOL   O13633774   7.946   5.034   4.079 -0.7150 -0.4990 -0.1847
  140MOL   C13733775   7.891   5.007   4.194 -0.7918  0.2871 -0.6295
  140MOL   C13833776   7.785   5.110   4.227 -0.3085 -0.7344 -0.3768
  140MOL   O13933777   7.908   4.910   4.265 -0.2092  0.0988 -0.5863
  140MOL   H14033778   0.076   5.084   3.871  0.9312  0.4397 -0.1167
  140MOL   H14133779   0.222   5.032   3.930  0.9899  4.5996 -2.7815
  140MOL   H14233780   0.105   4.951   4.146  0.2205 -0.5698 -0.0910
  140MOL   H14333781   7.696   5.062   4.268 -0.6025  1.2362  1.3861
  140MOL   H14433782   7.755   5.172   4.142  1.2497 -0.1180 -0.5010
  140MOL   H14533783   7.823   5.174   4.306 -0.7972 -0.2068 -0.5682
  140MOL   C14633784   0.039   4.825   3.997  1.3969 -0.0261  0.2664
  140MOL   C14733785   0.176   4.751   4.008  0.1543 -0.1384 -0.5077
  140MOL   O14833786   0.199   4.707   4.136  0.4101 -0.8735 -0.0469
  140MOL   C14933787   0.278   4.777   4.213 -0.0930  0.0129  0.5860
  140MOL   C15033788   0.278   4.718   4.352 -0.0831 -0.1134 -0.3549
  140MOL   O15133789   0.356   4.864   4.187  0.4971  0.4034 -0.1277
  140MOL   H15233790   7.991   4.764   4.055  0.0665  1.3654  0.1620
  140MOL   H15333791   0.001   4.840   3.896 -0.9666  0.4647  1.2113
  140MOL   H15433792   0.260   4.815   3.982 -0.5602  0.6236 -0.9479
  140MOL   H15533793   0.325   4.620   4.345 -0.9233 -0.4164 -2.0039
  140MOL   H15633794   0.179   4.697   4.392 -0.1273  1.6728  0.5430
  140MOL   H15733795   0.327   4.787   4.421 -3.5374  0.7923  1.2711
  140MOL   C15833796   0.175   4.617   3.936 -0.0094  0.0059 -0.1918
  140MOL   C15933797   0.316   4.568   3.891  0.0567 -0.5744  0.2696
  140MOL   O16033798   0.306   4.436   3.867  0.2885  0.4961 -0.2209
  140MOL   C16133799   0.384   4.340   3.938 -0.4699  0.0705 -0.2701
  140MOL   C16233800   0.349   4.199   3.901  0.0582 -0.1610  0.3650
  140MOL   O16333801   0.484   4.367   4.003 -0.3764 -0.3011 -0.4551
  140MOL   H16433802   0.133   4.543   4.004 -0.8246 -0.6015 -1.3400
  140MOL   H16533803   0.105   4.621   3.852 -1.4559  0.5897  1.0180
  140MOL   H16633804   0.390   4.600   3.964 -1.9960  1.4882  1.5169
  140MOL   H16733805   0.360   4.135   3.989  0.2248  0.4034  0.7525
  140MOL   H16833806   0.414   4.159   3.823 -0.5595 -3.8756  1.6257
  140MOL   H16933807   0.252   4.197   3.852  0.5015 -0.0551 -0.5108
  140MOL   C17033808   0.357   4.647   3.769  0.2666  0.4445  0.4598
  140MOL   C17133809   0.505   4.642   3.724 -0.1451  0.0798  0.0038
  140MOL   O17233810   0.534   4.514   3.681 -0.2319  0.6931  0.0476
  140MOL   C17333811   0.647   4.454   3.715 -0.3966 -0.4490 -0.5871
  140MOL   C17433812   0.654   4.312   3.674  0.2576 -0.0526  0.4444
  140MOL   O17533813   0.743   4.508   3.774 -0.2835 -0.8191  0.4275
  140MOL   H17633814   0.301   4.627   3.678  1.1011 -0.1698  0.0735
  140MOL   H17733815   0.334   4.753   3.783 -1.4004  0.0415  0.8199
  140MOL   H17833816   0.563   4.681   3.808  1.5437  0.5060 -1.3254
  140MOL   H17933817   0.753   4.268   3.676  0.7508  1.0359  0.1560
  140MOL   H18033818   0.625   4.291   3.571 -0.2004 -2.2846  0.9857
  140MOL   H18133819   0.585   4.256   3.738 -2.2179  1.3961 -0.8816
  140MOL   C18233820   0.520   4.733   3.593  0.6219 -0.5837 -0.6399
  140MOL   C18333821   0.661   4.763   3.536  0.2155  0.4304 -0.2759
  140MOL   O18433822   0.646   4.823   3.411 -0.4624 -0.6507  0.0064
  140MOL   C18533823   0.647   4.747   3.302 -0.4408  0.2331 -0.2800
  140MOL   C18633824   0.667   4.843   3.183  0.3617 -0.2997 -0.0610
  140MOL   O18733825   0.633   4.625   3.295  0.6835 -0.4668  0.0671
  140MOL   H18833826   0.460   4.683   3.518  1.4366  0.2186 -1.8405
  140MOL   H18933827   0.477   4.831   3.613 -0.4402 -1.1012 -0.3466
  140MOL   H19033828   0.713   4.668   3.522 -0.7684  0.0856 -1.7155
  140MOL   H19133829   0.663   4.803   3.082 -1.3110 -1.6517  0.5203
  140MOL   H19233830   0.768   4.881   3.195  0.0761  0.6929 -0.6955
  140MOL   H19333831   0.587   4.918   3.182  0.2599 -0.4200 -0.8311
  140MOL   C19433832   0.749   4.850   3.623  0.1190 -0.5515  0.9165
  140MOL   C19533833   0.894   4.864   3.562 -0.8263 -0.3010 -0.6802
  140MOL   O19633834   0.966   4.974   3.624 -0.6545  0.9193  0.1358
  140MOL   C19733835   0.960   5.096   3.577  0.6923 -0.1108  0.4526
  140MOL   C19833836   1.074   5.175   3.635 -1.0510  0.0718 -0.0189
  140MOL   O19933837   0.878   5.141   3.498  0.3579 -0.0016 -0.0294
  140MOL   H20033838   0.699   4.947   3.629  0.0552 -0.6857  3.0090
  140MOL   H20133839   0.751   4.826   3.729  0.4521  1.6437  1.4439
  140MOL   H20233840   0.896   4.885   3.455  1.6643  1.2268 -0.3774
  140MOL   H20333841   1.073   5.178   3.744  2.3507 -0.0858  0.0704
  140MOL   H20433842   1.065   5.280   3.608  1.5526  0.8100  1.7195
  140MOL   H20533843   1.175   5.149   3.601 -0.7467  3.5757 -2.0079
  140MOL   C20633844   0.992   4.742   3.559  0.4102  0.2053  0.1715
  140MOL   C20733845   1.099   4.750   3.448 -0.1410  0.4977  0.5670
  140MOL   O20833846   1.044   4.718   3.321  0.0544 -0.4058 -0.5340
  140MOL   C20933847   1.029   4.589   3.288  0.4613  1.2739 -0.0156
  140MOL   C21033848   0.933   4.564   3.171 -0.5128  0.5385 -0.6600
  140MOL   O21133849   1.075   4.489   3.351  0.2443 -0.4484 -0.1975
  140MOL   H21233850   1.033   4.730   3.659 -2.7722  2.1800  1.8244
  140MOL   H21333851   0.936   4.649   3.546  2.0116 -0.8265  0.4662
  140MOL   H21433852   1.167   4.668   3.470  0.4690  0.7713 -0.2691
  140MOL   H21533853   0.906   4.661   3.129 -0.2836  1.3487  1.0653
  140MOL   H21633854   0.841   4.511   3.194 -1.1342  2.6916  2.0252
  140MOL   H21733855   0.990   4.503   3.100 -0.8657 -1.1269  0.4572
  140MOL   C21833856   1.198   4.869   3.449  0.4638  0.3981  0.2647
  140MOL   C21933857   1.331   4.864   3.372 -0.0413  0.1053  0.1322
  140MOL   O22033858   1.279   4.889   3.235  0.2686 -0.4371  0.0377
  140MOL   C22133859   1.297   4.789   3.154  0.4015 -0.4883 -0.7272
  140MOL   C22233860   1.248   4.824   3.020 -0.2801  0.3981 -0.3001
  140MOL   O22333861   1.354   4.681   3.178 -0.3490 -0.6126 -0.1161
  140MOL   H22433862   1.158   4.965   3.414 -0.5238 -0.6160 -1.5033
  140MOL   H22533863   1.221   4.884   3.554  0.2040 -2.2103  0.7233
  140MOL   H22633864   1.380   4.768   3.386 -0.6174 -0.2948 -0.5718
  140MOL   H22733865   1.161   4.761   3.010  0.9022 -1.5051  1.0383
  140MOL   H22833866   1.322   4.787   2.949 -0.3145 -1.1949  0.4807
  140MOL   H22933867   1.226   4.931   3.012 -0.4453  0.2826 -1.3674
  140MOL   C23033868   1.424   4.980   3.418 -0.6530  0.1546  0.3857
  140MOL   C23133869   1.565   4.968   3.357 -0.4869 -0.2922 -0.2942
  140MOL   O23233870   1.637   5.076   3.416  0.2588  0.0746  0.0608
  140MOL   C23333871   1.767   5.065   3.456  0.7995 -0.3163 -0.0983
  140MOL   C23433872   1.797   5.197   3.537 -0.2861 -0.0562  0.0647
  140MOL   O23533873   1.839   4.966   3.444  0.4112  0.4743 -0.1647
  140MOL   H23633874   1.387   5.083   3.417 -0.3846  0.2561  0.7853
  140MOL   H23733875   1.435   4.964   3.525 -0.1075 -0.4491  0.2416
  140MOL   H23833876   1.544   4.971   3.250  0.4883 -0.0161 -0.4889
  140MOL   H23933877   1.709   5.260   3.542  0.5275  1.1268 -0.2592
  140MOL   H24033878   1.870   5.249   3.476  1.0868 -0.4896  1.2918
  140MOL   H24133879   1.834   5.180   3.639 -0.3557 -0.9796 -0.0562
  140MOL   H24233880   1.613   4.874   3.383 -0.2781 -0.2057 -0.3669
  141MOL     C133881   3.980   0.501   1.853  0.3416 -0.8509  0.0717
  141MOL     C233882   3.918   0.593   1.744 -0.5712 -0.8956 -0.5087
  141MOL     O333883   4.031   0.628   1.658  1.1596 -0.1284  0.1738
  141MOL     C433884   4.073   0.756   1.662 -0.4376  0.9626 -0.4546
  141MOL     C533885   4.166   0.789   1.545  0.0347 -0.3905 -0.0210
  141MOL     O633886   4.049   0.833   1.748  0.0047  0.1308 -0.4326
  141MOL     H733887   4.024   0.413   1.807  0.5136 -0.0963 -1.2347
  141MOL     H833888   3.907   0.458   1.922 -0.6147  0.6291  0.0071
  141MOL     H933889   3.879   0.671   1.809  1.6814 -0.3658  0.2691
  141MOL    H1033890   4.254   0.832   1.593 -0.2062 -0.8356  0.8317
  141MOL    H1133891   4.140   0.878   1.488  2.0126  0.6034  0.6026
  141MOL    H1233892   4.200   0.703   1.487 -2.8547 -1.4285 -0.2601
  141MOL    H1333893   4.050   0.555   1.916  0.6683  0.3337 -1.2814
  141MOL    C1433894   3.807   0.530   1.662  0.3722 -0.6268 -0.3818
  141MOL    C1533895   3.749   0.621   1.551 -0.5157  0.4972 -0.5687
  141MOL    O1633896   3.642   0.556   1.481  0.0205 -0.1027  0.0677
  141MOL    C1733897   3.667   0.465   1.389  0.2065 -0.0900 -1.1066
  141MOL    C1833898   3.542   0.441   1.303  0.0881  0.8290 -0.5277
  141MOL    O1933899   3.777   0.412   1.367  0.1608 -0.5015  0.2385
  141MOL    H2033900   3.846   0.440   1.614  0.0761 -0.8615 -0.1832
  141MOL    H2133901   3.724   0.501   1.726 -0.1089 -1.9426 -1.5831
  141MOL    H2233902   3.827   0.648   1.480  0.8508  2.9119  1.7870
  141MOL    H2333903   3.504   0.539   1.275  1.3449  1.8695  1.3542
  141MOL    H2433904   3.459   0.397   1.358  0.4503  0.9791  0.1388
  141MOL    H2533905   3.561   0.377   1.216  1.8936  0.9569 -0.2327
  141MOL    C2633906   3.698   0.755   1.609 -0.1939  0.9766 -0.6160
  141MOL    C2733907   3.662   0.861   1.506 -0.0263  0.0176  0.2412
  141MOL    O2833908   3.593   0.964   1.572 -0.4651  0.5752 -0.3614
  141MOL    C2933909   3.471   1.000   1.527  0.1846 -0.3166 -0.1833
  141MOL    C3033910   3.419   1.113   1.613  0.5635 -0.0201  0.1709
  141MOL    O3133911   3.396   0.941   1.447 -0.0939  0.6113  0.3314
  141MOL    H3233912   3.617   0.731   1.677 -0.1479 -1.1187 -1.2701
  141MOL    H3333913   3.775   0.799   1.672 -0.0761  1.2057 -0.9175
  141MOL    H3433914   3.593   0.813   1.436  2.5659 -0.8939 -1.7637
  141MOL    H3533915   3.485   1.200   1.608  0.1745  0.3442  1.3421
  141MOL    H3633916   3.408   1.084   1.717  1.5544 -2.0356 -0.2449
  141MOL    H3733917   3.320   1.134   1.572  0.1488 -0.2326  1.0586
  141MOL    C3833918   3.778   0.918   1.413  0.1211 -1.0258  0.3748
  141MOL    C3933919   3.735   1.033   1.314  0.2752  0.6225 -0.1830
  141MOL    O4033920   3.729   1.158   1.379 -0.1436 -0.2654 -0.1057
  141MOL    C4133921   3.649   1.256   1.336 -0.0937  0.2757 -0.7519
  141MOL    C4233922   3.659   1.385   1.417  0.4623  0.6184 -0.9608
  141MOL    O4333923   3.561   1.247   1.254 -0.8910 -0.0437  0.1898
  141MOL    H4433924   3.867   0.951   1.466 -1.8046  1.0537  2.4322
  141MOL    H4533925   3.818   0.830   1.363 -0.0125  0.1206 -1.8146
  141MOL    H4633926   3.638   0.996   1.283  1.4001 -0.8368 -2.0860
  141MOL    H4733927   3.758   1.429   1.411  0.4569  0.6367 -0.9203
  141MOL    H4833928   3.637   1.372   1.523 -1.9795  0.4927 -1.4592
  141MOL    H4933929   3.587   1.462   1.387  0.0002  0.9482  0.9030
  141MOL    C5033930   3.824   1.036   1.200  0.0007 -0.1390  0.2486
  141MOL    C5133931   3.819   0.924   1.096  0.1348  0.1533 -0.3393
  141MOL    O5233932   3.697   0.929   1.033 -0.0036  0.4472  0.3670
  141MOL    C5333933   3.602   0.849   1.073 -0.8153  0.0781 -1.1332
  141MOL    C5433934   3.474   0.868   0.999 -0.6243  0.1322 -0.5202
  141MOL    O5533935   3.618   0.756   1.161 -0.0040  0.6678 -0.1089
  141MOL    H5633936   3.801   1.126   1.143  2.3332  0.9016  0.8992
  141MOL    H5733937   3.927   1.045   1.234  0.2034 -0.1988 -0.3447
  141MOL    H5833938   3.839   0.825   1.137 -1.9595  0.4649  1.5298
  141MOL    H5933939   3.484   0.805   0.911 -0.7227 -0.6240  0.0067
  141MOL    H6033940   3.470   0.972   0.967  0.6019 -0.7396 -3.5952
  141MOL    H6133941   3.384   0.842   1.056 -0.2481 -1.4169 -0.6232
  141MOL    C6233942   3.928   0.936   0.988  0.4099  0.2640  0.4050
  141MOL    C6333943   4.051   0.848   1.027 -0.3508  0.4894  0.2540
  141MOL    O6433944   4.016   0.713   1.014  0.7108  0.0174  0.0771
  141MOL    C6533945   4.034   0.623   1.103  0.3617  0.4344 -0.2631
  141MOL    C6633946   4.012   0.476   1.057  0.4876  0.1482 -0.1576
  141MOL    O6733947   4.068   0.648   1.221  0.3967  0.5255  0.1984
  141MOL    H6833948   3.904   0.916   0.883 -0.8304  3.2905  0.0723
  141MOL    H6933949   3.962   1.039   0.992  3.0079 -0.5341  0.0348
  141MOL    H7033950   4.064   0.860   1.135  3.0214  0.9177 -0.1348
  141MOL    H7133951   4.106   0.422   1.071 -0.5270 -1.4742  0.5274
  141MOL    H7233952   3.969   0.474   0.956 -2.4873 -0.0625  1.0697
  141MOL    H7333953   3.932   0.433   1.117 -0.2831 -0.4071 -1.5477
  141MOL    C7433954   4.182   0.872   0.945 -0.0777 -0.1348 -0.3924
  141MOL    C7533955   4.252   1.006   0.989  0.2727  0.1186  0.5330
  141MOL    O7633956   4.346   0.983   1.091  0.1512 -0.5392  0.3099
  141MOL    C7733957   4.317   1.009   1.217 -0.4177 -0.5854 -0.0539
  141MOL    C7833958   4.435   0.978   1.313  0.0088 -0.2032  0.1090
  141MOL    O7933959   4.215   1.063   1.259 -0.2707 -0.1095 -0.4079
  141MOL    H8033960   4.249   0.787   0.946 -0.0634 -0.1197  0.1109
  141MOL    H8133961   4.154   0.870   0.840 -2.7229 -2.6147  0.2979
  141MOL    H8233962   4.190   1.093   1.011  1.7555  1.0981  0.9945
  141MOL    H8333963   4.511   1.056   1.303 -0.3489 -0.0314 -1.5280
  141MOL    H8433964   4.482   0.889   1.270  1.0720  1.4474 -2.2868
  141MOL    H8533965   4.401   0.959   1.414  2.6923  1.7042  1.4227
  141MOL    C8633966   4.343   1.062   0.870 -0.1127  0.4208 -0.2128
  141MOL    C8733967   4.267   1.112   0.747  0.1925  0.9404 -0.0844
  141MOL    O8833968   4.179   1.221   0.786  0.0551  0.0827  0.6897
  141MOL    C8933969   4.044   1.210   0.760  0.4364  0.0866 -1.2108
  141MOL    C9033970   3.972   1.343   0.781  0.0567  0.1895  0.0395
  141MOL    O9133971   3.983   1.122   0.707  0.1378 -0.5885  0.1560
  141MOL    H9233972   4.420   1.134   0.897  0.6653 -1.2527  2.1943
  141MOL    H9333973   4.408   0.985   0.827 -2.0089 -0.1144 -2.2428
  141MOL    H9433974   4.209   1.026   0.713 -0.3477  1.1015  0.4143
  141MOL    H9533975   3.876   1.335   0.832 -0.3517  2.7644 -0.2508
  141MOL    H9633976   3.946   1.390   0.687  0.5784 -0.3090 -0.3577
  141MOL    H9733977   4.033   1.411   0.840 -0.6660 -0.3924  1.4904
  141MOL    C9833978   4.362   1.165   0.632 -0.5086  0.0646 -0.5193
  141MOL    C9933979   4.442   1.292   0.655  0.5718 -0.2223 -0.6222
  141MOL   O10033980   4.555   1.263   0.742  0.3459 -0.3829  0.7198
  141MOL   C10133981   4.591   1.354   0.826  0.2967 -0.1595 -0.5738
  141MOL   C10233982   4.704   1.301   0.921  0.1051  0.3191 -0.9698
  141MOL   O10333983   4.529   1.453   0.858  0.1759  0.5813  0.5533
  141MOL   H10433984   4.432   1.087   0.603  0.7987  1.5178 -1.3426
  141MOL   H10533985   4.294   1.173   0.547 -0.0684 -1.7829 -1.0591
  141MOL   H10633986   4.375   1.368   0.696  1.4357 -0.0891  0.5658
  141MOL   H10733987   4.804   1.318   0.879  0.2893 -0.4360 -0.8437
  141MOL   H10833988   4.688   1.193   0.914 -0.6210  0.3074  0.6628
  141MOL   H10933989   4.689   1.328   1.026  1.1110 -0.1486 -0.6915
  141MOL   C11033990   4.488   1.346   0.519 -0.1220  0.0916  0.0679
  141MOL   C11133991   4.532   1.496   0.512  0.1484 -0.0950  0.2072
  141MOL   O11233992   4.564   1.512   0.373 -0.0136 -0.1737  0.0988
  141MOL   C11333993   4.696   1.494   0.339 -0.4853 -0.4452 -0.3991
  141MOL   C11433994   4.721   1.477   0.188 -0.1065 -0.0286  0.4401
  141MOL   O11533995   4.789   1.503   0.416 -0.3804 -0.3644  0.1791
  141MOL   H11633996   4.580   1.292   0.496 -0.9398 -1.5476  0.6065
  141MOL   H11733997   4.418   1.317   0.441  0.3218 -3.2819  0.8410
  141MOL   H11833998   4.619   1.509   0.576  1.4079 -2.0229 -1.0863
  141MOL   H11933999   4.752   1.373   0.184  0.4362  0.1766 -1.2333
  141MOL   H12034000   4.809   1.534   0.157  1.1667 -2.0395  0.2330
  141MOL   H12134001   4.628   1.491   0.133  0.0702 -0.8243 -0.0663
  141MOL   C12234002   4.432   1.609   0.557  0.3242 -0.7841 -0.4177
  141MOL   C12334003   4.305   1.615   0.467  0.0294  1.0409  0.1897
  141MOL   O12434004   4.231   1.492   0.466 -0.2589 -0.8237  0.1077
  141MOL   C12534005   4.138   1.472   0.377  0.2070  0.2305 -0.0648
  141MOL   C12634006   4.097   1.319   0.364  0.4941 -0.4634 -0.3345
  141MOL   O12734007   4.082   1.555   0.316 -0.1848  0.9492  0.0404
  141MOL   H12834008   4.418   1.587   0.663  1.4760 -2.9502 -0.6847
  141MOL   H12934009   4.483   1.705   0.560 -1.6864  0.2810  1.6567
  141MOL   H13034010   4.331   1.633   0.363  2.3443  0.0264  0.5797
  141MOL   H13134011   4.170   1.267   0.302  2.9046  1.4889  0.7420
  141MOL   H13234012   3.995   1.303   0.330  0.0499  1.6986 -0.1280
  141MOL   H13334013   4.104   1.272   0.462 -1.3110 -1.6273 -0.7516
  141MOL   C13434014   4.212   1.739   0.514  0.3370  1.1090 -0.5601
  141MOL   C13534015   4.157   1.744   0.657  0.1926  0.2604 -0.0980
  141MOL   O13634016   4.257   1.770   0.753  1.1462  0.9198  0.0704
  141MOL   C13734017   4.340   1.867   0.758  0.3091 -0.1234  0.2818
  141MOL   C13834018   4.433   1.856   0.881 -0.5328  0.2370 -0.1892
  141MOL   O13934019   4.352   1.955   0.674 -0.0333 -0.4792  0.0563
  141MOL   H14034020   4.281   1.822   0.496  1.6992  0.3668  1.1472
  141MOL   H14134021   4.128   1.744   0.445  0.4135 -4.0726 -1.2136
  141MOL   H14234022   4.119   1.643   0.675 -0.1258  1.0398  4.0171
  141MOL   H14334023   4.535   1.872   0.847 -1.3748  2.7710 -1.6908
  141MOL   H14434024   4.441   1.753   0.915 -0.5435  0.2954 -0.0054
  141MOL   H14534025   4.398   1.927   0.956  1.1083  1.5119 -0.6035
  141MOL   C14634026   4.037   1.844   0.662  0.3078 -0.8880 -0.9021
  141MOL   C14734027   3.963   1.846   0.801 -0.1776  0.3180  0.5806
  141MOL   O14834028   3.846   1.926   0.783  0.3490 -0.0229 -0.2514
  141MOL   C14934029   3.841   2.045   0.833 -0.3803  0.1747 -0.3324
  141MOL   C15034030   3.702   2.109   0.837  0.5114 -0.5091  0.6603
  141MOL   O15134031   3.930   2.113   0.885 -0.0249 -0.5583  0.3669
  141MOL   H15234032   4.075   1.945   0.643  1.9486 -1.2872  0.1741
  141MOL   H15334033   3.967   1.817   0.583 -0.7262  0.2105 -0.3809
  141MOL   H15434034   4.033   1.894   0.870  0.2316  0.2517  0.2126
  141MOL   H15534035   3.633   2.038   0.884  0.7050 -1.7577 -0.8942
  141MOL   H15634036   3.668   2.130   0.736  0.1716  0.5576  0.9908
  141MOL   H15734037   3.686   2.205   0.887  0.4253 -0.1159 -0.1208
  141MOL   C15834038   3.910   1.713   0.865  0.1325 -0.2191 -0.1259
  141MOL   C15934039   3.865   1.726   1.007  0.1072 -0.0861  0.0570
  141MOL   O16034040   3.768   1.623   1.043 -0.2129 -0.2188 -0.6987
  141MOL   C16134041   3.634   1.653   1.054  0.2704  0.4410 -0.0722
  141MOL   C16234042   3.546   1.532   1.028 -0.2631 -0.4249  0.4407
  141MOL   O16334043   3.580   1.762   1.081  0.3870  0.4782 -0.5950
  141MOL   H16434044   3.832   1.682   0.795 -1.8400 -0.4729  2.1403
  141MOL   H16534045   3.981   1.631   0.852 -0.3878 -0.9979  1.9287
  141MOL   H16634046   3.811   1.821   1.005 -0.7355 -0.5918 -2.0219
  141MOL   H16734047   3.463   1.563   0.964  2.4305  4.3910 -0.9721
  141MOL   H16834048   3.504   1.508   1.125  1.6928 -0.7021  1.2249
  141MOL   H16934049   3.601   1.454   0.976  1.5259  1.8245 -1.1566
  141MOL   C17034050   3.985   1.740   1.105 -0.1985 -0.5211 -0.7896
  141MOL   C17134051   3.946   1.788   1.248 -0.3380  0.2523 -1.0634
  141MOL   O17234052   3.869   1.905   1.243 -0.3738 -0.2024  0.7174
  141MOL   C17334053   3.906   2.018   1.304  0.7888  0.6874 -0.2114
  141MOL   C17434054   3.813   2.132   1.266 -0.9328 -1.3638 -0.0004
  141MOL   O17534055   4.001   2.037   1.383 -0.5832 -0.1422  0.3775
  141MOL   H17634056   4.036   1.644   1.114  0.9248  0.2552  1.2372
  141MOL   H17734057   4.071   1.801   1.079 -0.8408  0.8008  0.1413
  141MOL   H17834058   4.040   1.808   1.300 -1.0840  1.6920 -0.2305
  141MOL   H17934059   3.858   2.186   1.182 -1.5932  0.0428  0.5282
  141MOL   H18034060   3.805   2.217   1.334  2.0920 -0.5676 -0.5316
  141MOL   H18134061   3.714   2.092   1.243 -1.4725  1.1192 -2.2792
  141MOL   C18234062   3.874   1.679   1.327  0.3052 -0.7739  0.3016
  141MOL   C18334063   3.913   1.683   1.481  0.0657 -0.4090  0.5553
  141MOL   O18434064   3.810   1.620   1.555  0.2239 -0.5829 -0.6294
  141MOL   C18534065   3.782   1.657   1.686 -0.5144  0.2298  0.5641
  141MOL   C18634066   3.660   1.585   1.739 -0.9080  0.2235 -0.6703
  141MOL   O18734067   3.841   1.743   1.750  0.6787 -0.0600 -0.2743
  141MOL   H18834068   3.766   1.685   1.316  0.3510 -0.7036 -0.0987
  141MOL   H18934069   3.892   1.579   1.288  0.2098 -0.8883  0.5465
  141MOL   H19034070   3.914   1.787   1.515  0.1153 -0.1519 -0.2149
  141MOL   H19134071   3.638   1.512   1.661 -0.9493  0.8928 -1.2887
  141MOL   H19234072   3.574   1.650   1.752 -0.8719  0.1497 -0.0097
  141MOL   H19334073   3.685   1.529   1.829 -2.1605  2.2003  0.9514
  141MOL   C19434074   4.050   1.621   1.509  0.0715 -1.0669  0.4196
  141MOL   C19534075   4.063   1.469   1.485 -0.0541 -0.5795 -0.2161
  141MOL   O19634076   4.124   1.459   1.357  0.3868  0.1367  0.1379
  141MOL   C19734077   4.082   1.385   1.251 -0.2825  0.1326  0.1918
  141MOL   C19834078   4.177   1.399   1.136 -0.3051 -0.9038 -0.3593
  141MOL   O19934079   3.972   1.329   1.234  0.3496 -0.0924 -0.4681
  141MOL   H20034080   4.123   1.685   1.461 -0.6259 -0.1983  0.4914
  141MOL   H20134081   4.053   1.644   1.616 -1.0791 -2.6666  0.8109
  141MOL   H20234082   3.959   1.437   1.486  0.0984 -1.1280 -1.2144
  141MOL   H20334083   4.204   1.505   1.139 -1.9999 -0.4252 -1.2223
  141MOL   H20434084   4.126   1.382   1.041 -0.5939  1.9307 -0.7790
  141MOL   H20534085   4.269   1.343   1.144 -1.9029 -3.3440  1.5819
  141MOL   C20634086   4.142   1.410   1.599 -0.2118  0.4349  0.8519
  141MOL   C20734087   4.151   1.257   1.615  0.1608 -0.1919 -0.0682
  141MOL   O20834088   4.223   1.230   1.731 -0.0607  0.5165  0.1417
  141MOL   C20934089   4.315   1.134   1.739 -1.0498 -0.3280 -0.3089
  141MOL   C21034090   4.377   1.130   1.881  0.5561 -0.3254  0.4826
  141MOL   O21134091   4.344   1.052   1.652 -0.3108 -0.2430 -0.4001
  141MOL   H21234092   4.241   1.453   1.584  0.9836 -1.8635  1.8811
  141MOL   H21334093   4.102   1.449   1.692  0.6963  1.9815  0.6166
  141MOL   H21434094   4.203   1.210   1.531  1.2298 -0.0169  0.4895
  141MOL   H21534095   4.348   1.226   1.923 -1.0413 -1.6586  2.5592
  141MOL   H21634096   4.484   1.116   1.864  0.8601  2.0815  0.2074
  141MOL   H21734097   4.334   1.059   1.951 -0.0852 -1.3905 -0.9531
  141MOL   C21834098   4.020   1.191   1.630  0.4436  0.5550  0.0390
  141MOL   C21934099   3.947   1.184   1.767  0.3762 -0.1068  0.2983
  141MOL   O22034100   3.930   1.316   1.824 -0.5146  0.3077  0.5395
  141MOL   C22134101   3.983   1.333   1.952 -0.8263  0.2638  0.1315
  141MOL   C22234102   3.990   1.475   1.980  0.7076  0.4199  0.1516
  141MOL   O22334103   4.013   1.248   2.038  0.4727  0.4466 -0.7934
  141MOL   H22434104   3.957   1.235   1.552 -1.8569  0.1822  1.6339
  141MOL   H22534105   4.021   1.089   1.591 -1.5747  0.3083  0.5770
  141MOL   H22634106   4.009   1.123   1.833  1.3160 -0.1774 -0.6294
  141MOL   H22734107   4.050   1.527   1.905  0.7083 -1.2991 -1.0664
  141MOL   H22834108   4.024   1.505   2.079 -0.3711  0.0780  0.6379
  141MOL   H22934109   3.886   1.507   1.968  0.2282 -1.1463  0.0571
  141MOL   C23034110   3.805   1.123   1.763  0.5491 -0.8185  0.1656
  141MOL   C23134111   3.731   1.109   1.900  0.1044  0.4754 -0.3326
  141MOL   O23234112   3.606   1.047   1.882  0.1440  0.5551  0.3779
  141MOL   C23334113   3.600   0.913   1.899  0.2280 -0.3064  0.4993
  141MOL   C23434114   3.461   0.865   1.872 -0.5182 -0.2519 -0.0769
  141MOL   O23534115   3.690   0.833   1.924  0.2886  0.1383  0.0209
  141MOL   H23634116   3.740   1.176   1.695 -0.5368 -0.7173  1.2655
  141MOL   H23734117   3.804   1.024   1.718  1.8126  0.3285 -2.4924
  141MOL   H23834118   3.713   1.201   1.955 -2.2105  0.2564 -0.6720
  141MOL   H23934119   3.385   0.924   1.923 -0.3501 -0.7015  0.6878
  141MOL   H24034120   3.460   0.757   1.885 -1.7291 -0.4189 -1.3609
  141MOL   H24134121   3.458   0.862   1.763 -3.1449 -4.5093  0.0060
  141MOL   H24234122   3.788   1.045   1.967  1.6448  1.3450 -0.7943
  142MOL     C134123   4.993   7.924   1.445 -0.3422  0.7335  0.0295
  142MOL     C234124   4.987   0.050   1.460  0.3463  0.1407  0.0834
  142MOL     O334125   4.966   0.083   1.600 -0.3221  0.1623 -0.0043
  142MOL     C434126   4.888   0.178   1.641  0.0402 -0.0846  0.4759
  142MOL     C534127   4.894   0.210   1.794  0.3698  0.0517 -0.2504
  142MOL     O634128   4.831   0.262   1.565  0.1112  0.1691 -0.1023
  142MOL     H734129   4.918   7.862   1.494  2.8135 -1.1730  2.6526
  142MOL     H834130   5.081   7.891   1.499 -1.1756  0.2333  1.1077
  142MOL     H934131   4.902   0.076   1.397  0.0660 -2.7276 -0.7907
  142MOL    H1034132   4.939   0.128   1.850 -0.5033 -0.1622  0.1361
  142MOL    H1134133   4.790   0.214   1.827  0.5222  1.8478  0.0286
  142MOL    H1234134   4.943   0.303   1.821  0.5615 -0.0498 -0.2399
  142MOL    H1334135   5.015   7.896   1.342 -1.9609  0.5952 -0.2982
  142MOL    C1434136   5.112   0.116   1.396 -0.4305  0.7440  0.2277
  142MOL    C1534137   5.113   0.267   1.402  0.0004 -0.4050 -0.0032
  142MOL    O1634138   5.241   0.307   1.352 -0.5092  0.1744 -0.0924
  142MOL    C1734139   5.359   0.278   1.422  0.1381 -0.0232 -0.5491
  142MOL    C1834140   5.488   0.326   1.355  0.6693 -0.2410 -0.1905
  142MOL    O1934141   5.365   0.228   1.535  0.1398 -0.1438 -0.0233
  142MOL    H2034142   5.198   0.074   1.448 -1.7032 -1.0305  0.9469
  142MOL    H2134143   5.125   0.081   1.294 -0.1364  0.4320  0.3732
  142MOL    H2234144   5.094   0.308   1.501 -0.3469  1.4051 -0.7908
  142MOL    H2334145   5.562   0.332   1.435 -0.0640 -0.2592  0.4969
  142MOL    H2434146   5.473   0.425   1.311 -2.7684 -0.3793  0.4961
  142MOL    H2534147   5.518   0.254   1.278  0.1985 -0.5658 -0.0707
  142MOL    C2634148   5.012   0.341   1.304  0.2743 -0.3959 -0.0612
  142MOL    C2734149   5.033   0.495   1.309 -0.7070  0.3311 -0.0348
  142MOL    O2834150   5.128   0.528   1.201  0.0325  0.1795  0.0159
  142MOL    C2934151   5.234   0.608   1.227  0.2556 -0.5366  0.5906
  142MOL    C3034152   5.322   0.634   1.109  0.5868 -0.0587 -0.0112
  142MOL    O3134153   5.265   0.647   1.335 -0.0818 -0.2470  0.4866
  142MOL    H3234154   5.018   0.304   1.202 -2.3396 -1.3088  0.0763
  142MOL    H3334155   4.909   0.323   1.334  0.3014  0.2485  0.4095
  142MOL    H3434156   5.069   0.537   1.403  0.7901  2.0283 -1.3156
  142MOL    H3534157   5.350   0.739   1.099 -1.6600  0.7776  1.9218
  142MOL    H3634158   5.278   0.593   1.018  2.2459  0.5243 -1.1079
  142MOL    H3734159   5.422   0.591   1.115  0.6948  0.3928  1.6751
  142MOL    C3834160   4.892   0.555   1.277 -0.2013 -1.1343  0.0786
  142MOL    C3934161   4.898   0.703   1.235 -0.2332  0.3301  0.4211
  142MOL    O4034162   4.774   0.724   1.177  0.3910  0.7423 -0.0985
  142MOL    C4134163   4.756   0.781   1.055  0.4990 -0.2308  0.5497
  142MOL    C4234164   4.613   0.796   1.004  0.3408 -0.2187  0.2772
  142MOL    O4334165   4.849   0.825   0.988  0.1553 -0.4420  0.7409
  142MOL    H4434166   4.849   0.483   1.207  1.9802 -3.2571  0.8340
  142MOL    H4534167   4.834   0.537   1.368  1.3620 -0.6028  1.1820
  142MOL    H4634168   4.968   0.703   1.151 -1.8741  3.1525 -0.9862
  142MOL    H4734169   4.544   0.733   1.061  0.5404  0.1609  0.9446
  142MOL    H4834170   4.617   0.750   0.906 -1.7644 -1.1728  0.6203
  142MOL    H4934171   4.576   0.899   1.004 -2.1417 -1.0605  1.2348
  142MOL    C5034172   4.932   0.800   1.347 -0.4077  0.0805  0.1544
  142MOL    C5134173   4.932   0.949   1.300  0.5092  0.5646  0.0002
  142MOL    O5234174   4.851   1.038   1.384  0.0872  0.5216 -0.4307
  142MOL    C5334175   4.760   1.117   1.331 -0.4649  0.0577  1.4820
  142MOL    C5434176   4.682   1.194   1.440 -0.6483 -0.5901 -0.5222
  142MOL    O5534177   4.747   1.138   1.212 -0.1631  0.0404  0.0369
  142MOL    H5634178   4.863   0.783   1.430 -1.8627 -3.2957 -1.6948
  142MOL    H5734179   5.031   0.774   1.384 -0.0060  0.7205 -0.4540
  142MOL    H5834180   4.890   0.956   1.200  1.3198 -1.6806 -0.5276
  142MOL    H5934181   4.754   1.244   1.504  0.5719 -1.9983 -0.7586
  142MOL    H6034182   4.631   1.127   1.510 -1.5215  1.2552  0.6226
  142MOL    H6134183   4.610   1.260   1.391  1.2656  1.8859 -0.0586
  142MOL    C6234184   5.078   1.002   1.281 -0.1272 -0.0042  0.3084
  142MOL    C6334185   5.121   1.096   1.398 -0.7999  0.3082 -0.3853
  142MOL    O6434186   5.144   1.007   1.503 -0.6693  0.2658 -0.2250
  142MOL    C6534187   5.107   1.025   1.627 -0.3617 -0.3668  0.4611
  142MOL    C6634188   5.144   0.916   1.715 -0.3895  0.2089 -0.3334
  142MOL    O6734189   5.033   1.118   1.671 -0.0710 -0.0846 -0.2421
  142MOL    H6834190   5.153   0.926   1.260  1.2766  0.9134  1.8891
  142MOL    H6934191   5.076   1.061   1.190 -0.9490 -1.0084 -0.3404
  142MOL    H7034192   5.040   1.164   1.422 -2.0419 -0.1480 -3.1490
  142MOL    H7134193   5.230   0.951   1.771 -0.1184  2.0886 -1.8700
  142MOL    H7234194   5.167   0.824   1.661 -0.2964 -0.6661  1.1821
  142MOL    H7334195   5.060   0.884   1.777 -1.8595  3.0710 -0.7769
  142MOL    C7434196   5.252   1.183   1.377  0.2435  0.5408  0.1189
  142MOL    C7534197   5.261   1.279   1.260 -0.6809  0.3264 -0.4758
  142MOL    O7634198   5.160   1.383   1.290  0.3070  0.1959 -0.4368
  142MOL    C7734199   5.039   1.375   1.228  0.5501  0.0087 -0.3546
  142MOL    C7834200   4.935   1.480   1.273 -0.0959 -0.5026 -0.3259
  142MOL    O7934201   5.003   1.297   1.140  0.0799  0.2246  0.5182
  142MOL    H8034202   5.273   1.242   1.466  1.5695 -0.4525  0.4788
  142MOL    H8134203   5.339   1.118   1.384  1.1835  1.4975 -2.1479
  142MOL    H8234204   5.240   1.218   1.172  1.9880  0.2128 -1.0799
  142MOL    H8334205   4.977   1.544   1.350 -0.7506 -0.8529  0.3319
  142MOL    H8434206   4.853   1.415   1.305 -0.6248  0.8386  1.1209
  142MOL    H8534207   4.899   1.539   1.188 -0.3210  0.5177  0.4686
  142MOL    C8634208   5.395   1.351   1.237  0.0270  0.3911 -1.0135
  142MOL    C8734209   5.426   1.399   1.089  0.2293  0.0315  0.0614
  142MOL    O8834210   5.310   1.456   1.030  0.2850 -0.1360 -0.2810
  142MOL    C8934211   5.249   1.395   0.934 -0.2902 -0.4011  0.4570
  142MOL    C9034212   5.130   1.476   0.898 -0.7305 -0.0197 -0.6147
  142MOL    O9134213   5.283   1.290   0.877 -0.4444 -0.1633 -0.2849
  142MOL    H9234214   5.408   1.437   1.302 -0.1877  2.1258 -3.2288
  142MOL    H9334215   5.480   1.290   1.269  0.3973  1.5673  0.2792
  142MOL    H9434216   5.451   1.306   1.038  0.6597 -0.1225  0.5424
  142MOL    H9534217   5.053   1.430   0.836 -2.8553 -0.3623  2.1811
  142MOL    H9634218   5.163   1.565   0.845  3.1990 -0.6917  0.5595
  142MOL    H9734219   5.076   1.501   0.990 -1.1607 -0.7901 -0.6441
  142MOL    C9834220   5.553   1.489   1.084 -0.3965 -0.1777 -0.0150
  142MOL    C9934221   5.604   1.502   0.943 -0.1992 -0.0270  0.2972
  142MOL   O10034222   5.506   1.586   0.876 -0.4268  0.1471  0.6247
  142MOL   C10134223   5.498   1.571   0.741  0.4192 -0.0302 -0.5622
  142MOL   C10234224   5.378   1.650   0.684 -0.6179  0.5901 -0.3553
  142MOL   O10334225   5.556   1.485   0.676 -0.3555 -0.4306 -0.1378
  142MOL   H10434226   5.525   1.587   1.122 -1.7155 -0.3678 -0.4665
  142MOL   H10534227   5.632   1.437   1.138 -1.9802 -2.5174  0.1481
  142MOL   H10634228   5.611   1.401   0.901  1.2151  0.5968 -1.0089
  142MOL   H10734229   5.404   1.727   0.611  0.0732  1.7925  1.1147
  142MOL   H10834230   5.311   1.693   0.758 -0.5717 -0.8097  0.5190
  142MOL   H10934231   5.315   1.587   0.621 -1.5340  1.2420 -0.1028
  142MOL   C11034232   5.744   1.567   0.947 -0.2168  0.4358  0.8665
  142MOL   C11134233   5.870   1.474   0.932 -0.2430  0.3621 -0.9420
  142MOL   O11234234   5.879   1.426   0.797  0.1460 -0.0556 -0.9761
  142MOL   C11334235   5.837   1.306   0.770  0.0340  0.0966 -0.4703
  142MOL   C11434236   5.842   1.281   0.623 -0.9104  0.3992 -0.0685
  142MOL   O11534237   5.791   1.222   0.851 -0.2194  0.0920  0.0937
  142MOL   H11634238   5.753   1.628   0.856  2.3727 -1.4960 -0.2265
  142MOL   H11734239   5.748   1.637   1.030  1.7210  2.0479 -0.5070
  142MOL   H11834240   5.862   1.387   0.998 -1.9411  0.6926 -0.6927
  142MOL   H11934241   5.941   1.247   0.594 -0.1920  0.6335  2.0728
  142MOL   H12034242   5.829   1.370   0.562 -1.3592  1.2938  1.3211
  142MOL   H12134243   5.773   1.199   0.601 -0.6952  0.1792  0.0692
  142MOL   C12234244   5.998   1.561   0.950  0.6912  0.2852  0.6855
  142MOL   C12334245   6.009   1.632   1.087  0.1278 -0.6769  0.7173
  142MOL   O12434246   6.141   1.609   1.135  0.3221  0.2181 -0.3963
  142MOL   C12534247   6.154   1.515   1.231  0.1800  0.1048  0.6337
  142MOL   C12634248   6.271   1.545   1.324  0.6360 -0.6861 -0.5261
  142MOL   O12734249   6.075   1.422   1.249 -0.5812  0.1239  0.4240
  142MOL   H12834250   6.078   1.489   0.940 -0.6295 -0.9019 -1.7049
  142MOL   H12934251   6.011   1.639   0.875 -2.1675  0.7463  0.5983
  142MOL   H13034252   5.937   1.575   1.145 -1.4796  0.9226  0.3566
  142MOL   H13134253   6.357   1.567   1.262 -0.2212  0.5160 -1.3146
  142MOL   H13234254   6.303   1.460   1.384  1.6528 -0.5753 -0.9057
  142MOL   H13334255   6.251   1.623   1.397  1.0631 -1.7934  0.7952
  142MOL   C13434256   5.984   1.778   1.087 -0.2371  0.0014 -0.3564
  142MOL   C13534257   5.929   1.850   1.210  0.1267  0.7143  0.4614
  142MOL   O13634258   5.796   1.810   1.242  0.3266  0.4138  0.1055
  142MOL   C13734259   5.690   1.894   1.238 -0.3511 -0.3037 -0.1984
  142MOL   C13834260   5.566   1.833   1.289 -0.1831 -0.2784  1.1890
  142MOL   O13934261   5.688   2.012   1.198  0.5191 -0.0757  0.7968
  142MOL   H14034262   6.074   1.826   1.050 -0.8595  1.6823  0.2641
  142MOL   H14134263   5.908   1.803   1.012 -0.8209 -1.1324 -0.1530
  142MOL   H14234264   5.935   1.957   1.190 -1.2038  0.7357  0.1139
  142MOL   H14334265   5.575   1.796   1.391 -1.0734 -0.5860  1.1617
  142MOL   H14434266   5.538   1.749   1.227 -1.8161  0.5386  0.8036
  142MOL   H14534267   5.494   1.914   1.301  0.0529  0.5925 -2.7190
  142MOL   C14634268   6.022   1.824   1.328  0.0564 -0.2941 -0.9059
  142MOL   C14734269   6.017   1.909   1.453  0.8794 -0.4515 -0.4159
  142MOL   O14834270   6.136   1.875   1.522 -0.3350  0.5784 -0.1016
  142MOL   C14934271   6.145   1.817   1.640 -0.3683 -0.4918  0.1123
  142MOL   C15034272   6.287   1.790   1.678  0.3040 -0.9329  0.6082
  142MOL   O15134273   6.051   1.807   1.721 -0.1225  0.3110  0.3792
  142MOL   H15234274   6.025   1.721   1.364  1.1688 -0.6809 -2.0794
  142MOL   H15334275   6.121   1.840   1.284 -0.4057 -0.7159 -2.0991
  142MOL   H15434276   5.932   1.874   1.512 -0.0496  2.0793 -0.1832
  142MOL   H15534277   6.339   1.700   1.646  0.1151 -1.1182  0.8274
  142MOL   H15634278   6.267   1.786   1.785 -2.4259  1.0141  0.2261
  142MOL   H15734279   6.353   1.876   1.665  0.0743 -0.7785  0.4577
  142MOL   C15834280   6.020   2.064   1.433 -0.6518 -0.0640  0.9403
  142MOL   C15934281   5.971   2.138   1.563 -0.7070  0.4498 -0.0584
  142MOL   O16034282   6.020   2.270   1.543  0.0614 -0.5983  0.3093
  142MOL   C16134283   6.131   2.315   1.604 -0.1247 -0.3282  1.0497
  142MOL   C16234284   6.166   2.460   1.563  0.4017 -0.1015  0.2882
  142MOL   O16334285   6.203   2.255   1.683  0.0759 -0.0783  0.1685
  142MOL   H16434286   6.124   2.092   1.419 -0.3815 -2.0743 -1.4120
  142MOL   H16534287   5.971   2.087   1.338 -1.0828 -0.0384  1.1695
  142MOL   H16634288   6.008   2.086   1.651 -0.6349 -0.2140 -0.4782
  142MOL   H16734289   6.105   2.472   1.473 -1.2957 -1.0035  1.2669
  142MOL   H16834290   6.269   2.470   1.531  0.5104 -0.2836  0.5815
  142MOL   H16934291   6.133   2.529   1.640  2.0546 -0.6621  1.5215
  142MOL   C17034292   5.815   2.141   1.582 -0.6436 -0.0031  0.0521
  142MOL   C17134293   5.764   2.024   1.683 -0.1505  0.1214  0.6656
  142MOL   O17234294   5.704   2.083   1.795  0.0748  0.0542  0.5368
  142MOL   C17334295   5.779   2.136   1.892  0.2207 -0.6566  0.0705
  142MOL   C17434296   5.696   2.140   2.021 -0.9769  0.7600 -0.1558
  142MOL   O17534297   5.897   2.175   1.883  0.1520 -0.0290 -0.3222
  142MOL   H17634298   5.796   2.238   1.628  0.2806  0.5957 -0.8078
  142MOL   H17734299   5.762   2.135   1.487 -2.5462 -1.8149  1.2093
  142MOL   H17834300   5.844   1.955   1.711  0.2483  0.6885  0.9570
  142MOL   H17934301   5.593   2.173   2.011 -2.1493 -2.2477  1.2401
  142MOL   H18034302   5.738   2.185   2.111  1.3063 -0.0462 -0.7725
  142MOL   H18134303   5.698   2.038   2.062 -0.2822  0.3475 -1.2059
  142MOL   C18234304   5.660   1.931   1.625 -0.6841  0.4745 -0.8240
  142MOL   C18334305   5.632   1.795   1.694  0.2425  0.1528  0.1096
  142MOL   O18434306   5.743   1.710   1.703 -0.1286  0.3356  0.0085
  142MOL   C18534307   5.781   1.626   1.603  1.0391 -0.1464  0.3575
  142MOL   C18634308   5.907   1.536   1.640 -0.7288  0.3546 -0.4100
  142MOL   O18734309   5.733   1.620   1.489 -0.6380  0.0496 -0.3164
  142MOL   H18834310   5.567   1.986   1.616 -2.3634 -1.6802  2.2989
  142MOL   H18934311   5.691   1.911   1.523 -0.1749 -1.6554 -0.2734
  142MOL   H19034312   5.556   1.752   1.629  1.0067  1.4995 -1.7516
  142MOL   H19134313   5.973   1.537   1.554 -0.6362  2.2523 -0.3535
  142MOL   H19234314   5.872   1.434   1.655 -1.7065  0.5054 -1.6262
  142MOL   H19334315   5.956   1.561   1.734  1.2215  0.8716 -1.5492
  142MOL   C19434316   5.579   1.804   1.843  0.6596  0.0045  0.0352
  142MOL   C19534317   5.517   1.676   1.912 -1.0373 -0.3846 -0.5310
  142MOL   O19634318   5.494   1.724   2.043 -0.2636  0.8573 -0.2137
  142MOL   C19734319   5.592   1.708   2.141  1.1893  0.3963 -0.3715
  142MOL   C19834320   5.560   1.803   2.259 -0.1901  0.4573  0.3247
  142MOL   O19934321   5.703   1.651   2.139  0.1072  0.4500 -0.4979
  142MOL   H20034322   5.663   1.837   1.904  2.3920 -2.3128 -0.9921
  142MOL   H20134323   5.510   1.887   1.857  1.6632  0.5437  1.9212
  142MOL   H20234324   5.596   1.602   1.922 -2.3053 -1.7305 -0.2442
  142MOL   H20334325   5.570   1.908   2.231  2.1930  0.2637  0.3423
  142MOL   H20434326   5.617   1.793   2.352 -2.7138 -0.8935  1.7835
  142MOL   H20534327   5.459   1.773   2.286 -0.4791  1.2404  0.1175
  142MOL   C20634328   5.388   1.611   1.862  0.7972 -0.1293  0.9380
  142MOL   C20734329   5.403   1.519   1.736  0.2027  0.2082  0.3047
  142MOL   O20834330   5.488   1.406   1.768  0.2696  0.7371  0.3400
  142MOL   C20934331   5.548   1.337   1.668 -0.2323 -0.1655 -0.3157
  142MOL   C21034332   5.640   1.228   1.713 -0.3153 -0.1429  0.7188
  142MOL   O21134333   5.536   1.352   1.545 -0.1582  0.0520  0.5332
  142MOL   H21234334   5.350   1.545   1.939 -1.0750 -1.7050 -1.2563
  142MOL   H21334335   5.310   1.685   1.843  0.8917  0.0183  1.1210
  142MOL   H21434336   5.453   1.574   1.656  0.0168 -2.7756 -2.0074
  142MOL   H21534337   5.611   1.203   1.815  1.4322 -0.9586  1.0408
  142MOL   H21634338   5.749   1.236   1.711 -0.3322 -0.1136 -0.3848
  142MOL   H21734339   5.633   1.138   1.653  0.5197  0.2179  0.0651
  142MOL   C21834340   5.269   1.455   1.703  0.1060 -0.0814 -0.2316
  142MOL   C21934341   5.153   1.545   1.660  0.0266 -0.6305 -0.6532
  142MOL   O22034342   5.172   1.592   1.531  0.3087  0.1927 -0.3425
  142MOL   C22134343   5.232   1.710   1.500  0.8653 -0.4919  0.3115
  142MOL   C22234344   5.195   1.739   1.354  1.3278  0.0684  0.2028
  142MOL   O22334345   5.302   1.786   1.566  0.4213  0.0540  0.0249
  142MOL   H22434346   5.282   1.372   1.634  1.3225 -2.4325  2.7201
  142MOL   H22534347   5.233   1.403   1.792  1.1785  1.4715  1.1301
  142MOL   H22634348   5.137   1.619   1.738  0.9634  0.1596 -1.1993
  142MOL   H22734349   5.251   1.823   1.314  0.2595  1.3106  1.3044
  142MOL   H22834350   5.087   1.746   1.340  1.2091  0.3182  1.2643
  142MOL   H22934351   5.226   1.654   1.293 -0.5031 -0.2823 -0.2899
  142MOL   C23034352   5.023   1.467   1.650  0.0857 -0.0174  0.1569
  142MOL   C23134353   4.896   1.555   1.634  0.0350 -0.4947 -0.0487
  142MOL   O23234354   4.835   1.585   1.759 -0.2598 -0.5777  0.3913
  142MOL   C23334355   4.707   1.623   1.768 -0.8471  0.1673 -0.2496
  142MOL   C23434356   4.665   1.626   1.918 -0.6832 -0.1959 -0.2720
  142MOL   O23534357   4.634   1.645   1.676  0.0311 -0.6675 -0.3710
  142MOL   H23634358   5.030   1.400   1.564  0.9200 -1.3750  1.2690
  142MOL   H23734359   5.008   1.411   1.742 -2.2601 -1.3712 -0.9999
  142MOL   H23834360   4.817   1.499   1.584 -1.1649  1.4651 -0.4029
  142MOL   H23934361   4.573   1.568   1.927 -0.6466 -0.1827  0.2002
  142MOL   H24034362   4.646   1.732   1.937 -2.0784 -0.5073  0.1011
  142MOL   H24134363   4.751   1.598   1.978 -0.5582  0.8081  0.0366
  142MOL   H24234364   4.903   1.646   1.574 -0.8300  0.1000  0.7484
  143MOL     C134365   5.138   2.958   0.194  0.2036 -0.0771 -0.5258
  143MOL     C234366   5.251   2.876   0.127 -1.1465 -0.2192  0.2583
  143MOL     O334367   5.337   2.818   0.222  0.1477  0.2218  0.3230
  143MOL     C434368   5.455   2.883   0.239 -0.1740 -0.2832 -0.7729
  143MOL     C534369   5.530   2.823   0.358 -0.0813 -0.0782  0.3371
  143MOL     O634370   5.501   2.974   0.169  0.3054  0.6031 -0.2616
  143MOL     H734371   5.082   2.905   0.272 -1.8892 -0.2292 -2.0845
  143MOL     H834372   5.058   2.970   0.121  0.8295 -3.0075 -1.7386
  143MOL     H934373   5.299   2.944   0.057 -0.6527 -0.6412  0.1885
  143MOL    H1034374   5.578   2.726   0.345  1.2678  0.7246 -0.6911
  143MOL    H1134375   5.464   2.821   0.446 -0.5849  2.2310  0.0432
  143MOL    H1234376   5.593   2.905   0.393 -0.6841  0.6522 -0.2673
  143MOL    H1334377   5.184   3.054   0.220  0.9412 -0.1659 -1.4958
  143MOL    C1434378   5.194   2.758   0.046 -0.4700 -0.8372 -0.8249
  143MOL    C1534379   5.153   2.790   7.925  0.1874  0.1650  0.2504
  143MOL    O1634380   5.278   2.807   7.859 -0.4404 -0.1740  0.3390
  143MOL    C1734381   5.289   2.904   7.766 -0.2790 -0.5486  0.7376
  143MOL    C1834382   5.418   2.876   7.686  0.5898 -0.2554 -0.3385
  143MOL    O1934383   5.210   2.996   7.745 -0.1634  0.1169  0.5125
  143MOL    H2034384   5.260   2.672   0.056 -1.5962 -1.4552  1.7555
  143MOL    H2134385   5.104   2.727   0.098 -1.4395  2.1343 -0.6481
  143MOL    H2234386   5.103   2.887   7.926 -0.5018 -0.1150 -2.7379
  143MOL    H2334387   5.461   2.969   7.649 -1.3472  1.3521  1.3766
  143MOL    H2434388   5.401   2.805   7.604 -1.1297 -1.3270  0.9254
  143MOL    H2534389   5.493   2.825   7.746  0.0290  0.6922  1.1631
  143MOL    C2634390   5.070   2.685   7.845 -0.2593 -0.1138  0.1540
  143MOL    C2734391   4.915   2.698   7.868 -0.3712  0.7103  0.5556
  143MOL    O2834392   4.871   2.823   7.838  0.0320  0.0187 -0.0811
  143MOL    C2934393   4.818   2.905   7.933 -0.0579  0.1535  0.2109
  143MOL    C3034394   4.784   3.050   7.891 -0.8070  0.2368 -0.0853
  143MOL    O3134395   4.807   2.869   0.030  0.2257 -0.4549  0.4800
  143MOL    H3234396   5.075   2.707   7.738  2.2869 -2.5160 -0.3033
  143MOL    H3334397   5.105   2.583   7.862  0.8693  0.4937  1.6154
  143MOL    H3434398   4.890   2.686   7.973 -3.1488  3.7565  0.3275
  143MOL    H3534399   4.694   3.084   7.942 -0.2019 -0.2245  1.3294
  143MOL    H3634400   4.772   3.060   7.784  2.1447 -2.5523 -0.7561
  143MOL    H3734401   4.877   3.104   7.911 -0.7648  0.6812 -1.4597
  143MOL    C3834402   4.828   2.604   7.776 -0.4534 -0.7384 -0.1200
  143MOL    C3934403   4.855   2.454   7.791  0.1114 -0.4594 -0.5462
  143MOL    O4034404   4.771   2.408   7.906 -0.3682  0.9096  0.3227
  143MOL    C4134405   4.830   2.361   0.000  0.5591 -0.8030  0.2824
  143MOL    C4234406   4.729   2.299   0.093  0.3441 -0.2603 -0.2151
  143MOL    O4334407   4.950   2.361   0.033  0.1314 -0.0540  0.0369
  143MOL    H4434408   4.724   2.622   7.800 -0.2248  0.9113 -0.3211
  143MOL    H4534409   4.845   2.641   7.675  0.4969 -0.7400  0.0345
  143MOL    H4634410   4.962   2.436   7.804  0.1766  0.2967  0.0187
  143MOL    H4734411   4.675   2.226   0.033  0.0786 -0.7379  0.5929
  143MOL    H4834412   4.670   2.369   0.151  0.4312  0.2031 -0.6804
  143MOL    H4934413   4.775   2.234   0.168 -1.9710  0.8948  2.2647
  143MOL    C5034414   4.802   2.373   7.668  0.5842 -0.1970 -0.2221
  143MOL    C5134415   4.840   2.224   7.656  1.2353  0.5291  0.0855
  143MOL    O5234416   4.777   2.164   7.548 -0.2920  0.2858 -0.2368
  143MOL    C5334417   4.686   2.067   7.569 -0.3032 -0.3820  0.0362
  143MOL    C5434418   4.650   1.992   7.441 -0.0015  0.5687  0.4771
  143MOL    O5534419   4.627   2.039   7.675  0.4523 -0.1648 -0.1135
  143MOL    H5634420   4.694   2.385   7.665  0.7800  1.3883 -2.8816
  143MOL    H5734421   4.828   2.423   7.574 -1.4644  0.7712 -0.2987
  143MOL    H5834422   4.818   2.168   7.747 -0.8560  0.1994 -0.5859
  143MOL    H5934423   4.579   2.042   7.376  1.7094 -2.0006 -3.5018
  143MOL    H6034424   4.594   1.902   7.466  1.5795 -0.6914 -0.4270
  143MOL    H6134425   4.737   1.976   7.377  0.1368 -0.0466  0.8175
  143MOL    C6234426   4.990   2.215   7.621 -0.7266  0.0412 -0.4022
  143MOL    C6334427   5.054   2.071   7.645 -0.8066  0.0316  0.6191
  143MOL    O6434428   4.992   1.965   7.560 -0.3505 -0.8022  0.4616
  143MOL    C6534429   4.978   1.841   7.600 -0.1809 -0.2997 -0.1515
  143MOL    C6634430   4.914   1.755   7.494 -0.3517  0.1389  0.8025
  143MOL    O6734431   5.025   1.793   7.701 -0.0510 -0.4842 -0.0173
  143MOL    H6834432   5.007   2.253   7.520  1.6320 -2.3620 -0.9757
  143MOL    H6934433   5.046   2.279   7.689 -0.8121 -0.1342 -0.1691
  143MOL    H7034434   5.027   2.056   7.750  0.7831  0.2934  1.0811
  143MOL    H7134435   4.807   1.772   7.491 -0.0345  2.3974  1.4657
  143MOL    H7234436   4.936   1.653   7.524 -1.8391 -0.5814 -0.5058
  143MOL    H7334437   4.961   1.784   7.400 -1.2668 -2.8444 -0.6265
  143MOL    C7434438   5.207   2.061   7.632 -0.0699 -0.2218 -0.0543
  143MOL    C7534439   5.289   2.059   7.765 -0.3870 -0.1087 -0.2629
  143MOL    O7634440   5.269   2.185   7.839 -0.3940  0.3904  0.0253
  143MOL    C7734441   5.378   2.266   7.852  0.8300  0.1508  0.5467
  143MOL    C7834442   5.346   2.382   7.943 -0.2765  0.3630  0.1116
  143MOL    O7934443   5.485   2.251   7.803 -0.0032  0.7595 -0.2161
  143MOL    H8034444   5.224   1.968   7.579  1.0816 -0.0071 -0.0823
  143MOL    H8134445   5.246   2.144   7.572 -0.6474  0.7236  0.8461
  143MOL    H8234446   5.393   2.049   7.736  0.6178  0.6931  2.8694
  143MOL    H8334447   5.374   2.477   7.898 -1.4777  1.1245  0.9426
  143MOL    H8434448   5.405   2.376   0.012  0.3747  1.6238 -0.2175
  143MOL    H8534449   5.238   2.379   7.959 -0.6374 -1.0599 -2.2347
  143MOL    C8634450   5.254   1.940   7.861 -1.0756  0.3684 -0.4864
  143MOL    C8734451   5.331   1.921   7.998 -0.4249  0.9447 -0.2355
  143MOL    O8834452   5.263   1.822   0.059  0.6124 -0.1167 -0.2311
  143MOL    C8934453   5.239   1.694   0.018  0.6101  0.0732 -0.3385
  143MOL    C9034454   5.148   1.624   0.123  0.3312  0.6242 -0.0278
  143MOL    O9134455   5.277   1.642   7.934  0.4082  0.1316  0.0114
  143MOL    H9234456   5.148   1.957   7.881 -1.4599 -0.8614 -1.3970
  143MOL    H9334457   5.251   1.853   7.796  1.5251 -0.0094 -0.1219
  143MOL    H9434458   5.325   2.024   0.013  2.6364  0.9964  0.2275
  143MOL    H9534459   5.048   1.607   0.083  1.1052 -2.1353 -0.8907
  143MOL    H9634460   5.144   1.658   0.226 -1.0586 -0.1828  0.1999
  143MOL    H9734461   5.181   1.521   0.132 -0.5400  0.3692  0.3235
  143MOL    C9834462   5.487   1.886   7.987  0.1374 -0.0872  0.6818
  143MOL    C9934463   5.574   1.886   0.092 -0.6403  0.0074  0.2487
  143MOL   O10034464   5.559   1.754   0.143 -0.1849 -0.7657  0.9932
  143MOL   C10134465   5.540   1.728   0.269 -0.2233 -0.4097 -0.0066
  143MOL   C10234466   5.508   1.586   0.303 -0.3365  0.4489 -0.0074
  143MOL   O10334467   5.547   1.808   0.358 -0.5254 -0.0562 -0.7260
  143MOL   H10434468   5.499   1.800   7.921 -0.4611 -1.0242  1.7741
  143MOL   H10534469   5.534   1.963   7.926 -0.6989  0.6876  0.9949
  143MOL   H10634470   5.558   1.965   0.165 -1.8792  0.0456 -0.0536
  143MOL   H10734471   5.590   1.545   0.362  0.4163  0.2714 -1.1822
  143MOL   H10834472   5.505   1.531   0.209 -0.4308  1.9960 -0.9123
  143MOL   H10934473   5.416   1.567   0.359 -0.3470 -0.5997 -0.3702
  143MOL   C11034474   5.727   1.907   0.042  0.0375  0.1922 -0.0605
  143MOL   C11134475   5.794   2.038   0.094 -0.2228 -0.1061  0.5952
  143MOL   O11234476   5.932   2.035   0.056 -0.3470  0.5054  0.5705
  143MOL   C11334477   6.028   2.059   0.145 -0.1621 -0.9308  0.4690
  143MOL   C11434478   6.160   2.046   0.082 -0.7061  0.0574  0.1253
  143MOL   O11534479   6.014   2.095   0.263  0.2377  0.7091 -1.0200
  143MOL   H11634480   5.786   1.824   0.080 -1.3847 -0.3188  1.1049
  143MOL   H11734481   5.732   1.896   7.955 -0.6960  0.1939 -0.1001
  143MOL   H11834482   5.778   2.047   0.202  0.1438  1.3455  0.5441
  143MOL   H11934483   6.231   1.978   0.128 -0.5665  1.2086  1.6579
  143MOL   H12034484   6.208   2.144   0.080 -0.9638  0.1727 -1.0529
  143MOL   H12134485   6.163   2.013   7.999  0.6725 -1.8944  0.7644
  143MOL   C12234486   5.719   2.167   0.034  0.2064  0.6454  0.3905
  143MOL   C12334487   5.787   2.305   0.057  0.1159  0.2129  0.6714
  143MOL   O12434488   5.697   2.392   8.009  0.2468  0.0366  0.3880
  143MOL   C12534489   5.719   2.437   7.876 -0.6340 -0.0105  0.0962
  143MOL   C12634490   5.615   2.548   7.841 -0.0182  0.2445  0.3409
  143MOL   O12734491   5.817   2.416   7.804  0.1564  0.1428 -0.4484
  143MOL   H12834492   5.700   2.151   7.949 -0.1433 -3.1524  0.9656
  143MOL   H12934493   5.617   2.168   0.073  0.9294 -0.7568  2.3410
  143MOL   H13034494   5.885   2.321   0.012 -0.2730  1.6109  0.2934
  143MOL   H13134495   5.558   2.599   7.919 -0.0090 -0.1854  0.6309
  143MOL   H13234496   5.551   2.495   7.770  0.9441 -1.2408  0.5641
  143MOL   H13334497   5.655   2.632   7.785  0.4066  0.4263  0.9104
  143MOL   C13434498   5.783   2.338   0.209 -0.0920  0.1479  0.4888
  143MOL   C13534499   5.859   2.467   0.255 -0.6973  0.1046 -0.7114
  143MOL   O13634500   5.790   2.586   0.213  0.2271 -0.3628  0.3123
  143MOL   C13734501   5.830   2.657   0.109  0.1506 -0.3853  0.5208
  143MOL   C13834502   5.756   2.785   0.086  0.1442 -0.7393  0.0207
  143MOL   O13934503   5.930   2.631   0.043  0.5222 -0.3471  0.5762
  143MOL   H14034504   5.682   2.365   0.240  0.3094  1.3728  0.7411
  143MOL   H14134505   5.815   2.248   0.261  1.9930  1.2192  1.1466
  143MOL   H14234506   5.964   2.461   0.227 -0.3017 -0.8736  0.8836
  143MOL   H14334507   5.800   2.843   0.005 -0.9610  0.9525  0.6107
  143MOL   H14434508   5.749   2.851   0.172  0.8769 -1.1517  0.3962
  143MOL   H14534509   5.654   2.770   0.049 -0.5831 -0.2077  1.7530
  143MOL   C14634510   5.859   2.480   0.411 -0.5814  0.8622 -0.4183
  143MOL   C14734511   5.945   2.370   0.478 -0.1929 -0.3303  0.3635
  143MOL   O14834512   6.080   2.384   0.442 -0.2964  0.6047  0.4848
  143MOL   C14934513   6.172   2.292   0.459  0.5682 -0.3354 -0.1185
  143MOL   C15034514   6.305   2.348   0.416  0.0908  0.4327  0.1186
  143MOL   O15134515   6.166   2.187   0.525 -0.0500  0.0604  1.5695
  143MOL   H15234516   5.892   2.577   0.447  2.1133 -0.0947 -0.2088
  143MOL   H15334517   5.757   2.455   0.441 -0.5399 -0.8537 -1.5797
  143MOL   H15434518   5.916   2.273   0.440 -0.4397 -0.3969  0.7199
  143MOL   H15534519   6.350   2.257   0.376  0.1890 -0.2697  1.7568
  143MOL   H15634520   6.363   2.383   0.501  1.0693 -0.4785 -0.1637
  143MOL   H15734521   6.313   2.421   0.336  2.7910  3.4620  3.0148
  143MOL   C15834522   5.917   2.352   0.625  0.6462 -0.2173  0.0450
  143MOL   C15934523   5.947   2.464   0.711  0.8160  0.1515  0.0825
  143MOL   O16034524   5.830   2.540   0.741 -0.3022  0.0236  0.1390
  143MOL   C16134525   5.805   2.673   0.708  0.0617 -0.1612 -0.8113
  143MOL   C16234526   5.668   2.718   0.757 -0.7971  0.1505 -0.0084
  143MOL   O16334527   5.881   2.749   0.646  0.2785  1.0183 -0.3203
  143MOL   H16434528   5.814   2.323   0.646 -0.1682  2.4330 -0.0617
  143MOL   H16534529   5.975   2.264   0.651  0.1027 -0.7132 -0.4120
  143MOL   H16634530   6.017   2.538   0.672  0.0399  0.2372 -1.1537
  143MOL   H16734531   5.595   2.716   0.676  0.5843 -0.3336 -1.2607
  143MOL   H16834532   5.683   2.814   0.808 -1.5330  0.2192  0.0852
  143MOL   H16934533   5.632   2.648   0.832  1.2600 -1.3592 -0.3926
  143MOL   C17034534   5.997   2.422   0.848 -0.0182  0.0367 -0.4970
  143MOL   C17134535   6.147   2.396   0.846 -0.5715  0.2564  0.6135
  143MOL   O17234536   6.196   2.532   0.826  0.0557  0.4261  0.1344
  143MOL   C17334537   6.325   2.544   0.777  0.0055 -0.3023 -0.0392
  143MOL   C17434538   6.352   2.690   0.748  0.7835  0.4624 -0.2089
  143MOL   O17534539   6.410   2.455   0.754  0.2729  0.3958  0.5109
  143MOL   H17634540   5.983   2.503   0.919  1.5795 -1.0575  1.1292
  143MOL   H17734541   5.942   2.330   0.871  2.0175 -1.0994 -0.0132
  143MOL   H17834542   6.162   2.340   0.754 -3.6659  1.1881 -0.5260
  143MOL   H17934543   6.259   2.743   0.725  1.8209  1.1542 -2.9791
  143MOL   H18034544   6.415   2.698   0.660 -0.6303  0.3331 -1.2409
  143MOL   H18134545   6.412   2.734   0.827  1.8428  0.4181 -0.9833
  143MOL   C18234546   6.203   2.321   0.966  0.1224 -0.4247 -0.5747
  143MOL   C18334547   6.193   2.404   1.094 -0.1931 -0.4699 -0.4596
  143MOL   O18434548   6.063   2.385   1.147  0.2833 -0.5357 -0.1253
  143MOL   C18534549   5.992   2.487   1.203  1.0716  0.6427 -0.6005
  143MOL   C18634550   5.841   2.452   1.202  0.8128 -0.1367 -0.1266
  143MOL   O18734551   6.042   2.586   1.252 -0.0387 -0.1085 -0.2317
  143MOL   H18834552   6.161   2.221   0.969  2.2269 -1.3057  2.5768
  143MOL   H18934553   6.304   2.296   0.932 -0.3174 -1.1785 -1.3456
  143MOL   H19034554   6.208   2.508   1.063 -3.8190 -0.2220 -1.5089
  143MOL   H19134555   5.806   2.551   1.173 -1.0816 -0.6405  0.4176
  143MOL   H19234556   5.813   2.421   1.302  0.7835 -0.4621 -0.2339
  143MOL   H19334557   5.815   2.385   1.120  1.5995  0.1532 -0.6287
  143MOL   C19434558   6.299   2.370   1.203  0.8820 -0.3586  0.4519
  143MOL   C19534559   6.435   2.415   1.157  0.7018  0.5715  0.1253
  143MOL   O19634560   6.447   2.554   1.163  0.1099  0.6108 -0.5279
  143MOL   C19734561   6.540   2.620   1.087  0.7721 -0.0970 -0.2210
  143MOL   C19834562   6.533   2.774   1.091  0.5166 -0.0571 -0.7878
  143MOL   O19934563   6.628   2.574   1.018 -0.0328 -0.4066  0.6936
  143MOL   H20034564   6.271   2.425   1.293 -0.6019 -2.6098  1.4044
  143MOL   H20134565   6.286   2.262   1.214  1.1052 -0.5403 -0.9897
  143MOL   H20234566   6.451   2.400   1.051 -0.2730  1.2012 -0.1176
  143MOL   H20334567   6.571   2.814   0.998  0.9698 -3.4150 -2.1115
  143MOL   H20434568   6.584   2.810   1.180 -1.9533  0.9351  0.2788
  143MOL   H20534569   6.428   2.797   1.109 -0.5626 -3.1803 -2.6299
  143MOL   C20634570   6.547   2.351   1.230  0.1628  0.4987 -0.5868
  143MOL   C20734571   6.580   2.213   1.169  0.5885 -0.0337 -0.4320
  143MOL   O20834572   6.653   2.226   1.050 -0.0266  0.0886  0.1768
  143MOL   C20934573   6.604   2.176   0.937  0.2098  0.1717 -0.3464
  143MOL   C21034574   6.708   2.198   0.825 -0.0129 -0.2311 -0.5354
  143MOL   O21134575   6.495   2.124   0.920  1.0745  0.3489  0.9706
  143MOL   H21234576   6.639   2.408   1.244 -0.0086  0.9556 -1.3266
  143MOL   H21334577   6.506   2.330   1.329  3.2188 -1.4371  0.3642
  143MOL   H21434578   6.484   2.166   1.149 -0.0493 -0.4077  3.2650
  143MOL   H21534579   6.707   2.112   0.757  0.6367 -0.4361 -0.2934
  143MOL   H21634580   6.807   2.220   0.866  0.5240 -2.1165 -0.7498
  143MOL   H21734581   6.674   2.285   0.769 -1.0040 -1.7014 -2.2765
  143MOL   C21834582   6.656   2.115   1.261  0.0594 -0.2453  0.2410
  143MOL   C21934583   6.576   1.990   1.305 -0.3994 -0.2174 -0.2152
  143MOL   O22034584   6.580   1.906   1.189  0.2113  0.5162  0.2131
  143MOL   C22134585   6.465   1.856   1.145 -0.0921  0.7522 -0.3865
  143MOL   C22234586   6.484   1.754   1.033  0.2098  0.6449 -0.0665
  143MOL   O22334587   6.358   1.884   1.200 -0.4341 -0.1415 -0.2717
  143MOL   H22434588   6.747   2.082   1.211 -0.1490  0.2525 -0.4729
  143MOL   H22534589   6.692   2.170   1.349 -0.5702 -1.0353  1.0031
  143MOL   H22634590   6.473   2.020   1.324  1.0831  4.1267  1.3873
  143MOL   H22734591   6.586   1.714   1.026  0.2400  0.9760 -1.6459
  143MOL   H22834592   6.462   1.808   0.941 -1.7790 -0.7859 -0.4688
  143MOL   H22934593   6.407   1.677   1.031 -0.1514  0.9668  1.2724
  143MOL   C23034594   6.647   1.920   1.415  0.5232  0.1034 -0.4968
  143MOL   C23134595   6.562   1.804   1.471  0.1090 -0.0273 -0.2526
  143MOL   O23234596   6.610   1.777   1.598 -0.5574 -0.0796  0.4354
  143MOL   C23334597   6.635   1.653   1.643 -0.0775  0.4280  0.2925
  143MOL   C23434598   6.709   1.646   1.773  0.2939 -1.1158 -0.0318
  143MOL   O23534599   6.610   1.547   1.584  0.4748 -0.7420  0.1066
  143MOL   H23634600   6.746   1.893   1.378  0.0222  0.2307 -1.9715
  143MOL   H23734601   6.661   1.989   1.498  1.4105 -0.3135 -0.2935
  143MOL   H23834602   6.570   1.717   1.405  3.5747 -0.0993  0.1577
  143MOL   H23934603   6.685   1.552   1.823 -1.0494 -0.7648  0.0089
  143MOL   H24034604   6.673   1.724   1.840 -0.4952  0.3790 -2.1207
  143MOL   H24134605   6.815   1.667   1.759 -0.2845  2.2708  0.1760
  143MOL   H24234606   6.460   1.839   1.486 -0.1525 -1.9914  2.8148
  144MOL     C134607   2.703   2.034   5.762 -0.1794 -0.1290 -0.0469
  144MOL     C234608   2.596   2.034   5.657  0.1868  0.0616  0.5599
  144MOL     O334609   2.478   2.045   5.728  0.0108 -0.7431 -0.4482
  144MOL     C434610   2.390   1.946   5.734  0.1069  0.1171 -0.0674
  144MOL     C534611   2.262   1.991   5.802  0.1466  0.2275 -0.1743
  144MOL     O634612   2.409   1.830   5.697 -0.2299 -0.0086 -0.6142
  144MOL     H734613   2.692   1.957   5.839 -0.1530  0.3497  0.4348
  144MOL     H834614   2.704   2.120   5.828 -0.3684 -0.2451  0.1097
  144MOL     H934615   2.602   1.935   5.612  2.7221  1.1071 -1.5146
  144MOL    H1034616   2.243   1.974   5.908  1.5446  0.1452  0.0605
  144MOL    H1134617   2.177   1.946   5.750 -0.8563  1.5551  0.2955
  144MOL    H1234618   2.247   2.095   5.773  0.2731 -0.2970 -2.2579
  144MOL    H1334619   2.805   2.029   5.722  0.4908  1.9484  1.3235
  144MOL    C1434620   2.613   2.146   5.545  0.2287 -0.6156 -0.0878
  144MOL    C1534621   2.499   2.153   5.439  0.5138 -0.0690  0.3665
  144MOL    O1634622   2.539   2.277   5.370 -0.1499 -0.8655  0.2512
  144MOL    C1734623   2.468   2.334   5.263  0.1352  0.2390 -0.0130
  144MOL    C1834624   2.526   2.470   5.219  0.1357  0.2664 -0.1304
  144MOL    O1934625   2.365   2.285   5.212 -0.5122 -0.1040 -0.3778
  144MOL    H2034626   2.630   2.244   5.590 -1.3093 -0.3123 -0.1335
  144MOL    H2134627   2.706   2.133   5.490 -0.4345 -0.8402 -1.1716
  144MOL    H2234628   2.399   2.170   5.481  0.2210 -2.6333  0.7506
  144MOL    H2334629   2.626   2.486   5.261  0.1754 -0.7474  0.1620
  144MOL    H2434630   2.477   2.565   5.243  0.9044  0.7613 -0.4871
  144MOL    H2534631   2.523   2.470   5.110 -1.6152 -0.9046 -0.0844
  144MOL    C2634632   2.485   2.031   5.346  0.3460  0.8199  0.3564
  144MOL    C2734633   2.606   1.998   5.258  0.4090 -0.0885  0.3575
  144MOL    O2834634   2.723   1.941   5.327  0.0253  0.4621 -0.3622
  144MOL    C2934635   2.841   1.987   5.311 -0.3806 -0.4483  0.1865
  144MOL    C3034636   2.940   1.897   5.384 -0.7390 -0.0782 -0.3410
  144MOL    O3134637   2.881   2.090   5.265  0.5911 -0.4099 -0.6548
  144MOL    H3234638   2.456   1.941   5.399 -0.8821  0.7606 -0.3917
  144MOL    H3334639   2.403   2.049   5.277 -0.3406  0.1265  0.9988
  144MOL    H3434640   2.637   2.088   5.205 -2.4574 -0.1513 -1.5238
  144MOL    H3534641   2.903   1.856   5.478  1.7988 -0.7644  0.4223
  144MOL    H3634642   3.036   1.946   5.404  0.9607 -2.3463 -2.5919
  144MOL    H3734643   2.943   1.809   5.320  1.4300 -1.7902  1.9945
  144MOL    C3834644   2.577   1.900   5.148  0.7408  0.4685 -0.2221
  144MOL    C3934645   2.465   1.940   5.045 -0.2587 -0.0481 -0.8250
  144MOL    O4034646   2.521   2.061   4.994 -0.3152  0.3984  0.4015
  144MOL    C4134647   2.443   2.153   4.919 -0.1762  0.1823  0.3281
  144MOL    C4234648   2.526   2.277   4.893  0.5497  0.0731 -0.7750
  144MOL    O4334649   2.325   2.134   4.886  0.2296  0.1703  0.1627
  144MOL    H4434650   2.668   1.871   5.096  1.9003  1.7196  1.0698
  144MOL    H4534651   2.544   1.810   5.199 -1.3129  0.2087 -1.9206
  144MOL    H4634652   2.370   1.939   5.098 -0.5184  2.1203 -1.2251
  144MOL    H4734653   2.581   2.267   4.799 -0.4349  0.3735 -1.3935
  144MOL    H4834654   2.596   2.279   4.976 -0.5252 -1.5065  0.1820
  144MOL    H4934655   2.454   2.359   4.896 -1.1174 -1.3728 -0.9414
  144MOL    C5034656   2.452   1.847   4.918 -0.1453  0.3231 -0.5911
  144MOL    C5134657   2.394   1.716   4.943 -0.1497 -0.4855 -0.3622
  144MOL    O5234658   2.255   1.725   4.952  0.5354 -0.7889 -0.0555
  144MOL    C5334659   2.189   1.710   5.062  0.0236  0.3671 -0.0692
  144MOL    C5434660   2.040   1.713   5.042  0.2150 -0.5359 -0.6416
  144MOL    O5534661   2.233   1.691   5.175 -0.3468  0.3280  0.5323
  144MOL    H5634662   2.392   1.890   4.837 -0.9917  0.3902  0.0701
  144MOL    H5734663   2.551   1.843   4.873  0.0443  0.5926 -0.2018
  144MOL    H5834664   2.432   1.689   5.042 -1.8069  1.3139  0.8231
  144MOL    H5934665   1.986   1.716   5.136  1.7484  3.3992  0.1865
  144MOL    H6034666   2.006   1.638   4.970 -2.1665 -0.8484  0.7678
  144MOL    H6134667   2.022   1.813   5.002  1.0371 -1.0295 -2.3154
  144MOL    C6234668   2.427   1.606   4.838  0.6386 -0.1469 -0.6245
  144MOL    C6334669   2.411   1.455   4.873 -0.1467 -0.5194 -0.2678
  144MOL    O6434670   2.453   1.380   4.756 -0.2916 -0.7372  0.6516
  144MOL    C6534671   2.356   1.332   4.678 -0.4382  0.6106  0.3162
  144MOL    C6634672   2.410   1.231   4.577 -0.6353 -0.4863  0.1101
  144MOL    O6734673   2.234   1.343   4.690  0.1502 -0.0370  0.2881
  144MOL    H6834674   2.369   1.621   4.747 -0.4337 -1.9121 -0.2652
  144MOL    H6934675   2.530   1.625   4.809  0.1309  2.2110 -0.9941
  144MOL    H7034676   2.310   1.429   4.907  0.1354 -1.7295 -0.3305
  144MOL    H7134677   2.393   1.128   4.607 -0.1092 -1.7229 -3.5646
  144MOL    H7234678   2.519   1.239   4.572 -0.5787 -0.6434  1.1230
  144MOL    H7334679   2.379   1.254   4.475  1.2834 -3.1346 -1.1389
  144MOL    C7434680   2.517   1.417   4.986  0.2741  0.6703 -0.3730
  144MOL    C7534681   2.516   1.273   5.037  0.2108 -0.2123 -0.3064
  144MOL    O7634682   2.622   1.273   5.129  0.2003 -0.2613  0.0815
  144MOL    C7734683   2.722   1.177   5.112 -0.7426 -0.0201  0.5429
  144MOL    C7834684   2.822   1.191   5.215 -0.2084 -0.0029  0.0895
  144MOL    O7934685   2.724   1.091   5.025 -0.3792 -0.1832 -0.1076
  144MOL    H8034686   2.614   1.448   4.948  1.3201 -1.9876  0.0304
  144MOL    H8134687   2.501   1.492   5.064  1.5706  1.6983 -1.0752
  144MOL    H8234688   2.532   1.219   4.944  0.0525  0.5954 -0.8050
  144MOL    H8334689   2.869   1.289   5.217  1.0210 -0.5271 -1.7006
  144MOL    H8434690   2.900   1.120   5.186 -0.3167 -0.0172 -0.1722
  144MOL    H8534691   2.782   1.159   5.311 -1.3463 -1.6809 -0.9159
  144MOL    C8634692   2.391   1.234   5.119 -0.1710  0.0303 -0.9018
  144MOL    C8734693   2.311   1.114   5.061  0.2859 -0.3006 -0.1134
  144MOL    O8834694   2.398   1.003   5.040  0.2908 -0.1529  0.0584
  144MOL    C8934695   2.434   0.967   4.911 -0.2199  0.2811  0.3081
  144MOL    C9034696   2.541   0.862   4.910 -0.6348 -0.2399  0.5992
  144MOL    O9134697   2.393   1.025   4.811  0.6621 -1.0642 -0.1194
  144MOL    H9234698   2.405   1.219   5.227 -1.3181  1.8694 -0.4895
  144MOL    H9334699   2.321   1.317   5.120 -1.9073 -1.4038  1.1493
  144MOL    H9434700   2.265   1.143   4.967 -0.7605 -3.7059 -0.7109
  144MOL    H9534701   2.555   0.805   5.002  1.1229  1.2156  1.2751
  144MOL    H9634702   2.632   0.913   4.878 -1.6356  0.8222 -0.6167
  144MOL    H9734703   2.515   0.793   4.829 -2.9578 -0.7960  1.7822
  144MOL    C9834704   2.193   1.055   5.144  0.8559 -0.5858 -0.1862
  144MOL    C9934705   2.063   1.135   5.148  0.0435  0.2997  0.0104
  144MOL   O10034706   2.002   1.140   5.020 -0.5413 -0.0199  0.0888
  144MOL   C10134707   2.016   1.247   4.940 -0.0609  0.3087  0.3570
  144MOL   C10234708   1.966   1.227   4.794 -0.3269 -0.3655 -0.1794
  144MOL   O10334709   2.074   1.349   4.970 -0.2266 -0.1461  0.0027
  144MOL   H10434710   2.173   0.953   5.112 -2.7364  0.7878 -2.5926
  144MOL   H10534711   2.220   1.055   5.249 -3.1018 -2.0944  0.9190
  144MOL   H10634712   2.087   1.239   5.172 -0.6054 -0.0711  2.3836
  144MOL   H10734713   1.991   1.125   4.764  2.1150  0.3121 -0.5113
  144MOL   H10834714   2.002   1.304   4.727  1.5415 -0.2702  0.8999
  144MOL   H10934715   1.858   1.238   4.788 -0.3656 -0.7214 -0.2001
  144MOL   C11034716   1.966   1.077   5.249 -0.1745 -0.0834 -0.1940
  144MOL   C11134717   1.991   1.105   5.395  0.2859  0.8006 -0.4951
  144MOL   O11234718   1.956   1.240   5.425 -0.1460 -0.0567  0.2893
  144MOL   C11334719   2.050   1.332   5.413  0.2781 -0.2448 -0.0125
  144MOL   C11434720   2.011   1.479   5.444  0.0317  0.3025  0.1797
  144MOL   O11534721   2.169   1.315   5.392 -0.0870 -0.2017 -0.6793
  144MOL   H11634722   1.868   1.122   5.230 -0.0380  0.5882  0.6600
  144MOL   H11734723   1.954   0.969   5.235  2.0078 -0.3766  0.0850
  144MOL   H11834724   2.096   1.083   5.411 -0.0987 -0.1942  0.7312
  144MOL   H11934725   2.062   1.537   5.367  0.4714 -0.4418 -0.0999
  144MOL   H12034726   2.027   1.504   5.549  0.6731 -4.0414  1.2080
  144MOL   H12134727   1.903   1.489   5.431 -0.0574  1.0729  1.4658
  144MOL   C12234728   1.921   1.021   5.501  0.1141  0.2979  0.3164
  144MOL   C12334729   1.984   0.880   5.507  0.8706 -0.0562  0.7343
  144MOL   O12434730   2.107   0.902   5.576  0.1633  0.4316  0.0710
  144MOL   C12534731   2.221   0.846   5.529 -0.0430  0.1161  0.6532
  144MOL   C12634732   2.342   0.876   5.624 -0.2637  0.1043  0.5052
  144MOL   O12734733   2.227   0.771   5.429  0.4984  0.1068 -0.8213
  144MOL   H12834734   1.924   1.074   5.596  1.8232  0.3556  0.2561
  144MOL   H12934735   1.814   1.021   5.480 -0.4186 -1.3040  2.8764
  144MOL   H13034736   2.004   0.834   5.410  2.2418  0.6747  0.6506
  144MOL   H13134737   2.436   0.882   5.570  0.2337  0.9871  1.4394
  144MOL   H13234738   2.355   0.803   5.704 -0.3934 -2.1689 -1.5134
  144MOL   H13334739   2.335   0.967   5.684  1.0567 -0.1035  0.9726
  144MOL   C13434740   1.901   0.781   5.598  0.5672 -0.0590  0.1034
  144MOL   C13534741   1.925   0.630   5.570 -0.2501 -0.5705 -0.2304
  144MOL   O13634742   1.906   0.559   5.695  0.6330 -0.3590  0.5833
  144MOL   C13734743   1.980   0.447   5.736  1.0682  0.0643 -0.1251
  144MOL   C13834744   1.945   0.414   5.878  0.2203  0.0397 -0.3828
  144MOL   O13934745   2.063   0.395   5.664  0.2354 -0.4109  0.2780
  144MOL   H14034746   1.914   0.802   5.704  2.3257 -0.9015  0.0672
  144MOL   H14134747   1.797   0.801   5.571  0.4738  1.7307  1.7105
  144MOL   H14234748   2.031   0.621   5.547  0.2839 -1.9478  2.5343
  144MOL   H14334749   1.899   0.503   5.922 -2.1573  0.2548 -3.1410
  144MOL   H14434750   2.038   0.389   5.928 -2.2768 -2.0773  3.4598
  144MOL   H14534751   1.881   0.326   5.879 -0.2150  0.3453 -1.1307
  144MOL   C14634752   1.841   0.565   5.458 -0.0979 -0.7130 -0.9176
  144MOL   C14734753   1.893   0.594   5.316  0.0894  0.6067  0.5268
  144MOL   O14834754   2.014   0.534   5.284 -0.0889  0.0429  0.5405
  144MOL   C14934755   2.089   0.602   5.197  0.0549 -0.0788 -0.2777
  144MOL   C15034756   2.205   0.527   5.132  0.5664 -0.4791  0.4988
  144MOL   O15134757   2.055   0.707   5.143  0.1518 -0.0964 -0.0392
  144MOL   H15234758   1.826   0.459   5.478 -0.1415 -1.0511 -2.6785
  144MOL   H15334759   1.740   0.602   5.472 -0.2479 -1.9479  1.7129
  144MOL   H15434760   1.896   0.703   5.311  0.1070  0.6089  0.5825
  144MOL   H15534761   2.236   0.561   5.033 -0.2655  0.0307  0.4058
  144MOL   H15634762   2.183   0.420   5.130  1.1454 -0.6197  1.6791
  144MOL   H15734763   2.288   0.541   5.201 -0.5520 -1.0236  1.9864
  144MOL   C15834764   1.782   0.544   5.218  0.0252 -0.3339  0.4439
  144MOL   C15934765   1.643   0.631   5.212 -0.4131  0.5245  1.0100
  144MOL   O16034766   1.672   0.747   5.142 -0.2587  0.4163 -0.0531
  144MOL   C16134767   1.632   0.869   5.184 -0.8143  0.2747  0.8107
  144MOL   C16234768   1.646   0.972   5.075  0.1236 -0.4235 -0.0838
  144MOL   O16334769   1.601   0.909   5.294 -0.4822 -0.4051  0.6118
  144MOL   H16434770   1.826   0.550   5.119 -0.5830 -0.0849  0.1838
  144MOL   H16534771   1.759   0.440   5.241 -1.1797  0.2507  1.9697
  144MOL   H16634772   1.615   0.653   5.315 -0.7649 -0.8834  1.2327
  144MOL   H16734773   1.582   0.967   4.988  1.9909 -1.1213 -1.4492
  144MOL   H16834774   1.748   0.963   5.037  0.7435 -0.3812  1.5136
  144MOL   H16934775   1.625   1.070   5.118 -0.8146 -0.5684 -0.2095
  144MOL   C17034776   1.539   0.557   5.120  0.7171  0.5091  0.1393
  144MOL   C17134777   1.484   0.419   5.172 -0.4739 -0.8680  0.2619
  144MOL   O17234778   1.410   0.445   5.287 -1.0566  0.4573 -0.3668
  144MOL   C17334779   1.421   0.369   5.389  0.3737 -0.1445 -0.1559
  144MOL   C17434780   1.336   0.424   5.504  0.1718  0.1886  0.4134
  144MOL   O17534781   1.502   0.278   5.406  0.7329  0.3929 -0.3304
  144MOL   H17634782   1.456   0.627   5.111  0.1756 -0.4407 -2.7407
  144MOL   H17734783   1.574   0.555   5.017  0.7454  2.3370  0.1095
  144MOL   H17834784   1.570   0.355   5.191  0.4576  0.7432  1.5460
  144MOL   H17934785   1.251   0.483   5.469 -1.0763 -2.6814 -1.4859
  144MOL   H18034786   1.397   0.496   5.559  1.6792 -0.8718  0.1383
  144MOL   H18134787   1.306   0.348   5.576  0.4910 -0.2201  0.1117
  144MOL   C18234788   1.403   0.351   5.065 -0.5406  0.0560  0.4500
  144MOL   C18334789   1.366   0.203   5.103  0.1808  0.3973  0.6856
  144MOL   O18434790   1.254   0.153   5.028 -0.5489 -0.5735 -0.5482
  144MOL   C18534791   1.129   0.167   5.059  0.7685 -0.4476 -0.1684
  144MOL   C18634792   1.043   0.067   4.975  0.0539  0.1454 -0.1083
  144MOL   O18734793   1.088   0.250   5.139 -0.3035 -0.5449  1.0025
  144MOL   H18834794   1.314   0.408   5.039  0.6895  1.2187 -1.3502
  144MOL   H18934795   1.449   0.345   4.966 -1.6680 -0.5347 -0.0421
  144MOL   H19034796   1.338   0.207   5.208  1.2210  0.9296  0.9560
  144MOL   H19134797   0.971   0.129   4.922  1.7482  0.6108 -1.9241
  144MOL   H19234798   0.999   8.015   5.042 -1.4903 -0.7326 -2.0411
  144MOL   H19334799   1.102   0.019   4.897 -1.7850 -0.8763 -0.9018
  144MOL   C19434800   1.492   0.107   5.092 -0.5760  0.0039  0.1504
  144MOL   C19534801   1.573   0.104   4.959  0.4599 -1.3932  0.1983
  144MOL   O19634802   1.672   0.203   4.966  0.3821  0.1482 -0.3980
  144MOL   C19734803   1.698   0.287   4.865  0.7116  0.4115  0.3177
  144MOL   C19834804   1.793   0.400   4.891  0.4967  0.8267  0.6849
  144MOL   O19934805   1.653   0.262   4.754  0.2636 -0.3292  0.8768
  144MOL   H20034806   1.560   0.137   5.173 -0.8662 -2.5900  1.3974
  144MOL   H20134807   1.456   0.008   5.117  2.1317 -1.3836 -1.2490
  144MOL   H20234808   1.507   0.123   4.874  1.0933  0.9191  0.1870
  144MOL   H20334809   1.762   0.471   4.968  2.3049  1.6117  0.7289
  144MOL   H20434810   1.815   0.463   4.804  0.0664  0.7866  0.5484
  144MOL   H20534811   1.894   0.368   4.915  0.1288 -0.1362  0.9772
  144MOL   C20634812   1.624   7.981   4.942  0.3009  0.4938 -0.0794
  144MOL   C20734813   1.731   7.965   4.829  0.2194  0.2646 -0.0725
  144MOL   O20834814   1.850   7.979   4.900  0.5657 -0.0721  0.0048
  144MOL   C20934815   1.954   0.030   4.842  0.3238  0.1720 -0.7166
  144MOL   C21034816   2.075   0.058   4.929 -0.0564 -0.2488  0.3823
  144MOL   O21134817   1.949   0.071   4.724  0.1853 -0.3763  0.4118
  144MOL   H21234818   1.675   7.949   5.033  0.2360  1.2869  0.2470
  144MOL   H21334819   1.544   7.908   4.933  1.1574 -0.5054  0.2716
  144MOL   H21434820   1.703   0.025   4.761 -0.2720  1.0474  1.0471
  144MOL   H21534821   2.158   8.013   4.907 -0.0594 -0.6420  1.5359
  144MOL   H21634822   2.052   0.064   5.035 -0.5969  1.5216  0.1821
  144MOL   H21734823   2.118   0.158   4.917 -0.1503 -0.5169 -2.5505
  144MOL   C21834824   1.723   7.833   4.756  0.3458 -0.3385 -0.6045
  144MOL   C21934825   1.739   7.710   4.843 -0.0796 -0.8628 -0.3612
  144MOL   O22034826   1.660   7.609   4.784  0.1091  0.1595  0.2210
  144MOL   C22134827   1.531   7.610   4.816 -0.6025 -0.2594  0.2195
  144MOL   C22234828   1.464   7.501   4.740 -0.1881 -0.1796 -0.6357
  144MOL   O22334829   1.463   7.682   4.890  0.3516  0.5194  0.0165
  144MOL   H22434830   1.630   7.841   4.700  1.1029 -1.9664 -2.1221
  144MOL   H22534831   1.802   7.834   4.681  0.9118 -1.0210 -0.0285
  144MOL   H22634832   1.694   7.743   4.936 -1.7945  2.7539 -2.3696
  144MOL   H22734833   1.357   7.523   4.744  0.2595  2.0495  0.1199
  144MOL   H22834834   1.504   7.400   4.741 -0.4876 -0.3086  1.5326
  144MOL   H22934835   1.489   7.534   4.640  1.1012  0.0490 -0.2513
  144MOL   C23034836   1.884   7.666   4.848 -0.9230 -0.0782  0.1853
  144MOL   C23134837   1.912   7.545   4.928 -0.2402  0.4970  0.1016
  144MOL   O23234838   2.049   7.517   4.961 -1.1538  0.1393 -0.1826
  144MOL   C23334839   2.137   7.462   4.876 -0.3327  0.6189 -0.0905
  144MOL   C23434840   2.271   7.420   4.937 -0.1050  0.5109 -0.0386
  144MOL   O23534841   2.119   7.444   4.755 -0.0403  0.2327 -0.0174
  144MOL   H23634842   1.918   7.640   4.748 -3.4522 -1.4889 -0.3382
  144MOL   H23734843   1.944   7.747   4.890  0.1042 -1.6525  1.7878
  144MOL   H23834844   1.870   7.455   4.882  2.8438 -1.3816  0.8489
  144MOL   H23934845   2.344   7.361   4.883  2.1187  2.4880  0.7181
  144MOL   H24034846   2.231   7.356   5.016  1.0558 -1.2897 -0.8974
  144MOL   H24134847   2.317   7.508   4.983  0.8451  1.8990 -3.5130
  144MOL   H24234848   1.863   7.555   5.025  1.7054  0.1827  1.1432
  145MOL     C134849   6.595   0.758   0.491  0.4097  0.6544  0.4440
  145MOL     C234850   6.545   0.758   0.346 -0.6177 -0.7520 -0.7428
  145MOL     O334851   6.421   0.816   0.356 -0.2743  0.5095 -0.4031
  145MOL     C434852   6.315   0.752   0.327  0.0686  0.8699 -0.3602
  145MOL     C534853   6.191   0.834   0.352 -0.4260 -0.7397  0.4432
  145MOL     O634854   6.314   0.636   0.291 -0.0138  1.0475 -0.3747
  145MOL     H734855   6.587   0.857   0.536  0.8773  1.7745 -1.8393
  145MOL     H834856   6.703   0.744   0.492  0.6616  2.5138  1.8493
  145MOL     H934857   6.550   0.652   0.319 -4.3895 -1.5023  1.2187
  145MOL    H1034858   6.201   0.930   0.301  0.9166 -0.7536  0.6518
  145MOL    H1134859   6.169   0.844   0.459  1.8862 -1.4571  1.0321
  145MOL    H1234860   6.129   0.761   0.302 -0.2583 -0.5019 -0.1097
  145MOL    H1334861   6.549   0.679   0.550 -0.5853 -0.9806 -2.4252
  145MOL    C1434862   6.631   0.841   0.255  0.1214  0.7169 -0.1874
  145MOL    C1534863   6.772   0.799   0.223 -0.2767 -0.4101 -0.5816
  145MOL    O1634864   6.765   0.698   0.117  0.4692  0.4042 -0.4503
  145MOL    C1734865   6.834   0.585   0.121  0.0564 -0.0737 -0.8406
  145MOL    C1834866   6.800   0.499   0.002  0.0232 -0.3758 -0.2041
  145MOL    O1934867   6.916   0.557   0.204  0.2099 -0.3762 -0.1492
  145MOL    H2034868   6.582   0.852   0.158 -0.5077 -0.1710  0.0268
  145MOL    H2134869   6.635   0.938   0.305  1.7161 -0.0200  1.1864
  145MOL    H2234870   6.827   0.761   0.309  2.2375 -2.1065 -2.8385
  145MOL    H2334871   6.711   0.527   7.965 -0.9598 -3.2745 -0.1726
  145MOL    H2434872   6.779   0.394   0.021  1.9952 -0.7153  0.1804
  145MOL    H2534873   6.880   0.507   7.950  1.3791 -0.7832  1.2185
  145MOL    C2634874   6.858   0.922   0.167  0.5292 -0.3264 -0.2514
  145MOL    C2734875   6.863   1.047   0.255 -0.1453 -0.2520 -0.6607
  145MOL    O2834876   6.913   1.014   0.389 -0.4415 -0.2945 -1.1207
  145MOL    C2934877   6.851   1.046   0.515  0.6161 -0.6583 -0.1670
  145MOL    C3034878   6.936   1.012   0.640 -0.1589  0.4936 -0.3322
  145MOL    O3134879   6.745   1.106   0.528 -0.0406 -0.6179 -0.3030
  145MOL    H3234880   6.959   0.887   0.147  0.4232 -0.3200 -0.8317
  145MOL    H3334881   6.800   0.949   0.078 -1.9931  2.6687  2.1866
  145MOL    H3434882   6.764   1.092   0.264 -0.2872 -0.4320 -1.3095
  145MOL    H3534883   6.891   0.922   0.683  0.1061  1.2785  1.6173
  145MOL    H3634884   6.948   1.090   0.715  0.3117 -2.5638  2.9113
  145MOL    H3734885   7.033   0.984   0.597 -0.8909 -0.0862 -1.6392
  145MOL    C3834886   6.948   1.166   0.190 -0.4338 -0.5337  0.1454
  145MOL    C3934887   6.879   1.226   0.077  0.4453 -0.7161  0.6878
  145MOL    O4034888   6.784   1.323   0.125  0.5919 -0.6382  0.1295
  145MOL    C4134889   6.656   1.295   0.098  0.0439 -0.9012 -1.2699
  145MOL    C4234890   6.558   1.400   0.150  0.2083  0.0137  0.4338
  145MOL    O4334891   6.608   1.195   0.047 -0.6825 -0.0987  0.2085
  145MOL    H4434892   6.974   1.240   0.266  0.2818  0.3471 -0.9566
  145MOL    H4534893   7.041   1.116   0.162  0.1275  0.6883 -0.2112
  145MOL    H4634894   6.834   1.145   0.021 -1.3506  0.7596 -0.0686
  145MOL    H4734895   6.455   1.369   0.134  0.2208 -1.1266  2.3336
  145MOL    H4834896   6.567   1.495   0.098  0.7264  0.4326  1.2711
  145MOL    H4934897   6.572   1.431   0.254  1.0735  1.3610 -0.0673
  145MOL    C5034898   6.979   1.303   8.004  0.6211 -0.5053 -0.3416
  145MOL    C5134899   6.917   1.336   7.860  0.1669 -0.8830 -0.5084
  145MOL    O5234900   7.011   1.421   7.802  0.1639 -0.4248  0.5134
  145MOL    C5334901   6.999   1.546   7.813 -0.8004 -0.5571  0.0089
  145MOL    C5434902   7.111   1.620   7.737 -0.2716  0.5264 -0.3588
  145MOL    O5534903   6.917   1.612   7.871  0.7631 -0.0413 -0.2823
  145MOL    H5634904   6.999   1.396   0.036 -1.5474  1.1551 -2.2975
  145MOL    H5734905   7.079   1.259   8.001  0.1899 -1.5176  0.1693
  145MOL    H5834906   6.819   1.381   7.873  1.3283  1.3645  0.6819
  145MOL    H5934907   7.194   1.550   7.730 -0.1546  0.5435  0.7486
  145MOL    H6034908   7.142   1.708   7.794  0.1617  0.1227  0.0408
  145MOL    H6134909   7.075   1.655   7.640 -1.8816 -0.1920 -0.0353
  145MOL    C6234910   6.900   1.212   7.774  0.0424  0.1766  0.3664
  145MOL    C6334911   6.851   1.227   7.628  0.1525  1.1489  0.0571
  145MOL    O6434912   6.925   1.134   7.541  0.7410  0.2356  0.4222
  145MOL    C6534913   6.950   1.152   7.411 -1.0271  0.1972  0.3821
  145MOL    C6634914   7.057   1.055   7.358  0.2284 -0.5514 -0.4070
  145MOL    O6734915   6.897   1.234   7.336  0.2905 -0.0018  0.2046
  145MOL    H6834916   7.001   1.171   7.771  0.3586  0.9287  0.6324
  145MOL    H6934917   6.828   1.144   7.819 -0.0575 -0.9356 -1.4491
  145MOL    H7034918   6.858   1.328   7.587 -1.8848  1.5500  0.6604
  145MOL    H7134919   7.015   0.955   7.360  0.4189 -0.6326  3.0700
  145MOL    H7234920   7.149   1.063   7.416  1.0785 -0.5404 -1.7281
  145MOL    H7334921   7.065   1.083   7.253  1.7814 -2.1859 -0.7411
  145MOL    C7434922   6.697   1.196   7.603  0.2844 -0.3294  0.4328
  145MOL    C7534923   6.592   1.286   7.667 -0.2537  0.1690 -0.3988
  145MOL    O7634924   6.627   1.420   7.628  0.5898  0.3226 -0.2248
  145MOL    C7734925   6.617   1.525   7.710 -0.4457 -0.0862 -0.2164
  145MOL    C7834926   6.667   1.655   7.654 -0.8560  0.3761  0.2248
  145MOL    O7934927   6.578   1.525   7.829 -0.1568 -0.2018  0.7162
  145MOL    H8034928   6.686   1.212   7.495  1.2765 -1.4787  0.1510
  145MOL    H8134929   6.685   1.089   7.620  1.5184 -0.8098 -1.5366
  145MOL    H8234930   6.589   1.278   7.776 -0.4765  0.0330 -0.4126
  145MOL    H8334931   6.585   1.727   7.648 -1.3840 -0.1230  1.2921
  145MOL    H8434932   6.718   1.647   7.558 -2.8024 -0.3961 -0.7932
  145MOL    H8534933   6.742   1.690   7.725 -0.3506 -0.2134 -0.0116
  145MOL    C8634934   6.447   1.257   7.620 -0.3677 -0.0310 -0.0502
  145MOL    C8734935   6.327   1.314   7.704 -0.3141 -0.2992  0.5798
  145MOL    O8834936   6.217   1.222   7.686 -0.2052  0.1635  0.3878
  145MOL    C8934937   6.102   1.271   7.637  0.3633 -0.0153 -0.0307
  145MOL    C9034938   5.984   1.184   7.656 -0.0553 -0.2198 -0.1964
  145MOL    O9134939   6.099   1.373   7.569 -0.1603 -0.0010 -0.7053
  145MOL    H9234940   6.446   1.277   7.513  1.1258  3.0713  0.4818
  145MOL    H9334941   6.440   1.148   7.622  3.4923 -0.3551 -0.1321
  145MOL    H9434942   6.304   1.416   7.672 -1.0752 -0.0170  1.9895
  145MOL    H9534943   5.898   1.249   7.665  0.9791  1.1369  0.1213
  145MOL    H9634944   5.976   1.117   7.741 -1.4787  1.8743  1.3626
  145MOL    H9734945   5.971   1.124   7.565  0.1865 -0.1591 -0.2713
  145MOL    C9834946   6.343   1.318   7.864 -0.2839  0.1261 -0.4879
  145MOL    C9934947   6.228   1.391   7.942  0.3140 -0.5645  0.2557
  145MOL   O10034948   6.238   1.373   0.061 -0.5460  0.6352 -0.2393
  145MOL   C10134949   6.143   1.302   0.130 -0.0871  0.6194 -0.0548
  145MOL   C10234950   6.174   1.280   0.275 -0.1322  0.5621  0.0649
  145MOL   O10334951   6.036   1.263   0.091  0.7033 -0.4970 -0.0851
  145MOL   H10434952   6.346   1.216   7.903 -0.0272 -0.0128 -0.8704
  145MOL   H10534953   6.438   1.358   7.897  0.1396 -0.3809 -1.0780
  145MOL   H10634954   6.132   1.355   7.906  0.4270 -0.7520  0.1380
  145MOL   H10734955   6.230   1.363   0.319  2.0658  0.6275 -2.7256
  145MOL   H10834956   6.248   1.201   0.292 -0.9517  0.1328  1.7192
  145MOL   H10934957   6.083   1.271   0.334  0.2374  2.4591  0.9733
  145MOL   C11034958   6.242   1.543   7.931  0.1012  0.4741  0.3762
  145MOL   C11134959   6.125   1.617   7.988  0.1049 -0.2636 -0.2058
  145MOL   O11234960   6.162   1.670   0.093  0.3321  0.1026  0.2993
  145MOL   C11334961   6.102   1.644   0.210 -0.1365  0.2798  0.0875
  145MOL   C11434962   6.150   1.731   0.322 -0.0764  0.1542  0.4419
  145MOL   O11534963   5.998   1.576   0.220 -0.1649  0.0546 -0.5865
  145MOL   H11634964   6.335   1.574   7.978  0.5373  0.7481 -0.6611
  145MOL   H11734965   6.247   1.573   7.826  3.2873 -0.5422  0.1939
  145MOL   H11834966   6.043   1.549   8.012 -0.9931  2.0810  3.0302
  145MOL   H11934967   6.143   1.673   0.415  0.0875 -0.5111  0.0448
  145MOL   H12034968   6.088   1.820   0.330 -0.5459 -0.2486  1.4470
  145MOL   H12134969   6.256   1.751   0.306  0.0764 -1.1610 -0.2600
  145MOL   C12234970   6.073   1.730   7.902 -0.2181 -0.0808  0.2488
  145MOL   C12334971   5.977   1.692   7.789  0.2678  0.6832 -0.4003
  145MOL   O12434972   5.860   1.667   7.869  0.6259 -0.8633  0.1671
  145MOL   C12534973   5.802   1.548   7.857  0.7445 -0.8181 -0.4010
  145MOL   C12634974   5.701   1.511   7.973  0.3799 -0.1391 -0.2402
  145MOL   O12734975   5.831   1.468   7.773  0.0090 -0.1864 -0.3894
  145MOL   H12834976   6.024   1.808   7.960  0.3942  0.0476  0.6019
  145MOL   H12934977   6.153   1.795   7.867 -0.0731  0.5508  1.7200
  145MOL   H13034978   6.013   1.610   7.727  1.0062  0.4506  0.3312
  145MOL   H13134979   5.639   1.425   7.945 -0.1121  0.1484 -0.0543
  145MOL   H13234980   5.630   1.594   7.979 -0.0804 -0.6586  1.7880
  145MOL   H13334981   5.751   1.490   0.045  0.1398 -1.0404 -0.3123
  145MOL   C13434982   5.947   1.815   7.695 -0.5696 -0.3274  0.2962
  145MOL   C13534983   5.815   1.797   7.607  0.6795 -0.3002  0.5214
  145MOL   O13634984   5.780   1.930   7.562 -0.3274  0.9906  0.6247
  145MOL   C13734985   5.657   1.989   7.589 -0.2789  1.1215 -0.2183
  145MOL   C13834986   5.641   2.136   7.557 -0.5325  0.0143  0.1648
  145MOL   O13934987   5.569   1.926   7.654  0.3500 -0.7265  0.5847
  145MOL   H14034988   5.934   1.896   7.768 -0.7178 -0.3963  0.3487
  145MOL   H14134989   6.034   1.853   7.642 -1.3733  1.1366  0.0026
  145MOL   H14234990   5.738   1.767   7.678 -1.6884 -0.6006 -2.1315
  145MOL   H14334991   5.533   2.155   7.559 -0.5412 -0.0723  0.9202
  145MOL   H14434992   5.688   2.173   7.467 -0.6127  0.7390  0.4197
  145MOL   H14534993   5.686   2.199   7.634 -1.2081 -2.3751  2.6273
  145MOL   C14634994   5.829   1.691   7.489  0.0167 -0.7716 -0.1339
  145MOL   C14734995   5.714   1.587   7.479 -0.2374  0.4443 -0.5468
  145MOL   O14834996   5.591   1.647   7.440  0.1613 -0.0926 -0.3336
  145MOL   C14934997   5.479   1.631   7.522 -0.7385 -0.0183 -0.9126
  145MOL   C15034998   5.356   1.722   7.504 -0.5432 -0.6518 -0.5044
  145MOL   O15134999   5.482   1.551   7.616 -0.6190  0.6230  0.0451
  145MOL   H15235000   5.847   1.741   7.393  1.2313 -1.2110 -0.1502
  145MOL   H15335001   5.915   1.631   7.517 -0.8828 -0.8608  2.5514
  145MOL   H15435002   5.708   1.547   7.580  0.4533  2.5313  0.3631
  145MOL   H15535003   5.390   1.821   7.476 -0.1957 -0.1275  1.7327
  145MOL   H15635004   5.301   1.726   7.598  0.3385 -1.8650  0.0748
  145MOL   H15735005   5.297   1.692   7.417 -2.3076  1.8355 -0.2192
  145MOL   C15835006   5.752   1.478   7.375 -0.1445 -0.0738  0.1927
  145MOL   C15935007   5.646   1.362   7.376 -0.8742 -0.5578  0.1373
  145MOL   O16035008   5.686   1.285   7.259  0.5741  0.6740  0.8035
  145MOL   C16135009   5.601   1.264   7.155 -0.1322 -0.0305 -0.0759
  145MOL   C16235010   5.658   1.193   7.036 -0.3444  1.0567 -0.2209
  145MOL   O16335011   5.482   1.288   7.158 -0.5024  0.3738 -0.4251
  145MOL   H16435012   5.755   1.521   7.275 -0.0953  2.1276  1.0988
  145MOL   H16535013   5.854   1.443   7.395 -0.1328 -1.4998 -2.2298
  145MOL   H16635014   5.552   1.416   7.359 -0.1416  0.0092 -2.2741
  145MOL   H16735015   5.726   1.112   7.064  1.1224  2.0246 -0.9276
  145MOL   H16835016   5.716   1.264   6.977 -1.3949  0.4545 -2.0256
  145MOL   H16935017   5.573   1.159   6.977  0.2601  1.0763 -1.1144
  145MOL   C17035018   5.641   1.286   7.509 -0.2240 -0.8461 -0.3219
  145MOL   C17135019   5.607   1.140   7.503 -0.0872  0.0547  0.1449
  145MOL   O17235020   5.641   1.083   7.629  0.3767  0.1501 -0.1476
  145MOL   C17335021   5.701   0.960   7.636  0.2095 -0.3184 -0.0152
  145MOL   C17435022   5.745   0.927   7.773 -0.2799  0.1835 -0.2787
  145MOL   O17535023   5.718   0.893   7.538 -0.2668  0.4614  0.4940
  145MOL   H17635024   5.740   1.281   7.554 -0.2929  1.8399  0.1898
  145MOL   H17735025   5.576   1.331   7.583  2.5296  0.8688  1.1223
  145MOL   H17835026   5.669   1.102   7.423 -1.5971 -1.6097 -0.2840
  145MOL   H17935027   5.846   0.886   7.774 -1.1024 -1.8723  1.6029
  145MOL   H18035028   5.683   0.850   7.818 -1.0552  1.5556  1.0188
  145MOL   H18135029   5.743   1.015   7.838  2.9156 -1.0551  1.6085
  145MOL   C18235030   5.458   1.116   7.469  0.6247  0.4579  1.0288
  145MOL   C18335031   5.426   0.971   7.427 -0.0542  0.0595  0.0306
  145MOL   O18435032   5.288   0.942   7.405 -0.1034 -0.2795  0.2128
  145MOL   C18535033   5.213   0.994   7.307 -0.1758 -0.2742  0.1066
  145MOL   C18635034   5.080   0.923   7.303 -0.5764  0.2520  0.4116
  145MOL   O18735035   5.249   1.080   7.223  0.3255 -0.2920  0.7221
  145MOL   H18835036   5.383   1.149   7.541 -1.8661 -2.2531 -0.1945
  145MOL   H18935037   5.432   1.173   7.380 -0.4390  0.0425  1.0571
  145MOL   H19035038   5.448   0.908   7.514  1.3914  1.6108  0.8374
  145MOL   H19135039   5.099   0.817   7.321  0.3097  0.2213 -0.6429
  145MOL   H19235040   5.039   0.942   7.204  1.2669 -0.3243 -0.4909
  145MOL   H19335041   5.016   0.974   7.375 -1.8672  0.9881 -1.2200
  145MOL   C19435042   5.508   0.924   7.304  0.4770 -0.6712  0.2342
  145MOL   C19535043   5.481   0.779   7.263 -0.4262 -0.0533  0.3821
  145MOL   O19635044   5.567   0.756   7.144 -0.7178  0.0317  0.0865
  145MOL   C19735045   5.524   0.786   7.022 -0.0604  0.1148  1.1680
  145MOL   C19835046   5.608   0.717   6.917 -0.0903  0.1330 -0.1386
  145MOL   O19935047   5.413   0.845   6.995 -0.5103 -0.2213  0.2568
  145MOL   H20035048   5.497   0.993   7.221  1.0273  0.1749  0.8519
  145MOL   H20135049   5.615   0.924   7.326  0.4791 -0.1899  0.2314
  145MOL   H20235050   5.375   0.766   7.241 -0.7968  3.5289 -0.2153
  145MOL   H20335051   5.621   0.613   6.944  0.7232  1.1104  3.4021
  145MOL   H20435052   5.710   0.752   6.930 -0.1417  1.1892 -2.2612
  145MOL   H20535053   5.568   0.739   6.818 -1.4399  0.0295  0.3756
  145MOL   C20635054   5.521   0.682   7.379 -0.2811  0.2396  0.5094
  145MOL   C20735055   5.484   0.541   7.358  0.8332 -0.1942 -0.0737
  145MOL   O20835056   5.574   0.470   7.266 -0.2057 -0.2888 -0.3124
  145MOL   C20935057   5.533   0.424   7.149 -0.0777 -0.4868 -0.1080
  145MOL   C21035058   5.637   0.346   7.068  0.0034  0.3414  0.0902
  145MOL   O21135059   5.419   0.441   7.110  0.0765  0.8968  0.0917
  145MOL   H21235060   5.622   0.680   7.420 -1.0182 -0.7529  2.3243
  145MOL   H21335061   5.461   0.715   7.464  2.7173  1.6831  2.1715
  145MOL   H21435062   5.385   0.544   7.312  1.2520 -0.4763 -0.9967
  145MOL   H21535063   5.696   0.282   7.134 -1.1799  0.3318  1.1652
  145MOL   H21635064   5.702   0.417   7.017 -1.5803  1.5033 -0.3456
  145MOL   H21735065   5.596   0.278   6.993  0.9391  0.7657 -0.8312
  145MOL   C21835066   5.465   0.456   7.482  0.6410  0.1403 -0.5556
  145MOL   C21935067   5.326   0.483   7.543 -0.2825 -0.0643 -0.8314
  145MOL   O22035068   5.235   0.419   7.458  0.1326 -0.2523 -0.4117
  145MOL   C22135069   5.135   0.491   7.403 -0.2516  0.0934 -0.5667
  145MOL   C22235070   5.050   0.396   7.309 -0.1844  0.7457 -0.0334
  145MOL   O22335071   5.107   0.614   7.424 -0.0158 -0.0907 -0.2966
  145MOL   H22435072   5.480   0.350   7.461 -3.2659 -0.3516 -1.3233
  145MOL   H22535073   5.545   0.491   7.547  0.5018  0.3977 -0.5218
  145MOL   H22635074   5.316   0.592   7.545 -0.9914 -0.1540  1.2024
  145MOL   H22735075   4.956   0.450   7.297 -1.3127 -1.3143 -0.9180
  145MOL   H22835076   5.028   0.300   7.358 -2.6597  1.2930 -0.0055
  145MOL   H22935077   5.084   0.368   7.210  0.4903  0.9533  0.1405
  145MOL   C23035078   5.312   0.430   7.686  0.3806  1.0919  0.2696
  145MOL   C23135079   5.206   0.496   7.771  0.1525 -0.3416  0.6276
  145MOL   O23235080   5.223   0.460   7.904 -0.2850 -0.2224 -0.0903
  145MOL   C23335081   5.160   0.521   7.990  0.4256  0.6092 -0.8541
  145MOL   C23435082   5.155   0.447   0.101  0.0954 -0.3282 -0.2639
  145MOL   O23535083   5.085   0.619   7.972 -0.5257 -0.5471 -0.1443
  145MOL   H23635084   5.302   0.322   7.691  1.5039  0.8443 -2.1055
  145MOL   H23735085   5.405   0.440   7.743  1.6570 -1.2363 -1.3169
  145MOL   H23835086   5.108   0.457   7.743  0.1456 -1.2019  1.8128
  145MOL   H23935087   5.052   0.418   0.123  0.6240 -2.5074 -0.5852
  145MOL   H24035088   5.188   0.505   0.188 -0.3137 -0.8176  0.2203
  145MOL   H24135089   5.222   0.362   0.094  0.9887  0.1709  1.8653
  145MOL   H24235090   5.214   0.604   7.761  0.2327 -0.3599  0.4951
  146MOL     C135091   1.203   6.900   3.604 -0.1102 -0.0470 -0.2097
  146MOL     C235092   1.181   6.969   3.740  0.9187  0.3273  0.1962
  146MOL     O335093   1.298   7.051   3.765 -0.5653  0.2398  0.5351
  146MOL     C435094   1.363   7.026   3.873  0.0254  0.5228 -0.0262
  146MOL     C535095   1.474   7.132   3.883 -0.1841  0.5947 -0.2669
  146MOL     O635096   1.343   6.947   3.962 -0.0017  0.2212  0.4595
  146MOL     H735097   1.131   6.826   3.569 -0.2878  0.0656 -0.0837
  146MOL     H835098   1.297   6.845   3.613 -0.6895 -0.9165  0.6042
  146MOL     H935099   1.172   6.883   3.806  1.1779  0.1537  0.0048
  146MOL    H1035100   1.552   7.107   3.955  1.1622  0.4605 -1.7504
  146MOL    H1135101   1.423   7.224   3.911 -1.9812  0.2190 -2.1601
  146MOL    H1235102   1.528   7.143   3.789  0.1450 -1.4999 -0.3455
  146MOL    H1335103   1.214   6.968   3.520 -0.8211 -0.8519 -0.9551
  146MOL    C1435104   1.055   7.049   3.756  0.0609  0.3159  0.3572
  146MOL    C1535105   0.923   6.975   3.741 -0.1391 -0.2890  0.6213
  146MOL    O1635106   0.838   6.988   3.857 -0.3726  0.0672  0.0092
  146MOL    C1735107   0.793   6.877   3.916 -0.1022  0.0661 -0.5055
  146MOL    C1835108   0.690   6.911   4.019  0.4839  0.2322 -0.8598
  146MOL    O1935109   0.839   6.765   3.889  0.6402  0.3888  0.5648
  146MOL    H2035110   1.056   7.081   3.861  0.3503 -0.6060  0.6409
  146MOL    H2135111   1.057   7.141   3.698 -0.6754 -0.2617 -0.5951
  146MOL    H2235112   0.958   6.874   3.723  1.1290 -0.0307  1.5910
  146MOL    H2335113   0.636   6.999   3.983  1.8531  0.0867 -3.3423
  146MOL    H2435114   0.724   6.944   4.117 -0.8628 -1.0555  0.0744
  146MOL    H2535115   0.618   6.830   4.037  0.5037  0.5265  0.6484
  146MOL    C2635116   0.849   7.030   3.618  0.4300  0.0512  0.4750
  146MOL    C2735117   0.730   6.955   3.561 -0.1276 -0.5300 -0.2868
  146MOL    O2835118   0.629   6.982   3.648 -0.4937  0.1515  0.2030
  146MOL    C2935119   0.522   6.900   3.668 -0.3148  0.4952 -0.0759
  146MOL    C3035120   0.420   6.938   3.771 -0.3504  0.2422  0.2034
  146MOL    O3135121   0.510   6.789   3.614 -0.2918  0.0087  0.1651
  146MOL    H3235122   0.825   7.136   3.627  1.5578  0.3678 -0.2110
  146MOL    H3335123   0.929   7.034   3.543  0.1591  0.3547  0.1962
  146MOL    H3435124   0.751   6.848   3.560  0.6767 -0.4158  1.6951
  146MOL    H3535125   0.426   6.874   3.859 -0.5031  0.1330  0.1342
  146MOL    H3635126   0.316   6.929   3.741 -0.4148 -3.1766  1.2217
  146MOL    H3735127   0.431   7.042   3.800 -0.9395  0.1393  0.7909
  146MOL    C3835128   0.699   7.013   3.419  0.2141 -0.0655  0.0247
  146MOL    C3935129   0.791   6.974   3.304  0.7822 -0.5522  0.0879
  146MOL    O4035130   0.791   6.835   3.293 -0.1004 -0.2241 -0.4592
  146MOL    C4135131   0.906   6.764   3.291  0.6313  0.8544  0.5955
  146MOL    C4235132   0.890   6.617   3.251 -0.0080 -0.1478  0.2546
  146MOL    O4335133   1.020   6.814   3.298 -0.5717 -0.0892  0.1933
  146MOL    H4435134   0.600   6.980   3.384  1.1575 -0.3350 -2.4800
  146MOL    H4535135   0.703   7.121   3.427  0.5347  0.0431 -1.4529
  146MOL    H4635136   0.892   7.004   3.334 -0.1562  1.5576  1.2639
  146MOL    H4735137   0.881   6.564   3.346  0.2501 -1.3552 -0.3974
  146MOL    H4835138   0.980   6.588   3.198 -1.9295 -2.1719 -2.0061
  146MOL    H4935139   0.805   6.597   3.187 -0.5607  0.9226  0.6293
  146MOL    C5035140   0.746   7.046   3.179 -0.5284 -0.4140  0.4844
  146MOL    C5135141   0.779   7.200   3.150 -0.0034  0.4260  0.5783
  146MOL    O5235142   0.918   7.204   3.108  0.1466 -0.4447  0.2339
  146MOL    C5335143   1.018   7.201   3.201 -0.1920 -0.0273  0.3341
  146MOL    C5435144   1.156   7.187   3.151  1.1414  0.3678  0.5406
  146MOL    O5535145   0.996   7.208   3.322 -0.7132 -0.6175 -0.2448
  146MOL    H5635146   0.782   6.982   3.099  0.0087  0.6431 -0.1329
  146MOL    H5735147   0.639   7.030   3.166 -0.5878 -1.6106  2.2652
  146MOL    H5835148   0.766   7.255   3.243  0.8982 -0.7028  1.3850
  146MOL    H5935149   1.164   7.138   3.054  0.8052  1.1693  0.1046
  146MOL    H6035150   1.229   7.136   3.216  0.3280 -0.8920  0.4750
  146MOL    H6135151   1.187   7.291   3.136  1.4322  0.3399  0.9354
  146MOL    C6235152   0.702   7.257   3.036  0.8400 -0.1622 -0.7642
  146MOL    C6335153   0.724   7.408   3.004 -0.7269  0.1081  0.1697
  146MOL    O6435154   0.650   7.448   2.885  0.2924  0.3295 -0.0984
  146MOL    C6535155   0.715   7.458   2.770  0.4766 -0.0195  0.3644
  146MOL    C6635156   0.631   7.458   2.648  0.8725 -0.5640  0.1932
  146MOL    O6735157   0.831   7.470   2.758 -0.4879  0.2456  0.8412
  146MOL    H6835158   0.692   7.192   2.950 -2.5803 -0.1321 -0.4598
  146MOL    H6935159   0.600   7.256   3.076  0.0076  0.3090 -2.7933
  146MOL    H7035160   0.829   7.431   2.985  0.0681 -1.5513  2.3603
  146MOL    H7135161   0.689   7.495   2.563 -0.6495  2.1841  0.3017
  146MOL    H7235162   0.540   7.518   2.648  0.6020 -0.8749  3.8261
  146MOL    H7335163   0.594   7.359   2.623 -1.5143  0.0880  1.0112
  146MOL    C7435164   0.677   7.509   3.111 -0.6877 -0.0363  0.2566
  146MOL    C7535165   0.792   7.587   3.175 -0.0589  0.2921  0.3073
  146MOL    O7635166   0.844   7.670   3.072  0.2097  0.3015  0.5177
  146MOL    C7735167   0.964   7.642   3.016 -0.3053  0.1180 -0.2215
  146MOL    C7835168   0.995   7.731   2.892 -0.0434 -0.2447 -0.6712
  146MOL    O7935169   1.047   7.561   3.060  0.3086  0.1301  0.2650
  146MOL    H8035170   0.606   7.578   3.064  0.4005  0.1519 -1.1614
  146MOL    H8135171   0.627   7.452   3.190 -0.6213 -2.5023 -1.4154
  146MOL    H8235172   0.868   7.522   3.217  0.0330 -0.6413 -1.2553
  146MOL    H8335173   1.058   7.666   2.831  0.8573  0.5650 -0.6122
  146MOL    H8435174   1.060   7.817   2.910 -1.7326  0.5957  1.6721
  146MOL    H8535175   0.908   7.762   2.835  0.5280  1.0065 -0.8770
  146MOL    C8635176   0.747   7.675   3.291  0.0002 -0.1211 -0.0548
  146MOL    C8735177   0.751   7.601   3.429  0.1929 -0.4999 -0.0163
  146MOL    O8835178   0.891   7.585   3.446 -0.0363 -0.3359  0.7239
  146MOL    C8935179   0.935   7.472   3.501  0.1338  0.0203  0.5697
  146MOL    C9035180   1.089   7.468   3.498  0.8075  0.0686  0.1506
  146MOL    O9135181   0.861   7.384   3.553 -0.0736  0.4013 -0.2304
  146MOL    H9235182   0.806   7.766   3.304  0.6904 -0.6779  0.7305
  146MOL    H9335183   0.648   7.720   3.279  0.2758  0.1511 -1.3827
  146MOL    H9435184   0.695   7.507   3.421 -2.0304  0.8256 -0.2194
  146MOL    H9535185   1.112   7.425   3.596  1.2717  2.6863  1.2191
  146MOL    H9635186   1.129   7.569   3.507  1.8096 -0.0623 -2.6026
  146MOL    H9735187   1.137   7.419   3.414  1.3276  0.7852  0.0278
  146MOL    C9835188   0.701   7.692   3.540  0.5330 -0.1976 -0.8980
  146MOL    C9935189   0.676   7.625   3.680  0.4522  0.5191 -0.1537
  146MOL   O10035190   0.626   7.720   3.771 -0.0691 -0.0280  0.0887
  146MOL   C10135191   0.700   7.765   3.877  0.5142  1.0968 -0.5609
  146MOL   C10235192   0.612   7.858   3.966 -0.1956  0.2047 -0.0891
  146MOL   O10335193   0.817   7.738   3.907 -0.1429  0.1901 -0.2016
  146MOL   H10435194   0.765   7.777   3.562 -1.8943  0.9873  1.8773
  146MOL   H10535195   0.607   7.736   3.505 -0.8250 -3.3956 -1.4362
  146MOL   H10635196   0.761   7.565   3.712 -0.4150 -1.1039 -0.8251
  146MOL   H10735197   0.679   7.915   4.030 -0.5110  0.7371 -0.2348
  146MOL   H10835198   0.546   7.794   4.026  0.0556  0.0403  0.0106
  146MOL   H10935199   0.561   7.922   3.893  1.5775 -0.0942 -1.6280
  146MOL   C11035200   0.560   7.521   3.672 -0.0055 -0.3043 -0.2878
  146MOL   C11135201   0.509   7.444   3.803 -1.2097  0.2442  0.8348
  146MOL   O11235202   0.379   7.401   3.784 -0.3009 -0.0514 -0.9248
  146MOL   C11335203   0.277   7.471   3.826  0.4275  0.4108 -0.3503
  146MOL   C11435204   0.148   7.395   3.817 -0.0548 -0.0395 -0.1753
  146MOL   O11535205   0.286   7.585   3.877  0.0558  0.9474 -0.1781
  146MOL   H11635206   0.476   7.574   3.628  0.1474  1.1492  1.1500
  146MOL   H11735207   0.589   7.441   3.603 -0.1966 -0.6516  0.0327
  146MOL   H11835208   0.514   7.508   3.891  2.8698 -0.1472  1.0041
  146MOL   H11935209   0.078   7.465   3.771 -0.5081 -0.1963  0.2643
  146MOL   H12035210   0.105   7.367   3.914 -1.6204 -0.0496 -0.8638
  146MOL   H12135211   0.166   7.313   3.748  3.0838  0.2696  0.1999
  146MOL   C12235212   0.600   7.329   3.841  1.0123  0.6678  0.6271
  146MOL   C12335213   0.715   7.376   3.929 -0.4694 -0.1448 -0.2402
  146MOL   O12435214   0.668   7.443   4.044 -0.2338  0.1548  0.7775
  146MOL   C12535215   0.622   7.392   4.154  0.8157 -0.7888 -0.0604
  146MOL   C12635216   0.588   7.493   4.268  0.0688 -0.6217 -0.0792
  146MOL   O12735217   0.602   7.273   4.182  0.1197 -0.3384  0.1583
  146MOL   H12835218   0.550   7.247   3.893 -1.9507  1.2402 -1.1989
  146MOL   H12935219   0.625   7.277   3.749 -2.5390  0.0720 -0.0865
  146MOL   H13035220   0.770   7.458   3.882  0.9935 -0.2711  1.1799
  146MOL   H13135221   0.616   7.593   4.235 -1.1404 -0.2231  0.0486
  146MOL   H13235222   0.635   7.474   4.364  0.3139 -1.0127 -0.2767
  146MOL   H13335223   0.480   7.481   4.280  0.2291 -1.2049  0.7830
  146MOL   C13435224   0.825   7.274   3.971  0.0478  0.5124  0.0124
  146MOL   C13535225   0.957   7.333   4.035  0.4335  0.1360  0.7360
  146MOL   O13635226   1.037   7.221   4.060 -0.1710  0.0538 -0.1517
  146MOL   C13735227   1.095   7.208   4.182 -0.1203  0.0363  0.4585
  146MOL   C13835228   1.175   7.084   4.189  0.3295  0.5872  0.0428
  146MOL   O13935229   1.105   7.291   4.271 -0.1963  0.1358 -0.5680
  146MOL   H14035230   0.777   7.200   4.035 -1.2890  1.2655 -0.0933
  146MOL   H14135231   0.835   7.227   3.873  0.2316 -0.8489  0.6709
  146MOL   H14235232   0.936   7.393   4.124 -0.3306  1.5871 -0.4041
  146MOL   H14335233   1.169   7.031   4.284  0.8453 -2.2303 -1.4469
  146MOL   H14435234   1.280   7.112   4.178  0.2036  0.5832 -1.2199
  146MOL   H14535235   1.128   7.025   4.111 -3.7363  0.6023  2.3458
  146MOL   C14635236   1.040   7.420   3.943 -0.1445 -0.2325 -0.2187
  146MOL   C14735237   1.135   7.520   4.010 -0.7855 -0.7604 -0.0292
  146MOL   O14835238   1.233   7.573   3.916  0.4081 -0.0963  0.3362
  146MOL   C14935239   1.360   7.593   3.949 -0.4364  0.4115 -0.1318
  146MOL   C15035240   1.428   7.664   3.837  0.1582  0.3650 -0.3935
  146MOL   O15135241   1.409   7.574   4.063 -0.1788 -0.1321 -0.6983
  146MOL   H15235242   1.097   7.365   3.869 -0.9132  0.3862 -1.2823
  146MOL   H15335243   0.977   7.473   3.872 -1.7267 -0.4129  1.0031
  146MOL   H15435244   1.188   7.459   4.084 -0.0202 -0.0430  0.0251
  146MOL   H15535245   1.469   7.598   3.761  1.1012  1.8773 -1.2244
  146MOL   H15635246   1.511   7.728   3.869 -0.6862  1.4310 -0.2924
  146MOL   H15735247   1.350   7.726   3.792  1.2815  0.6245 -2.0023
  146MOL   C15835248   1.061   7.642   4.070  0.0145  0.5646  0.3293
  146MOL   C15935249   1.142   7.712   4.179  0.0239 -0.3026  0.3279
  146MOL   O16035250   1.118   7.854   4.168 -0.9481 -0.2422 -0.1109
  146MOL   C16135251   1.201   7.928   4.091  0.2184 -0.4633 -0.3933
  146MOL   C16235252   1.149   0.048   4.077 -0.2683 -0.0260  0.1152
  146MOL   O16335253   1.298   7.892   4.032  0.2258  0.1218  0.0880
  146MOL   H16435254   1.041   7.705   3.983  0.0795 -0.2500 -0.2793
  146MOL   H16535255   0.964   7.616   4.111  0.1842 -0.8809 -0.1365
  146MOL   H16635256   1.249   7.698   4.165 -0.7402 -2.2907 -4.0605
  146MOL   H16735257   1.087   0.051   3.988  1.0315 -1.6745 -0.8916
  146MOL   H16835258   1.231   0.117   4.059 -0.1110 -0.1303  0.4243
  146MOL   H16935259   1.093   0.095   4.157  2.0023  1.2963  0.9732
  146MOL   C17035260   1.094   7.672   4.327 -0.1882  0.5853 -0.1689
  146MOL   C17135261   1.178   7.733   4.441  0.0048 -0.0812  0.0627
  146MOL   O17235262   1.117   7.703   4.567 -0.2869  0.1016  0.0194
  146MOL   C17335263   1.162   7.769   4.676 -0.3529  0.5591 -0.2052
  146MOL   C17435264   1.078   7.744   4.809  0.1605 -0.0166 -0.0905
  146MOL   O17535265   1.246   7.861   4.682  0.6341  0.5291 -0.2157
  146MOL   H17635266   0.995   7.717   4.340  0.9653  2.9305  0.7462
  146MOL   H17735267   1.082   7.565   4.336  1.0678  0.4552  0.0157
  146MOL   H17835268   1.168   7.840   4.421  0.5458  0.5655  3.0826
  146MOL   H17935269   0.971   7.759   4.794  0.0049  1.0884  1.8280
  146MOL   H18035270   1.090   7.836   4.867  0.4772 -0.7086  0.9566
  146MOL   H18135271   1.109   7.662   4.874 -0.6311 -1.1932 -1.1892
  146MOL   C18235272   1.324   7.679   4.438 -0.5441  0.1679 -0.1063
  146MOL   C18335273   1.425   7.775   4.376 -0.3053 -0.5639  0.7667
  146MOL   O18435274   1.447   7.881   4.468 -1.0182  0.2147 -0.2693
  146MOL   C18535275   1.398   8.011   4.450  0.0043 -0.3629  0.1542
  146MOL   C18635276   1.427   0.077   4.567  0.2914 -0.1038  0.4486
  146MOL   O18735277   1.328   0.033   4.350 -0.3184  0.4486  0.5094
  146MOL   H18835278   1.349   7.653   4.541 -4.1632 -2.3763  0.2569
  146MOL   H18935279   1.325   7.580   4.391 -0.4490 -0.4704  1.2154
  146MOL   H19035280   1.384   7.825   4.289  0.9950  2.3756  1.7991
  146MOL   H19135281   1.377   0.048   4.659 -0.9727 -0.6475 -0.3996
  146MOL   H19235282   1.399   0.179   4.543 -0.7423 -0.3707  0.4955
  146MOL   H19335283   1.536   0.075   4.577  0.1372 -0.2891  2.2243
  146MOL   C19435284   1.566   7.718   4.347 -0.1130  0.4364 -0.4325
  146MOL   C19535285   1.668   7.811   4.266 -0.2249 -0.1399  0.0657
  146MOL   O19635286   1.695   7.926   4.347 -0.4805  0.2467 -0.1356
  146MOL   C19735287   1.730   0.027   4.298 -0.4699  0.4195  0.9681
  146MOL   C19835288   1.774   0.122   4.411  0.0673 -0.4596 -0.2163
  146MOL   O19935289   1.732   0.055   4.180 -0.3581 -0.1077  0.5714
  146MOL   H20035290   1.624   7.678   4.431 -0.5997  0.9724  0.1618
  146MOL   H20135291   1.553   7.630   4.284 -3.1059  2.0276 -2.1590
  146MOL   H20235292   1.604   7.842   4.182  0.1694 -1.9098 -0.9203
  146MOL   H20335293   1.883   0.127   4.407  0.0315 -1.5742 -3.1169
  146MOL   H20435294   1.735   0.082   4.505 -0.8499  0.7541 -0.0643
  146MOL   H20535295   1.730   0.221   4.399  0.1681 -0.1755  1.5955
  146MOL   C20635296   1.800   7.747   4.225 -0.2011  0.7410  0.2695
  146MOL   C20735297   1.776   7.631   4.131  0.1703  0.0690  0.1062
  146MOL   O20835298   1.819   7.664   3.996 -0.3410 -0.6588 -0.2674
  146MOL   C20935299   1.785   7.592   3.888  0.3945  0.4873  0.3314
  146MOL   C21035300   1.853   7.642   3.765  0.1122  0.1484  0.1262
  146MOL   O21135301   1.713   7.495   3.892 -0.3355  0.6106  0.1732
  146MOL   H21235302   1.861   7.828   4.184  0.9551 -0.1758  0.1677
  146MOL   H21335303   1.864   7.716   4.308 -1.3821 -0.6072  0.6979
  146MOL   H21435304   1.673   7.597   4.118  0.3788  0.6664 -4.0273
  146MOL   H21535305   1.837   7.563   3.692 -1.3554  0.4182  0.1276
  146MOL   H21635306   1.956   7.667   3.791  0.3337 -1.3237  0.7121
  146MOL   H21735307   1.800   7.730   3.728  0.9204  0.5781 -0.0053
  146MOL   C21835308   1.859   7.511   4.175 -0.3477 -0.3374  0.1815
  146MOL   C21935309   1.837   7.459   4.323 -0.0366  0.6611 -0.2001
  146MOL   O22035310   1.738   7.354   4.312  0.0114  0.1997  0.0536
  146MOL   C22135311   1.625   7.355   4.379  0.0320 -0.0235 -0.8072
  146MOL   C22235312   1.513   7.292   4.304  0.1948 -0.4612 -0.7604
  146MOL   O22335313   1.602   7.410   4.482  0.0320  0.3779 -0.1311
  146MOL   H22435314   1.833   7.427   4.110 -2.4494 -0.3832  1.0566
  146MOL   H22535315   1.965   7.524   4.154 -0.6136  0.3610 -0.7668
  146MOL   H22635316   1.801   7.531   4.396 -2.3188 -0.9124  0.2887
  146MOL   H22735317   1.477   7.207   4.362 -0.3596 -0.9963 -1.8794
  146MOL   H22835318   1.535   7.268   4.200  2.6587 -2.4458  0.1664
  146MOL   H22935319   1.439   7.372   4.298 -0.1876 -0.4929  2.4478
  146MOL   C23035320   1.961   7.404   4.397  0.1404 -0.8718  0.1271
  146MOL   C23135321   2.061   7.499   4.453 -0.7382 -0.2720 -0.2981
  146MOL   O23235322   2.105   7.596   4.359  0.0004  0.5364  0.1928
  146MOL   C23335323   2.233   7.622   4.340 -0.0757 -0.6181 -0.2948
  146MOL   C23435324   2.260   7.717   4.222 -0.1552  0.3163  0.5721
  146MOL   O23535325   2.324   7.573   4.405  0.5391  0.4289 -0.7563
  146MOL   H23635326   1.931   7.330   4.471  2.7596 -0.8508  1.2534
  146MOL   H23735327   2.014   7.346   4.321  2.3629  2.0250 -0.5989
  146MOL   H23835328   2.148   7.461   4.508  0.1936  4.1912  1.5563
  146MOL   H23935329   2.367   7.724   4.200 -0.3993  1.4136 -0.3253
  146MOL   H24035330   2.223   7.814   4.255  1.8509  1.1680  0.4083
  146MOL   H24135331   2.212   7.683   4.130 -1.4154 -2.8067  2.3287
  146MOL   H24235332   2.003   7.556   4.526 -0.1106  0.4189 -0.3262
  147MOL     C135333   3.969   1.961   5.958  0.1292 -0.2756  0.3297
  147MOL     C235334   4.065   1.890   5.868 -0.1797  0.8304  0.5990
  147MOL     O335335   4.084   1.965   5.751  0.2545 -0.2934  0.6427
  147MOL     C435336   4.073   1.917   5.624 -0.0553 -0.0499  0.8084
  147MOL     C535337   4.134   2.003   5.517 -0.0720 -0.4549 -0.9107
  147MOL     O635338   4.026   1.804   5.587  0.2738  0.1483 -0.2319
  147MOL     H735339   3.874   1.978   5.906  1.5843 -1.9613 -3.0149
  147MOL     H835340   4.015   2.050   6.002 -0.1909 -0.7902  1.7375
  147MOL     H935341   4.008   1.801   5.841  2.1211 -0.2958 -0.6505
  147MOL    H1035342   4.208   1.946   5.460  0.7227 -1.3453  0.9844
  147MOL    H1135343   4.183   2.085   5.570 -1.4212  0.0627 -0.4497
  147MOL    H1235344   4.060   2.046   5.449 -1.4727 -3.2009 -1.1985
  147MOL    H1335345   3.955   1.886   6.036 -0.6167  1.8248  2.2645
  147MOL    C1435346   4.197   1.870   5.945  0.1025 -0.0194 -0.4428
  147MOL    C1535347   4.201   1.731   6.016  0.5915  0.3892 -0.1267
  147MOL    O1635348   4.246   1.644   5.916 -0.2519  0.0444 -0.1280
  147MOL    C1735349   4.173   1.546   5.877 -0.0812  0.0769 -0.3421
  147MOL    C1835350   4.235   1.485   5.759 -0.2187 -0.6254 -0.2198
  147MOL    O1935351   4.064   1.513   5.927 -0.2386 -0.0831 -0.1411
  147MOL    H2035352   4.266   1.874   5.861  0.1351  0.2458 -0.4035
  147MOL    H2135353   4.221   1.950   6.014  0.1445 -1.1019  0.8259
  147MOL    H2235354   4.099   1.710   6.050  0.3706 -0.5724 -1.3451
  147MOL    H2335355   4.211   1.533   5.664  0.6700 -1.7416 -1.0293
  147MOL    H2435356   4.189   1.386   5.758 -1.0155 -0.2548 -0.5324
  147MOL    H2535357   4.343   1.480   5.771 -0.1637  1.8081  0.5041
  147MOL    C2635358   4.300   1.706   6.122  0.2011 -0.4105  0.1017
  147MOL    C2735359   4.276   1.571   6.199  0.0529 -0.5110 -0.1378
  147MOL    O2835360   4.394   1.532   6.267 -0.2459 -0.2861  0.6338
  147MOL    C2935361   4.486   1.436   6.202 -0.0718 -0.0779 -0.7905
  147MOL    C3035362   4.616   1.430   6.281 -0.5310 -0.3195 -0.5032
  147MOL    O3135363   4.470   1.371   6.098  0.3034  0.0401 -0.6059
  147MOL    H3235364   4.397   1.714   6.073  0.6410 -0.4439  0.9583
  147MOL    H3335365   4.297   1.783   6.199  0.2158 -0.5761  0.2709
  147MOL    H3435366   4.253   1.491   6.129  0.8216 -0.3108 -0.6230
  147MOL    H3535367   4.684   1.352   6.244  0.9139  0.0870  1.2099
  147MOL    H3635368   4.585   1.407   6.383 -3.9801  0.5567 -1.2892
  147MOL    H3735369   4.682   1.516   6.282 -0.6975 -0.1815 -1.0819
  147MOL    C3835370   4.165   1.583   6.309  0.0527 -0.0900 -0.1900
  147MOL    C3935371   4.071   1.461   6.294  0.1186  0.5838 -0.1985
  147MOL    O4035372   4.149   1.354   6.342  0.1563 -0.0065  0.4592
  147MOL    C4135373   4.169   1.239   6.273  0.4563  0.2086  0.0258
  147MOL    C4235374   4.270   1.151   6.352  0.1803  0.3407  0.1207
  147MOL    O4335375   4.118   1.210   6.166 -0.3356 -0.7861  0.4372
  147MOL    H4435376   4.211   1.593   6.407 -1.5710 -1.2848  0.7173
  147MOL    H4535377   4.101   1.667   6.283  0.2846 -0.0640 -0.6872
  147MOL    H4635378   4.048   1.447   6.188  0.2288  0.7775 -0.2483
  147MOL    H4735379   4.344   1.217   6.399  2.2527 -2.8865  1.5825
  147MOL    H4835380   4.329   1.078   6.296 -4.0279 -1.3772 -2.3008
  147MOL    H4935381   4.226   1.076   6.418  0.8135 -0.2099 -0.0814
  147MOL    C5035382   3.944   1.470   6.373 -1.0790 -0.2381 -0.5955
  147MOL    C5135383   3.823   1.539   6.300 -0.5603  0.3571  0.0769
  147MOL    O5235384   3.843   1.679   6.309  0.4786 -0.0891  0.5702
  147MOL    C5335385   3.742   1.757   6.349 -0.4662  0.3522 -0.4783
  147MOL    C5435386   3.750   1.893   6.289  0.4694  0.4894  0.1771
  147MOL    O5535387   3.641   1.726   6.411  0.0103  0.4430  0.0600
  147MOL    H5635388   3.905   1.372   6.400 -0.8592  0.0589  0.8383
  147MOL    H5735389   3.950   1.512   6.473 -0.2861 -2.5482  0.3491
  147MOL    H5835390   3.736   1.512   6.360  0.4851 -1.0221  1.0091
  147MOL    H5935391   3.798   1.958   6.363 -0.1233  1.5677 -0.3651
  147MOL    H6035392   3.650   1.922   6.256  0.3371 -0.3117 -0.1318
  147MOL    H6135393   3.818   1.904   6.205  0.8337  0.8365  0.5139
  147MOL    C6235394   3.806   1.497   6.151 -0.2712  0.1157 -1.1558
  147MOL    C6335395   3.671   1.535   6.083 -0.5321  0.1655  0.1573
  147MOL    O6435396   3.706   1.542   5.941  0.3711  0.7917 -0.3013
  147MOL    C6535397   3.716   1.656   5.881 -0.3279  0.1493 -0.2373
  147MOL    C6635398   3.765   1.654   5.738 -0.6744 -0.2280 -0.2043
  147MOL    O6735399   3.691   1.766   5.937  0.3534  0.5933  0.3849
  147MOL    H6835400   3.879   1.556   6.096 -1.0124  3.5487  1.3871
  147MOL    H6935401   3.831   1.393   6.131  0.7754  0.8354 -3.8693
  147MOL    H7035402   3.636   1.632   6.118  0.0917  0.2599  0.5301
  147MOL    H7135403   3.874   1.652   5.738 -0.6840 -2.4899 -1.1077
  147MOL    H7235404   3.726   1.729   5.670  1.1701 -0.7185 -1.8609
  147MOL    H7335405   3.739   1.561   5.688  0.8482 -1.2463  0.8322
  147MOL    C7435406   3.563   1.428   6.111  0.4299 -0.2127 -0.5408
  147MOL    C7535407   3.418   1.460   6.064 -0.3482  0.1195 -0.3937
  147MOL    O7635408   3.341   1.341   6.092 -0.4607 -0.1315  0.2365
  147MOL    C7735409   3.252   1.291   6.007  0.3979  0.1594 -0.8730
  147MOL    C7835410   3.192   1.167   6.068 -0.1480  0.2682  0.3898
  147MOL    O7935411   3.212   1.336   5.901 -0.4744 -0.3867  0.5888
  147MOL    H8035412   3.585   1.335   6.057  3.1033  0.5688 -0.8308
  147MOL    H8135413   3.562   1.400   6.216  0.2455 -0.1148 -0.5161
  147MOL    H8235414   3.425   1.484   5.958 -0.1138  2.2985  0.0919
  147MOL    H8335415   3.140   1.186   6.162 -0.5445  2.0834 -0.1669
  147MOL    H8435416   3.281   1.107   6.088  0.4439  0.6204 -1.0880
  147MOL    H8535417   3.137   1.114   5.991 -1.5068 -0.6204  1.9591
  147MOL    C8635418   3.359   1.580   6.146 -0.3906  0.9487 -0.2501
  147MOL    C8735419   3.216   1.627   6.112 -0.3886 -0.6648 -0.5856
  147MOL    O8835420   3.167   1.721   6.208 -0.0914  0.4386 -0.0865
  147MOL    C8935421   3.135   1.685   6.334 -0.8561  0.8900  1.0109
  147MOL    C9035422   3.066   1.797   6.410 -0.1752 -0.9735 -0.1480
  147MOL    O9135423   3.131   1.568   6.374 -0.1328  0.5951  0.1070
  147MOL    H9235424   3.356   1.549   6.250 -1.9865 -4.1953 -1.6961
  147MOL    H9335425   3.425   1.665   6.130 -0.1376  0.6731 -0.6661
  147MOL    H9435426   3.149   1.541   6.120 -0.1595 -0.9246 -1.4389
  147MOL    H9535427   3.118   1.887   6.380 -0.8941 -0.6760 -0.5241
  147MOL    H9635428   3.066   1.783   6.518  0.4957  2.1116  0.2774
  147MOL    H9735429   2.961   1.796   6.378 -0.7305  1.7540  1.4646
  147MOL    C9835430   3.202   1.693   5.968  0.1707 -0.4432  0.0102
  147MOL    C9935431   3.055   1.740   5.923 -0.3996  0.4954 -0.5219
  147MOL   O10035432   3.072   1.830   5.809 -0.5976  0.3775 -0.2162
  147MOL   C10135433   3.055   1.962   5.829  0.3751  0.7375 -0.0841
  147MOL   C10235434   3.087   2.050   5.712  0.2484  0.2958 -0.9988
  147MOL   O10335435   3.012   2.009   5.933 -0.3009  0.0374 -0.6425
  147MOL   H10435436   3.270   1.779   5.972 -0.7880  0.2579  2.4230
  147MOL   H10535437   3.234   1.628   5.887  0.6192 -1.5014  1.0209
  147MOL   H10635438   3.023   1.798   6.009  1.2742  1.5242 -0.5770
  147MOL   H10735439   3.049   2.024   5.613 -2.5566 -0.8478  0.3313
  147MOL   H10835440   3.196   2.060   5.705  0.2406  3.0120  1.7819
  147MOL   H10935441   3.067   2.148   5.755  0.5567 -0.8283  1.7936
  147MOL   C11035442   2.965   1.624   5.876  0.4241  0.4339  0.1606
  147MOL   C11135443   2.840   1.594   5.964  0.4764 -0.5202 -0.3292
  147MOL   O11235444   2.876   1.568   6.099 -0.1118 -0.1792 -0.2164
  147MOL   C11335445   2.852   1.445   6.145  0.7496  0.3865  0.3657
  147MOL   C11435446   2.905   1.417   6.287  0.3117 -0.4323 -0.0654
  147MOL   O11535447   2.787   1.354   6.087 -0.0005  0.0616 -0.1295
  147MOL   H11635448   2.941   1.654   5.774 -0.4565  3.1187  1.1214
  147MOL   H11735449   3.017   1.531   5.852 -0.7364 -0.0682 -0.4367
  147MOL   H11835450   2.794   1.507   5.917  0.3769 -0.5316 -0.2114
  147MOL   H11935451   2.896   1.513   6.339  0.2067  1.1920 -2.9411
  147MOL   H12035452   3.010   1.389   6.281  0.3325  0.0838 -2.6994
  147MOL   H12135453   2.834   1.351   6.336 -0.0901  0.2826  0.3256
  147MOL   C12235454   2.736   1.701   5.947  0.0836  0.2624 -0.4591
  147MOL   C12335455   2.590   1.665   5.993  0.0121  0.0877 -0.1087
  147MOL   O12435456   2.519   1.792   6.011  0.2575 -0.4820 -0.2265
  147MOL   C12535457   2.531   1.858   6.125  0.5286 -0.1278 -0.3530
  147MOL   C12635458   2.446   1.982   6.139  0.5789 -0.6348 -0.1934
  147MOL   O12735459   2.605   1.824   6.219  0.0149 -0.1042 -0.4519
  147MOL   H12835460   2.766   1.791   6.000 -1.7420 -0.4868  1.9514
  147MOL   H12935461   2.732   1.719   5.840 -0.1893 -0.0944 -0.5116
  147MOL   H13035462   2.598   1.604   6.083  1.3029 -1.7116 -1.4039
  147MOL   H13135463   2.462   2.042   6.049  3.4419 -0.0849  0.6365
  147MOL   H13235464   2.479   2.039   6.226 -1.0793  1.3251 -0.8155
  147MOL   H13335465   2.339   1.965   6.136  0.8405 -2.8815  1.6648
  147MOL   C13435466   2.520   1.572   5.891  0.2032  0.1140  0.2514
  147MOL   C13535467   2.383   1.529   5.935 -0.1522  0.2962 -1.0112
  147MOL   O13635468   2.375   1.524   6.072 -0.2313  0.3001  0.5367
  147MOL   C13735469   2.397   1.397   6.137 -0.9609 -1.0540 -0.2638
  147MOL   C13835470   2.413   1.418   6.286  0.4671 -0.1243 -0.5304
  147MOL   O13935471   2.401   1.293   6.080 -0.0360  0.3603  0.3758
  147MOL   H14035472   2.507   1.623   5.795 -1.2070 -1.2364 -0.2967
  147MOL   H14135473   2.582   1.490   5.855  1.6216  1.3934 -0.2335
  147MOL   H14235474   2.369   1.431   5.890  0.0359 -0.3769  0.3944
  147MOL   H14335475   2.334   1.367   6.340  0.3841  0.9360  0.3745
  147MOL   H14435476   2.404   1.525   6.307 -0.5273 -0.6379  1.8408
  147MOL   H14535477   2.506   1.392   6.338 -0.1964  1.1521  1.3799
  147MOL   C14635478   2.279   1.635   5.886  1.2810 -0.5381  0.2690
  147MOL   C14735479   2.141   1.619   5.957  0.3102  1.4735 -0.2234
  147MOL   O14835480   2.070   1.735   5.923 -0.2014 -0.4197 -0.5477
  147MOL   C14935481   2.037   1.819   6.018 -0.6014  1.0200 -0.0177
  147MOL   C15035482   1.936   1.926   5.971 -0.1570  0.1173 -0.8488
  147MOL   O15135483   2.065   1.809   6.135 -0.1924 -0.2363  0.8082
  147MOL   H15235484   2.299   1.740   5.910 -1.4933  0.3454 -1.0574
  147MOL   H15335485   2.269   1.623   5.779 -0.4439 -1.0300  0.4672
  147MOL   H15435486   2.158   1.606   6.064 -0.4307 -0.5653 -0.3265
  147MOL   H15535487   1.831   1.908   5.995  0.1175 -1.7500 -0.9858
  147MOL   H15635488   1.953   1.929   5.863 -0.6641  3.2793 -0.8918
  147MOL   H15735489   1.972   2.019   6.015  0.3975 -0.8375  0.7413
  147MOL   C15835490   2.048   1.507   5.899 -0.4430 -0.1821 -0.2411
  147MOL   C15935491   1.905   1.498   5.968 -0.4671  0.1883  0.1057
  147MOL   O16035492   1.824   1.410   5.890  0.4092 -0.0222 -0.3658
  147MOL   C16135493   1.741   1.466   5.798  0.2421 -0.1663  0.0387
  147MOL   C16235494   1.706   1.369   5.693  0.5265  0.2388 -0.5740
  147MOL   O16335495   1.693   1.579   5.802  0.3072 -0.6432  0.0930
  147MOL   H16435496   2.029   1.524   5.794 -0.4311 -0.8446 -0.3562
  147MOL   H16535497   2.095   1.408   5.900 -0.9288 -0.4278 -1.0643
  147MOL   H16635498   1.877   1.603   5.963 -1.8744 -0.2285 -0.9575
  147MOL   H16735499   1.651   1.419   5.614 -0.1282 -1.7751 -1.4309
  147MOL   H16835500   1.643   1.289   5.734 -0.5701  0.9451 -0.8756
  147MOL   H16935501   1.799   1.323   5.660  0.1970 -2.1692  1.6347
  147MOL   C17035502   1.896   1.450   6.112  0.2895  0.4028  0.2226
  147MOL   C17135503   1.758   1.478   6.179  0.1834  0.4757  0.8770
  147MOL   O17235504   1.757   1.386   6.287 -0.1388 -0.0122 -0.4504
  147MOL   C17335505   1.683   1.272   6.269  0.6019 -0.2693 -0.2428
  147MOL   C17435506   1.668   1.176   6.390 -0.2247 -0.4282 -0.0878
  147MOL   O17535507   1.630   1.244   6.163 -0.2579  0.2831 -0.3166
  147MOL   H17635508   1.920   1.344   6.108  1.0510  0.5510  0.6478
  147MOL   H17735509   1.975   1.486   6.179  0.8978 -2.2446  0.9849
  147MOL   H17835510   1.678   1.457   6.108  0.3171 -0.6832  1.0642
  147MOL   H17935511   1.607   1.216   6.470  0.5991  0.5606  0.0521
  147MOL   H18035512   1.771   1.157   6.421 -0.8394 -1.1026  1.5568
  147MOL   H18135513   1.618   1.084   6.358 -0.8912  0.0471 -0.4163
  147MOL   C18235514   1.735   1.626   6.217  0.1110  0.4343 -0.3308
  147MOL   C18335515   1.588   1.672   6.258  0.5571 -0.0497 -0.1079
  147MOL   O18435516   1.547   1.630   6.388 -0.3156 -0.0524  0.1039
  147MOL   C18535517   1.452   1.540   6.410 -0.2160 -0.4509  0.5847
  147MOL   C18635518   1.445   1.501   6.553  0.7308  0.5626  0.6689
  147MOL   O18735519   1.384   1.486   6.321 -0.6322 -0.2962 -0.1823
  147MOL   H18835520   1.805   1.662   6.293  0.8787 -0.9515 -0.3617
  147MOL   H18935521   1.752   1.685   6.127  1.1454 -1.5421 -1.4799
  147MOL   H19035522   1.524   1.645   6.174 -1.2480 -0.9090  1.4924
  147MOL   H19135523   1.534   1.527   6.610  1.5013 -1.5700  0.4773
  147MOL   H19235524   1.450   1.393   6.567  0.4514  0.4621  0.0095
  147MOL   H19335525   1.356   1.534   6.606  0.9222  0.2396  1.1860
  147MOL   C19435526   1.573   1.825   6.275  0.1702 -0.3340  0.8329
  147MOL   C19535527   1.431   1.882   6.303 -0.3760 -0.0954 -0.3730
  147MOL   O19635528   1.433   2.022   6.330 -0.5424 -0.1158  0.1401
  147MOL   C19735529   1.469   2.054   6.455 -0.3870  0.2996  0.3860
  147MOL   C19835530   1.467   2.202   6.476 -0.0673 -0.2518 -0.0889
  147MOL   O19935531   1.507   1.975   6.541  0.3885  0.5224 -0.1091
  147MOL   H20035532   1.649   1.861   6.345  0.4047 -0.5502  0.6894
  147MOL   H20135533   1.596   1.863   6.176  0.2110  0.0294  0.9795
  147MOL   H20235534   1.384   1.821   6.381  2.2326 -2.6908 -0.7853
  147MOL   H20335535   1.515   2.229   6.570  0.3959 -1.7791  0.1279
  147MOL   H20435536   1.366   2.243   6.481 -0.2464 -0.4461 -1.7939
  147MOL   H20535537   1.528   2.229   6.390 -1.4450 -0.9514 -1.2934
  147MOL   C20635538   1.336   1.864   6.180 -0.6288  0.2970  0.0284
  147MOL   C20735539   1.186   1.886   6.204 -1.3507  1.1012  0.0262
  147MOL   O20835540   1.147   1.809   6.314  0.7081 -0.1277 -0.3917
  147MOL   C20935541   1.096   1.683   6.295  0.1487  0.0231 -0.1097
  147MOL   C21035542   1.079   1.609   6.424 -0.5415  0.4284  0.2997
  147MOL   O21135543   1.056   1.632   6.185 -0.4743 -0.2031  0.0216
  147MOL   H21235544   1.374   1.919   6.095 -1.5046 -0.0308 -0.5836
  147MOL   H21335545   1.335   1.757   6.162 -1.5776 -0.6128  4.7364
  147MOL   H21435546   1.133   1.850   6.116 -1.6176  0.7376  0.3309
  147MOL   H21535547   0.988   1.640   6.475 -0.6393  1.5010 -0.4999
  147MOL   H21635548   1.164   1.626   6.490 -0.3355  0.5910 -0.0082
  147MOL   H21735549   1.087   1.504   6.396  2.7111  0.6766  0.1670
  147MOL   C21835550   1.144   2.031   6.229 -0.0832  0.0769 -0.0643
  147MOL   C21935551   1.171   2.143   6.122  0.0972 -0.2182  0.2352
  147MOL   O22035552   1.076   2.120   6.013  0.1735 -0.1029 -0.9163
  147MOL   C22135553   1.106   2.084   5.888 -0.0411  1.7051 -0.1132
  147MOL   C22235554   1.004   2.115   5.787  0.0364  0.2017 -0.1234
  147MOL   O22335555   1.216   2.039   5.852  0.2182  0.0438 -0.0372
  147MOL   H22435556   1.038   2.033   6.257  0.0092 -0.0325  0.2951
  147MOL   H22535557   1.170   2.058   6.331  1.5969  2.2169 -1.0050
  147MOL   H22635558   1.273   2.131   6.084  1.5202  2.7630  2.8755
  147MOL   H22735559   1.055   2.159   5.701 -0.3131  3.3956  1.1994
  147MOL   H22835560   0.915   2.172   5.813 -0.7874 -0.8571 -0.5982
  147MOL   H22935561   0.961   2.020   5.755  0.8107 -0.0341 -0.4762
  147MOL   C23035562   1.143   2.284   6.168 -0.3911 -0.3548  0.5257
  147MOL   C23135563   1.003   2.309   6.233 -1.0478 -0.1166  0.4958
  147MOL   O23235564   1.005   2.411   6.334 -0.4245 -0.5480  0.2360
  147MOL   C23335565   1.015   2.380   6.473  0.4206  0.7126  0.3991
  147MOL   C23435566   1.023   2.504   6.561  0.3254  0.0176 -1.0273
  147MOL   O23535567   1.025   2.265   6.521  0.1286 -0.2867 -0.5488
  147MOL   H23635568   1.218   2.317   6.239 -0.0472  1.2753 -0.5592
  147MOL   H23735569   1.152   2.357   6.087 -1.3926  1.1180  1.7039
  147MOL   H23835570   0.962   2.215   6.269  0.1871 -1.3919 -1.3133
  147MOL   H23935571   1.085   2.585   6.522 -0.3207  0.0005 -2.1140
  147MOL   H24035572   1.074   2.461   6.647  0.1994 -2.2269 -2.0390
  147MOL   H24135573   0.925   2.544   6.587 -0.2026 -1.2123 -1.1029
  147MOL   H24235574   0.934   2.328   6.150 -1.0343  0.7552  0.6784
  148MOL     C135575   5.830   4.321   6.961 -0.2969 -0.2048  0.4369
  148MOL     C235576   5.873   4.406   6.831 -0.2704  0.5059 -1.2138
  148MOL     O335577   5.904   4.317   6.719 -0.0704  0.3451  0.5908
  148MOL     C435578   6.021   4.252   6.725 -0.3167  0.3710  0.7687
  148MOL     C535579   6.055   4.176   6.598 -0.0319 -0.1502 -0.2607
  148MOL     O635580   6.101   4.256   6.815 -0.3250  0.4576 -0.5208
  148MOL     H735581   5.748   4.252   6.943 -0.1565 -1.0616  2.9133
  148MOL     H835582   5.799   4.395   7.034  1.4279 -0.4931  1.5022
  148MOL     H935583   5.961   4.467   6.850  1.3177 -1.8444 -0.7554
  148MOL    H1035584   5.969   4.141   6.540 -0.6621  1.3276 -0.2239
  148MOL    H1135585   6.135   4.103   6.615  1.5253  1.5746 -0.0392
  148MOL    H1235586   6.100   4.246   6.529 -0.5221 -1.0644 -1.5362
  148MOL    H1335587   5.912   4.266   7.007  0.4693  0.9877  0.5270
  148MOL    C1435588   5.754   4.494   6.778 -0.0657 -0.1265 -0.1622
  148MOL    C1535589   5.780   4.584   6.658  0.1109  0.0548  0.1967
  148MOL    O1635590   5.654   4.622   6.604  0.2434 -0.2132 -0.1261
  148MOL    C1735591   5.631   4.635   6.472 -0.9129  0.4536 -0.0813
  148MOL    C1835592   5.487   4.680   6.427 -0.7074  0.6949 -0.4925
  148MOL    O1935593   5.712   4.614   6.386  0.2709  0.1932  0.8614
  148MOL    H2035594   5.679   4.421   6.749  2.5665 -1.6780 -3.4914
  148MOL    H2135595   5.705   4.545   6.861  2.9154 -0.9511  2.1834
  148MOL    H2235596   5.830   4.522   6.584 -0.3231 -0.4248  0.3068
  148MOL    H2335597   5.417   4.603   6.458  0.7284 -0.7221 -0.6740
  148MOL    H2435598   5.480   4.707   6.321  0.2961 -0.2190 -0.8054
  148MOL    H2535599   5.455   4.770   6.480 -0.1581  0.7355 -0.2237
  148MOL    C2635600   5.853   4.721   6.684  0.3289 -0.3483  0.0536
  148MOL    C2735601   5.776   4.809   6.783 -1.1733  0.2916 -0.2941
  148MOL    O2835602   5.836   4.781   6.904  0.0549  0.1754  0.1422
  148MOL    C2935603   5.758   4.752   7.012 -0.2639 -0.3468 -0.2244
  148MOL    C3035604   5.837   4.699   7.116  0.5361 -0.9354  0.5733
  148MOL    O3135605   5.635   4.745   7.017 -0.0829  0.3658  0.3122
  148MOL    H3235606   5.950   4.705   6.731 -0.0877 -1.3967  0.5765
  148MOL    H3335607   5.874   4.774   6.591 -1.4443 -0.5012 -0.4562
  148MOL    H3435608   5.670   4.784   6.789 -1.1883  0.5094  0.4830
  148MOL    H3535609   5.907   4.773   7.154 -1.2861 -0.0544  2.3127
  148MOL    H3635610   5.905   4.619   7.089  2.3355 -0.3067  3.1228
  148MOL    H3735611   5.767   4.660   7.190 -0.9258 -0.2165 -0.3976
  148MOL    C3835612   5.778   4.965   6.759 -0.1413 -0.9546  0.3200
  148MOL    C3935613   5.682   4.997   6.639  0.3335 -0.2053 -0.4807
  148MOL    O4035614   5.722   4.951   6.513 -0.0110  0.4589  0.8406
  148MOL    C4135615   5.744   5.041   6.419  0.6633  0.7184  0.4074
  148MOL    C4235616   5.771   4.980   6.278 -0.0703 -0.2462 -0.0737
  148MOL    O4335617   5.738   5.165   6.428  0.6584  0.3524 -0.0070
  148MOL    H4435618   5.748   5.029   6.842  1.4637  0.7305 -0.3386
  148MOL    H4535619   5.875   5.005   6.725 -0.6689  1.5980  1.6755
  148MOL    H4635620   5.697   5.104   6.644  0.5486 -0.2506 -0.1619
  148MOL    H4735621   5.766   5.063   6.208 -0.3264  0.3441  0.6330
  148MOL    H4835622   5.691   4.914   6.242  0.2068 -0.5029 -0.2184
  148MOL    H4935623   5.871   4.938   6.267  1.4654  3.8207 -2.6495
  148MOL    C5035624   5.533   4.965   6.674 -0.4051 -0.0105  0.5615
  148MOL    C5135625   5.427   5.055   6.606 -1.0893  0.2497 -0.0201
  148MOL    O5235626   5.303   5.010   6.659  0.6178  0.0290 -0.2134
  148MOL    C5335627   5.190   4.993   6.587  0.0813  0.8607  0.3680
  148MOL    C5435628   5.062   4.963   6.674 -0.1417 -0.3824  0.1396
  148MOL    O5535629   5.180   5.029   6.475 -0.1091 -0.1346 -0.0936
  148MOL    H5635630   5.515   4.860   6.655  2.4160 -0.8536  2.1564
  148MOL    H5735631   5.529   4.980   6.782  1.3179  0.5709  0.5628
  148MOL    H5835632   5.431   5.046   6.497 -1.3611  1.9057 -0.1767
  148MOL    H5935633   5.058   5.027   6.762 -0.8895 -0.6816  0.3220
  148MOL    H6035634   5.069   4.861   6.713 -1.4608  0.0969  1.7148
  148MOL    H6135635   4.976   4.959   6.608  0.3716 -0.3999 -0.5371
  148MOL    C6235636   5.438   5.213   6.636 -1.1306  0.5135 -0.6719
  148MOL    C6335637   5.354   5.299   6.549 -0.1806 -0.2953  0.2410
  148MOL    O6435638   5.349   5.437   6.605 -0.4159 -0.3211  0.1628
  148MOL    C6535639   5.238   5.501   6.641  0.1023  0.2159  0.5642
  148MOL    C6635640   5.261   5.656   6.657  0.4581 -0.3617 -0.1640
  148MOL    O6735641   5.127   5.443   6.652  0.8775 -0.5866  0.0754
  148MOL    H6835642   5.412   5.220   6.741 -0.1622  1.4126 -0.4814
  148MOL    H6935643   5.543   5.239   6.624 -1.2978  1.3780 -0.2874
  148MOL    H7035644   5.254   5.256   6.558 -0.4379  0.1250 -0.5114
  148MOL    H7135645   5.292   5.681   6.759  0.7766 -0.9713 -0.1104
  148MOL    H7235646   5.167   5.709   6.649 -0.3050 -1.3224  2.0219
  148MOL    H7335647   5.329   5.692   6.580 -0.7727 -0.6224 -1.3733
  148MOL    C7435648   5.401   5.302   6.402  0.2687 -0.2485  0.1982
  148MOL    C7535649   5.327   5.395   6.308  0.4485 -0.7501 -0.6114
  148MOL    O7635650   5.397   5.383   6.183 -0.1579  0.2698  0.1363
  148MOL    C7735651   5.407   5.491   6.106 -0.1812 -0.3002 -1.0294
  148MOL    C7835652   5.497   5.473   5.981 -0.0883 -0.0691 -0.2931
  148MOL    O7935653   5.346   5.598   6.126  0.0433  0.6370 -0.0371
  148MOL    H8035654   5.507   5.321   6.386  0.2042 -0.9321 -1.0947
  148MOL    H8135655   5.396   5.201   6.363  1.1989 -0.2788  0.1483
  148MOL    H8235656   5.335   5.495   6.350 -0.8127 -0.3975 -1.1834
  148MOL    H8335657   5.510   5.571   5.934 -1.5047 -0.6823 -2.0240
  148MOL    H8435658   5.460   5.401   5.909 -0.9559  0.6834 -0.6184
  148MOL    H8535659   5.598   5.443   6.007  0.1894 -0.1095 -1.3900
  148MOL    C8635660   5.177   5.356   6.297  0.9437  0.5775  0.1232
  148MOL    C8735661   5.082   5.453   6.225  0.1318 -0.8322  0.2406
  148MOL    O8835662   4.953   5.390   6.221 -0.6268 -0.1068 -0.1957
  148MOL    C8935663   4.911   5.325   6.112  0.6887 -0.6234  0.3904
  148MOL    C9035664   4.781   5.250   6.121 -0.3610 -0.0113 -0.7270
  148MOL    O9135665   4.974   5.324   6.007 -0.3100 -0.3961  0.3962
  148MOL    H9235666   5.175   5.262   6.242  0.9081  1.9673 -2.2951
  148MOL    H9335667   5.133   5.338   6.396  0.3965  1.7266  0.0908
  148MOL    H9435668   5.132   5.467   6.129 -1.8108  0.3921 -0.6257
  148MOL    H9535669   4.731   5.247   6.024 -1.1929  1.7203 -0.3786
  148MOL    H9635670   4.720   5.305   6.192 -0.7527  0.9536 -1.7879
  148MOL    H9735671   4.816   5.154   6.157  0.4655  0.0521 -1.3468
  148MOL    C9835672   5.069   5.592   6.296 -0.6476 -0.1729 -0.3803
  148MOL    C9935673   5.036   5.712   6.207  1.1424 -0.4580 -0.0717
  148MOL   O10035674   4.908   5.679   6.136  0.4576  0.1399 -0.5509
  148MOL   C10135675   4.900   5.690   6.007  0.4182  0.3556 -0.4593
  148MOL   C10235676   4.762   5.645   5.959  0.2930  0.2544 -0.1354
  148MOL   O10335677   4.991   5.723   5.933  0.3000  0.3854  0.1309
  148MOL   H10435678   4.990   5.583   6.371 -0.7367  1.1005 -0.3217
  148MOL   H10535679   5.156   5.621   6.354 -0.0827  0.0116 -1.3188
  148MOL   H10635680   5.116   5.733   6.136 -0.2027  0.0421 -1.4716
  148MOL   H10735681   4.762   5.649   5.850 -0.1994 -0.5130 -0.1629
  148MOL   H10835682   4.697   5.722   6.001 -1.2241 -2.4243  2.5500
  148MOL   H10935683   4.744   5.545   5.996  1.8419  0.2912  0.7562
  148MOL   C11035684   5.010   5.833   6.299 -0.1962 -0.1841 -0.2964
  148MOL   C11135685   4.930   5.951   6.239 -0.6624  0.2259  0.5226
  148MOL   O11235686   4.912   6.053   6.339 -0.1932 -0.0002 -0.4256
  148MOL   C11335687   4.794   6.072   6.397  0.2492 -0.1836 -0.3424
  148MOL   C11435688   4.799   6.162   6.522 -0.3126  0.2028 -0.6138
  148MOL   O11535689   4.691   6.016   6.348 -0.1698  0.2396  0.4356
  148MOL   H11635690   4.957   5.806   6.390  1.0272  0.0508  0.4908
  148MOL   H11735691   5.104   5.864   6.343 -1.8745  2.2401  1.7370
  148MOL   H11835692   4.832   5.911   6.214 -0.2084 -1.2148  1.0173
  148MOL   H11935693   4.845   6.105   6.603 -0.5810  1.5370  0.4953
  148MOL   H12035694   4.699   6.194   6.553 -1.5951 -4.5240  0.4712
  148MOL   H12135695   4.857   6.252   6.502  0.2071 -0.1384 -0.6319
  148MOL   C12235696   4.994   6.019   6.118 -0.1256 -0.1072  0.0561
  148MOL   C12335697   4.893   6.051   5.999 -0.8044 -0.2918 -0.1436
  148MOL   O12435698   4.794   6.142   6.056  0.3108  0.2272 -0.1209
  148MOL   C12535699   4.667   6.131   6.011  0.3768 -0.6579 -0.2211
  148MOL   C12635700   4.586   6.239   6.078 -0.2312  0.4823 -0.5855
  148MOL   O12735701   4.619   6.039   5.944  0.2580  0.0705  0.2853
  148MOL   H12835702   5.064   6.099   6.142  1.5830 -0.8039 -2.3580
  148MOL   H12935703   5.056   5.944   6.071 -0.0271  0.4176 -0.6680
  148MOL   H13035704   4.837   5.961   5.976 -1.9498 -0.5865  3.4685
  148MOL   H13135705   4.593   6.238   6.186  1.5495 -1.6242 -0.6712
  148MOL   H13235706   4.483   6.216   6.050  0.7367 -0.9079 -3.2333
  148MOL   H13335707   4.626   6.338   6.055  1.5765  0.1498  0.9978
  148MOL   C13435708   4.969   6.116   5.884  0.1601  0.1880 -0.6579
  148MOL   C13535709   4.886   6.135   5.750 -0.4295 -0.3199 -0.1114
  148MOL   O13635710   4.966   6.224   5.668 -0.5662 -0.8138 -0.2058
  148MOL   C13735711   4.932   6.353   5.645 -0.3108 -0.5248  0.5870
  148MOL   C13835712   5.014   6.413   5.537  0.0124  0.0714 -0.6272
  148MOL   O13935713   4.834   6.414   5.691 -0.1436 -0.4896 -0.0195
  148MOL   H14035714   5.002   6.212   5.924  2.1769 -0.6657 -0.2112
  148MOL   H14135715   5.063   6.061   5.877 -1.6902 -3.0671 -0.7266
  148MOL   H14235716   4.784   6.169   5.765 -0.1253  1.5738 -2.0590
  148MOL   H14335717   5.093   6.345   5.506  0.6100 -0.0398  1.1281
  148MOL   H14435718   5.061   6.507   5.566 -2.3648  1.4730 -1.1632
  148MOL   H14535719   4.946   6.442   5.456  0.2886 -0.2033 -0.9605
  148MOL   C14635720   4.875   6.000   5.685 -0.1955 -0.1573 -0.7777
  148MOL   C14735721   4.773   6.000   5.569 -0.6700 -0.4578 -1.0360
  148MOL   O14835722   4.838   5.961   5.446 -0.0937 -0.0584 -0.2465
  148MOL   C14935723   4.844   6.048   5.339 -0.5033 -0.1752  0.3126
  148MOL   C15035724   4.943   6.000   5.238 -0.1717  0.1134  0.0595
  148MOL   O15135725   4.784   6.154   5.318 -0.1767 -0.5981 -0.1470
  148MOL   H15235726   4.977   5.970   5.660 -0.4129 -1.7705  0.2180
  148MOL   H15335727   4.854   5.922   5.757 -0.2080 -0.9084 -1.5801
  148MOL   H15435728   4.752   6.107   5.564  1.7225  0.2127  1.8335
  148MOL   H15535729   4.947   6.070   5.155  2.1657 -0.4326 -0.2999
  148MOL   H15635730   4.900   5.906   5.203  0.4925  0.4017 -1.5584
  148MOL   H15735731   5.038   5.982   5.288  0.0276 -0.7054 -0.6121
  148MOL   C15835732   4.641   5.916   5.587  0.2334  0.1497  0.3652
  148MOL   C15935733   4.549   5.925   5.461 -0.4099  1.2094  0.0171
  148MOL   O16035734   4.472   5.803   5.479 -0.7758 -0.5069  0.7395
  148MOL   C16135735   4.503   5.700   5.394  0.2556 -0.4215  0.1028
  148MOL   C16235736   4.456   5.566   5.440  0.0419  0.2775 -0.0343
  148MOL   O16335737   4.582   5.710   5.298  0.1603  0.4104  0.1536
  148MOL   H16435738   4.671   5.812   5.599  1.0944  0.3850  0.3064
  148MOL   H16535739   4.586   5.938   5.679 -3.4457 -2.1978 -1.1640
  148MOL   H16635740   4.610   5.920   5.371 -2.9504 -2.2494 -1.6639
  148MOL   H16735741   4.372   5.517   5.390  1.0588  1.0492 -2.5700
  148MOL   H16835742   4.435   5.568   5.547  2.5507 -2.2338  0.5705
  148MOL   H16935743   4.537   5.495   5.423  1.3969  1.3082  1.9567
  148MOL   C17035744   4.441   6.031   5.459 -0.7841 -0.1335  0.2052
  148MOL   C17135745   4.363   6.031   5.323  0.4791 -0.1201 -0.4305
  148MOL   O17235746   4.246   6.101   5.352  0.3684  0.4484 -0.1856
  148MOL   C17335747   4.137   6.028   5.389 -0.3267 -0.6466 -0.1685
  148MOL   C17435748   4.018   6.124   5.413  0.4624  0.5200 -0.8318
  148MOL   O17535749   4.125   5.909   5.400  0.2970 -0.3635  0.1447
  148MOL   H17635750   4.373   6.022   5.543 -0.1658  2.4220  1.0082
  148MOL   H17735751   4.488   6.127   5.481 -0.1143 -0.7887  1.7381
  148MOL   H17835752   4.343   5.934   5.278 -0.0564 -0.1548 -0.1113
  148MOL   H17935753   4.040   6.192   5.496  1.4898 -1.2569  0.3780
  148MOL   H18035754   3.946   6.055   5.456 -1.9145  2.3378 -1.7490
  148MOL   H18135755   3.993   6.182   5.324 -1.4850  2.4821  0.9143
  148MOL   C18235756   4.437   6.113   5.214 -0.2232  1.0446  0.5025
  148MOL   C18335757   4.434   6.046   5.080  0.0197 -0.0912  0.7554
  148MOL   O18435758   4.293   6.023   5.042 -0.4511  0.0404  0.1959
  148MOL   C18535759   4.245   5.908   4.996  0.2521  0.1560 -0.3513
  148MOL   C18635760   4.098   5.930   4.953 -0.4987 -0.1743 -0.1502
  148MOL   O18735761   4.314   5.808   4.983  1.0281  0.0754 -0.0181
  148MOL   H18835762   4.395   6.213   5.201 -0.7687  0.9118  1.1759
  148MOL   H18935763   4.542   6.121   5.241 -0.9290 -0.7929  4.1501
  148MOL   H19035764   4.489   5.952   5.087  2.6364  1.1639 -1.8104
  148MOL   H19135765   4.042   5.945   5.046  1.7505  2.8371  0.8195
  148MOL   H19235766   4.046   5.848   4.905  0.6372 -0.9983 -0.0043
  148MOL   H19335767   4.100   6.017   4.888 -2.2670 -0.5820 -0.7540
  148MOL   C19435768   4.484   6.130   4.959 -0.0742  0.6308  0.4915
  148MOL   C19535769   4.637   6.108   4.929 -0.3092  0.7413 -0.6241
  148MOL   O19635770   4.658   5.992   4.851 -0.4361 -0.5008 -0.8896
  148MOL   C19735771   4.719   5.886   4.908 -0.2382  0.6083 -0.4065
  148MOL   C19835772   4.744   5.761   4.823  1.1827  0.1922  0.7029
  148MOL   O19935773   4.747   5.881   5.026  0.0996 -0.0103 -0.3905
  148MOL   H20035774   4.426   6.099   4.872 -0.6819  1.6229  0.5446
  148MOL   H20135775   4.458   6.234   4.975  1.3271  0.9031  0.9946
  148MOL   H20235776   4.696   6.110   5.021  0.3952 -1.7722 -0.9651
  148MOL   H20335777   4.833   5.702   4.845  1.3986  0.0676 -0.5099
  148MOL   H20435778   4.746   5.785   4.717  0.1981 -1.8862  0.2013
  148MOL   H20535779   4.651   5.707   4.840  2.3255 -1.4369  1.9622
  148MOL   C20635780   4.692   6.208   4.824  0.1510 -0.1873 -0.0584
  148MOL   C20735781   4.663   6.354   4.856  0.5508 -0.3422  0.2651
  148MOL   O20835782   4.723   6.389   4.981 -0.1409  0.0480 -0.5057
  148MOL   C20935783   4.653   6.433   5.087 -0.4573  0.4903 -1.0126
  148MOL   C21035784   4.744   6.475   5.195 -0.1032  0.2685 -0.2044
  148MOL   O21135785   4.531   6.451   5.093 -0.9686  0.1476 -0.1044
  148MOL   H21235786   4.797   6.198   4.797 -0.0638 -0.8563 -0.6629
  148MOL   H21335787   4.649   6.173   4.731  2.8577 -2.2053 -0.6248
  148MOL   H21435788   4.555   6.367   4.863  0.0816 -3.4319 -0.3749
  148MOL   H21535789   4.745   6.410   5.282  0.6569 -0.8296 -1.0199
  148MOL   H21635790   4.709   6.575   5.223 -1.5740 -0.4483  0.5539
  148MOL   H21735791   4.845   6.476   5.153  0.5835  2.2058  1.3773
  148MOL   C21835792   4.717   6.448   4.756  0.2723 -0.9692 -0.2197
  148MOL   C21935793   4.663   6.592   4.762 -0.3529 -0.6395  0.3757
  148MOL   O22035794   4.720   6.659   4.657 -0.1459 -0.0356 -0.0256
  148MOL   C22135795   4.765   6.790   4.677  0.2233  0.0825  0.2462
  148MOL   C22235796   4.799   6.853   4.546 -0.2676  0.5994 -0.2929
  148MOL   O22335797   4.769   6.855   4.782  0.1708  0.1831  0.2675
  148MOL   H22435798   4.826   6.446   4.760  0.3843 -0.7922 -2.6888
  148MOL   H22535799   4.708   6.412   4.654 -1.3318  0.1481 -0.4981
  148MOL   H22635800   4.687   6.634   4.860 -1.6505 -0.1087  0.4807
  148MOL   H22735801   4.907   6.860   4.529 -0.1354 -0.2409  0.1934
  148MOL   H22835802   4.763   6.956   4.545  0.0026  0.6967 -0.0670
  148MOL   H22935803   4.753   6.810   4.457  0.2711  0.9571 -0.7576
  148MOL   C23035804   4.512   6.592   4.726  0.5042 -0.2915 -0.1481
  148MOL   C23135805   4.441   6.707   4.788  0.0956 -0.8865  0.2450
  148MOL   O23235806   4.446   6.684   4.929  0.2468  0.4834 -0.0666
  148MOL   C23335807   4.371   6.751   5.014  0.5501  0.5883  0.5878
  148MOL   C23435808   4.412   6.738   5.159  0.2776  0.3915 -0.1533
  148MOL   O23535809   4.279   6.824   4.979  0.0855  0.3628  0.2318
  148MOL   H23635810   4.497   6.595   4.618 -1.5836 -2.2109  0.0649
  148MOL   H23735811   4.468   6.494   4.746  1.8635 -0.5916  1.5391
  148MOL   H23835812   4.336   6.713   4.758  0.4518 -1.3535 -1.1119
  148MOL   H23935813   4.521   6.747   5.151  0.3013  0.0776 -0.1951
  148MOL   H24035814   4.386   6.641   5.201  1.6059  0.5813  1.1501
  148MOL   H24135815   4.359   6.809   5.223  0.4787 -0.1742  0.6480
  148MOL   H24235816   4.477   6.805   4.758 -0.5298 -0.6523  0.2458
  149MOL     C135817   0.227   0.322   6.908  0.5192 -0.0026 -0.9195
  149MOL     C235818   0.205   0.478   6.895  0.4475  0.8535  0.6406
  149MOL     O335819   0.334   0.536   6.889 -0.1047  0.8654  0.0988
  149MOL     C435820   0.353   0.654   6.935 -0.1259 -1.0078 -0.0315
  149MOL     C535821   0.504   0.690   6.930  0.4826 -0.1973 -0.0641
  149MOL     O635822   0.268   0.735   6.967 -0.4140  0.4229  0.2595
  149MOL     H735823   0.302   0.313   6.987 -1.3427 -0.7028  0.8212
  149MOL     H835824   0.278   0.285   6.820  0.0070 -0.6208 -0.9569
  149MOL     H935825   0.161   0.520   6.985 -0.3750 -3.0941  2.1849
  149MOL    H1035826   0.519   0.758   6.846  1.8835  0.5578  0.7743
  149MOL    H1135827   0.567   0.601   6.920 -0.2032 -0.3526 -3.5665
  149MOL    H1235828   0.539   0.738   7.021  1.9455  0.3436 -0.8877
  149MOL    H1335829   0.132   0.277   6.939  0.8289  0.2133  0.3990
  149MOL    C1435830   0.129   0.528   6.769  0.5092 -0.3583  0.0823
  149MOL    C1535831   8.009   0.471   6.756 -0.2514 -0.3620  0.3545
  149MOL    O1635832   8.005   0.336   6.706  0.2370  0.2733  0.0827
  149MOL    C1735833   7.912   0.294   6.617 -0.1558 -0.9652  0.4374
  149MOL    C1835834   7.944   0.158   6.549  0.1418 -0.4976 -0.4109
  149MOL    O1935835   7.810   0.356   6.586 -0.2995  0.4083  0.7156
  149MOL    H2035836   0.112   0.635   6.783  1.6151  0.2404 -2.8139
  149MOL    H2135837   0.188   0.508   6.679  0.4942 -1.7767  0.3754
  149MOL    H2235838   7.967   0.537   6.680 -0.4642  0.1314  0.8987
  149MOL    H2335839   8.014   0.183   6.469  1.0331  0.6518  0.7089
  149MOL    H2435840   7.854   0.105   6.516 -2.5864  1.8408  2.9160
  149MOL    H2535841   7.979   0.092   6.627  1.5347 -0.0605 -0.6632
  149MOL    C2635842   7.911   0.482   6.875 -0.3474  0.2835  0.4564
  149MOL    C2735843   7.904   0.616   6.945 -0.1080  0.2571 -0.4199
  149MOL    O2835844   7.801   0.710   6.899 -0.4868 -0.0970 -0.4391
  149MOL    C2935845   7.836   0.814   6.827 -0.1787  0.6088 -0.1207
  149MOL    C3035846   7.735   0.918   6.828 -0.0896  0.4346  0.4986
  149MOL    O3135847   7.945   0.827   6.771  0.5169 -0.9197  0.1835
  149MOL    H3235848   7.809   0.455   6.850  0.1390 -0.1651 -1.0722
  149MOL    H3335849   7.938   0.406   6.949 -1.7489 -0.1669  0.5194
  149MOL    H3435850   8.001   0.666   6.941 -0.1339  0.3250 -0.1337
  149MOL    H3535851   7.692   0.934   6.927 -0.9219 -0.9160  0.3767
  149MOL    H3635852   7.654   0.895   6.759  1.7527  1.0337 -1.9135
  149MOL    H3735853   7.783   1.004   6.782 -0.6455  2.4348  3.5332
  149MOL    C3835854   7.878   0.587   7.097 -0.3368 -0.0226 -0.3405
  149MOL    C3935855   7.849   0.702   7.197 -0.0902  0.4774  0.0815
  149MOL    O4035856   7.836   0.643   7.329 -0.7036  0.0375 -0.2371
  149MOL    C4135857   7.722   0.643   7.395  0.7348 -0.2554 -0.3023
  149MOL    C4235858   7.729   0.586   7.536 -0.7333 -0.6159  0.2943
  149MOL    O4335859   7.615   0.694   7.355  0.1613  0.3560 -0.0611
  149MOL    H4435860   7.790   0.523   7.109 -1.4645  1.2561 -1.5836
  149MOL    H4535861   7.961   0.527   7.134  1.7987  3.2234  0.2625
  149MOL    H4635862   7.764   0.759   7.158 -1.1206  1.3798  3.4622
  149MOL    H4735863   7.627   0.600   7.572 -0.6192  1.3056 -0.0616
  149MOL    H4835864   7.804   0.641   7.592  1.5783 -2.9967 -0.4018
  149MOL    H4935865   7.759   0.482   7.524  0.1519 -0.0939 -2.3235
  149MOL    C5035866   7.958   0.809   7.201  0.1338 -0.0190 -0.1051
  149MOL    C5135867   7.917   0.932   7.286  0.1375 -0.1231 -0.1743
  149MOL    O5235868   0.008   1.014   7.302 -0.8645 -0.1107 -0.3626
  149MOL    C5335869   0.071   1.013   7.421  0.3105 -0.1945 -0.0349
  149MOL    C5435870   0.194   1.084   7.425  0.1334  0.0861  0.3384
  149MOL    O5535871   0.030   0.958   7.526 -0.3046  0.7920  0.4796
  149MOL    H5635872   0.027   0.759   7.235 -1.0061 -1.9703  0.1233
  149MOL    H5735873   7.977   0.837   7.097 -2.7472  2.3646 -0.0477
  149MOL    H5835874   7.875   0.905   7.383 -1.3647  0.0410 -0.7593
  149MOL    H5935875   0.214   1.104   7.530  1.0434 -0.2282  0.2296
  149MOL    H6035876   0.204   1.168   7.356 -0.3477 -2.0719 -2.4361
  149MOL    H6135877   0.272   1.012   7.401  2.3449  2.6960 -0.6115
  149MOL    C6235878   7.803   1.015   7.217 -0.5458 -0.1403  0.2516
  149MOL    C6335879   7.738   1.135   7.297  0.4154 -0.5329  0.7267
  149MOL    O6435880   7.828   1.241   7.317 -0.1805  0.2771 -0.4982
  149MOL    C6535881   7.838   1.308   7.436 -0.0887  0.4148 -0.2670
  149MOL    C6635882   7.949   1.408   7.442  0.2318  0.8943 -0.1710
  149MOL    O6735883   7.777   1.287   7.541 -0.3867 -0.1258  0.2443
  149MOL    H6835884   7.846   1.053   7.125  0.8073  1.0917  1.3574
  149MOL    H6935885   7.720   0.953   7.182 -0.9541 -0.1860  1.2611
  149MOL    H7035886   7.711   1.097   7.396 -0.3773  0.4985  0.9211
  149MOL    H7135887   7.941   1.473   7.529  0.6848 -1.2390  1.4936
  149MOL    H7235888   7.934   1.472   7.354  0.0344  0.7909 -0.2124
  149MOL    H7335889   0.023   1.356   7.438 -0.5560 -0.5715 -0.1071
  149MOL    C7435890   7.614   1.196   7.221 -0.2531 -0.0989 -0.1369
  149MOL    C7535891   7.530   1.296   7.303  0.3614  0.5709 -0.6695
  149MOL    O7635892   7.462   1.368   7.207 -0.0183 -0.0086 -0.2346
  149MOL    C7735893   7.512   1.481   7.154  0.2865  0.5787 -0.6225
  149MOL    C7835894   7.404   1.552   7.078  0.6169 -0.0161 -0.6575
  149MOL    O7935895   7.630   1.517   7.153 -0.5865  0.2102 -0.4708
  149MOL    H8035896   7.660   1.251   7.139 -1.6528 -0.1815 -0.9870
  149MOL    H8135897   7.551   1.123   7.170 -1.7762  1.1956 -0.1404
  149MOL    H8235898   7.582   1.373   7.359 -1.5129 -0.1885  2.1994
  149MOL    H8335899   7.408   1.657   7.105  0.1338  0.3234 -1.8575
  149MOL    H8435900   7.309   1.505   7.105 -0.1841  0.1970 -2.9741
  149MOL    H8535901   7.414   1.541   6.970  1.1006  1.3609 -0.7649
  149MOL    C8635902   7.438   1.222   7.403  0.6623 -1.4405 -0.1240
  149MOL    C8735903   7.351   1.314   7.495 -0.1691  0.5422  0.0205
  149MOL    O8835904   7.245   1.350   7.407 -0.3632 -0.0514  0.0254
  149MOL    C8935905   7.198   1.469   7.386 -0.5505 -0.2870  0.0555
  149MOL    C9035906   7.084   1.470   7.286  0.1782 -0.4317  0.6917
  149MOL    O9135907   7.236   1.576   7.441 -0.5348 -0.0307  0.3123
  149MOL    H9235908   7.363   1.164   7.348 -0.1449 -1.3165  0.8357
  149MOL    H9335909   7.497   1.149   7.458 -0.6569 -1.6741  1.0169
  149MOL    H9435910   7.397   1.399   7.546  1.2004 -1.6168  2.5157
  149MOL    H9535911   7.090   1.384   7.219  1.1685 -0.1664  0.4347
  149MOL    H9635912   7.094   1.562   7.229 -0.2207 -0.1947  0.9993
  149MOL    H9735913   6.989   1.475   7.340  1.0020  1.4889  2.0122
  149MOL    C9835914   7.287   1.217   7.602 -0.5104 -0.1448 -0.0111
  149MOL    C9935915   7.373   1.216   7.733 -0.1845  0.1439  0.1685
  149MOL   O10035916   7.364   1.344   7.805 -0.2325 -0.4622 -0.5330
  149MOL   C10135917   7.463   1.438   7.806 -0.1471 -0.6911  0.2800
  149MOL   C10235918   7.424   1.553   7.893  0.1181  0.2033  0.2356
  149MOL   O10335919   7.573   1.436   7.749 -0.3644  0.1543  0.1585
  149MOL   H10435920   7.186   1.244   7.633 -1.2335 -0.0079 -2.3709
  149MOL   H10535921   7.269   1.114   7.570  2.6041 -0.6917 -0.1910
  149MOL   H10635922   7.475   1.203   7.697 -0.6906  0.9843 -1.5871
  149MOL   H10735923   7.376   1.634   7.839 -0.4894  0.2715  0.8619
  149MOL   H10835924   7.505   1.602   7.947  0.4814  0.6508 -0.7047
  149MOL   H10935925   7.357   1.533   7.977 -1.4956 -2.0900 -1.5322
  149MOL   C11035926   7.353   1.096   7.835  0.4944  0.7645 -0.4220
  149MOL   C11135927   7.412   0.959   7.784  0.1984  0.1066 -0.4207
  149MOL   O11235928   7.556   0.989   7.785 -0.0119 -0.0784  0.0260
  149MOL   C11335929   7.627   0.951   7.671  0.1199 -0.2781  0.7474
  149MOL   C11435930   7.775   0.961   7.690 -0.5500  0.1836 -0.0798
  149MOL   O11535931   7.583   0.916   7.562 -0.0824 -0.2821  0.3687
  149MOL   H11635932   7.403   1.119   7.929  1.0175  1.9511 -0.9748
  149MOL   H11735933   7.249   1.091   7.865  0.4104  0.8517 -0.6962
  149MOL   H11835934   7.360   0.939   7.690 -1.2984 -0.3136  0.4833
  149MOL   H11935935   7.811   1.011   7.600 -0.1033  0.8349  0.4519
  149MOL   H12035936   7.818   0.863   7.706 -2.2211 -0.3385  1.3783
  149MOL   H12135937   7.799   1.027   7.773  0.0404 -0.5315  0.3149
  149MOL   C12235938   7.383   0.849   7.884  0.7150  0.2632  0.6425
  149MOL   C12335939   7.240   0.827   7.937  0.0159 -0.2235  0.0853
  149MOL   O12435940   7.158   0.813   7.820 -0.4690  0.1520 -0.5297
  149MOL   C12535941   7.041   0.871   7.813  0.0107  0.2009  0.5704
  149MOL   C12635942   6.953   0.835   7.689 -0.1080  0.2406 -0.0729
  149MOL   O12735943   6.989   0.943   7.898 -0.0063 -0.1418 -0.2152
  149MOL   H12835944   7.405   0.755   7.833  4.1063  1.6065 -0.5630
  149MOL   H12935945   7.451   0.852   7.969 -0.2024  0.5022  1.3644
  149MOL   H13035946   7.222   0.912   8.003  0.9818  0.6825 -0.7922
  149MOL   H13135947   6.975   0.889   7.597  1.8783 -1.2051 -0.4811
  149MOL   H13235948   6.851   0.868   7.709 -0.5597 -0.6092 -0.9778
  149MOL   H13335949   6.937   0.729   7.672 -2.5406  0.2324  1.8887
  149MOL   C13435950   7.214   0.704   0.001 -0.1578  0.2921 -0.2629
  149MOL   C13535951   7.293   0.696   0.133  0.2996  0.4753  0.5312
  149MOL   O13635952   7.247   0.806   0.207 -0.4461  0.3567  0.4311
  149MOL   C13735953   7.314   0.856   0.308  0.7277  0.0412  0.2485
  149MOL   C13835954   7.240   0.973   0.373  0.2252  0.1624 -0.1752
  149MOL   O13935955   7.423   0.821   0.349  0.1000 -0.2426 -0.3025
  149MOL   H14035956   7.108   0.696   0.025 -0.0396 -0.8324 -0.0808
  149MOL   H14135957   7.248   0.616   7.968 -0.9630 -1.1869  1.5930
  149MOL   H14235958   7.399   0.708   0.111  0.2009 -0.1055 -0.2654
  149MOL   H14335959   7.257   0.964   0.480  5.5325 -1.3846 -1.0061
  149MOL   H14435960   7.133   0.973   0.355 -0.0502 -0.0084  1.4198
  149MOL   H14535961   7.285   1.068   0.343 -0.1988 -0.1047 -1.7241
  149MOL   C14635962   7.281   0.566   0.214 -0.4374 -0.9852  0.3852
  149MOL   C14735963   7.344   0.440   0.153  0.2530 -0.0456 -0.3933
  149MOL   O14835964   7.485   0.450   0.179 -0.1199  0.5411  0.1665
  149MOL   C14935965   7.561   0.491   0.083  0.6183 -0.3242 -0.0881
  149MOL   C15035966   7.704   0.479   0.114 -0.3800  1.3325 -0.4130
  149MOL   O15135967   7.529   0.540   8.004 -0.0549  0.1667  0.2231
  149MOL   H15235968   7.311   0.571   0.318  0.7064 -0.7299  0.0496
  149MOL   H15335969   7.174   0.568   0.234 -0.5413 -1.1981 -0.1258
  149MOL   H15435970   7.319   0.449   0.047 -2.1993  0.5497  0.1972
  149MOL   H15535971   7.711   0.384   0.168  0.5555  1.9999  0.6604
  149MOL   H15635972   7.718   0.561   0.184 -0.1379 -0.8569  2.1996
  149MOL   H15735973   7.781   0.476   0.037 -1.1093 -1.3243 -1.1111
  149MOL   C15835974   7.304   0.312   0.221  0.1801 -0.4906 -0.0503
  149MOL   C15935975   7.151   0.284   0.227  0.1450 -0.3344 -0.7933
  149MOL   O16035976   7.098   0.207   0.123 -0.3206  0.0383  0.7125
  149MOL   C16135977   7.069   0.265   0.011 -0.2437  0.5476 -0.1111
  149MOL   C16235978   6.996   0.165   7.940 -0.3408 -0.4604 -0.4101
  149MOL   O16335979   7.089   0.377   7.987  0.1494 -0.7002 -0.5029
  149MOL   H16435980   7.359   0.222   0.194 -0.6625 -0.9672 -0.2021
  149MOL   H16535981   7.354   0.322   0.318 -0.4403 -1.1529  0.3395
  149MOL   H16635982   7.094   0.376   0.231  0.5331 -0.1633  1.3082
  149MOL   H16735983   6.987   0.183   7.833  0.5154 -1.4897 -0.6641
  149MOL   H16835984   6.897   0.162   7.985 -0.6722  1.1250 -0.9951
  149MOL   H16935985   7.047   0.068   7.944  1.1468  0.3641  1.1583
  149MOL   C17035986   7.125   0.196   0.348  0.5346 -0.7080  0.2049
  149MOL   C17135987   6.977   0.191   0.382  0.8522 -0.1474  0.5874
  149MOL   O17235988   6.953   0.068   0.449 -0.0701 -0.4886  0.2705
  149MOL   C17335989   6.928   7.973   0.383 -0.8111 -1.2878  0.5288
  149MOL   C17435990   6.891   7.867   0.479 -0.8179  0.5631  0.1388
  149MOL   O17535991   6.945   7.958   0.258  0.2868  0.0829 -0.5430
  149MOL   H17635992   7.159   0.096   0.322  2.3904 -0.7128  2.4166
  149MOL   H17735993   7.169   0.225   0.444  0.1334  0.1854  0.1226
  149MOL   H17835994   6.913   0.188   0.294 -1.6058  1.4616  2.2697
  149MOL   H17935995   6.792   7.834   0.451 -0.4250 -0.8736  0.4250
  149MOL   H18035996   6.894   7.870   0.588 -3.4980 -1.0710  0.2869
  149MOL   H18135997   6.939   7.771   0.459  0.9786  1.6215 -0.9028
  149MOL   C18235998   6.930   0.304   0.482 -0.3704 -0.2258 -0.1218
  149MOL   C18335999   6.780   0.327   0.522  0.1682  0.2337 -0.1380
  149MOL   O18436000   6.763   0.431   0.608  0.1267 -0.5848 -0.5758
  149MOL   C18536001   6.800   0.427   0.737 -0.3013 -0.0730  0.0292
  149MOL   C18636002   6.745   0.546   0.810  0.5953  0.1134 -0.3741
  149MOL   O18736003   6.848   0.331   0.794  0.4191 -0.0949 -0.1867
  149MOL   H18836004   6.984   0.293   0.576  1.8294  1.3324 -1.1491
  149MOL   H18936005   6.969   0.399   0.446 -2.2985 -0.0944 -1.9702
  149MOL   H19036006   6.738   0.240   0.573  0.4324  0.8892  1.2129
  149MOL   H19136007   6.741   0.532   0.918  2.4248 -0.0702 -0.3270
  149MOL   H19236008   6.647   0.586   0.785  0.0340  0.7408  2.5774
  149MOL   H19336009   6.808   0.631   0.782  1.0958 -0.1673 -0.1007
  149MOL   C19436010   6.688   0.354   0.403  0.4056 -0.1796 -0.8166
  149MOL   C19536011   6.542   0.308   0.424  0.1277 -0.3352  0.2936
  149MOL   O19636012   6.468   0.411   0.496  0.2771 -0.9022 -0.8640
  149MOL   C19736013   6.382   0.385   0.592  0.1569 -0.0290 -0.5216
  149MOL   C19836014   6.308   0.507   0.650 -0.0748  0.2287  0.2697
  149MOL   O19936015   6.359   0.273   0.646  0.1568  0.0091 -0.0217
  149MOL   H20036016   6.694   0.459   0.377  1.1321 -0.3356 -1.2889
  149MOL   H20136017   6.737   0.303   0.319 -1.0078  2.2285 -3.1660
  149MOL   H20236018   6.552   0.219   0.486  0.8668  0.0200  0.6914
  149MOL   H20336019   6.246   0.472   0.732  0.4115  1.5159  1.1994
  149MOL   H20436020   6.235   0.553   0.583  0.2140  1.8903  1.0912
  149MOL   H20536021   6.372   0.583   0.695 -0.6639  0.2273  1.1131
  149MOL   C20636022   6.467   0.285   0.287  0.0352 -0.1962  0.7888
  149MOL   C20736023   6.323   0.228   0.287  0.3174 -0.1115  0.1941
  149MOL   O20836024   6.273   0.229   0.152 -0.1011  0.0999 -0.2711
  149MOL   C20936025   6.173   0.315   0.124 -0.4349  0.1933 -0.4563
  149MOL   C21036026   6.150   0.318   7.993  0.0495 -1.0225  0.2677
  149MOL   O21136027   6.107   0.386   0.208 -0.5121  0.1622  0.3288
  149MOL   H21236028   6.477   0.373   0.223 -1.0748 -0.0274  0.8356
  149MOL   H21336029   6.516   0.202   0.238 -1.9734 -0.9179 -0.0403
  149MOL   H21436030   6.254   0.280   0.353 -0.2885 -0.5109 -0.1135
  149MOL   H21536031   6.205   0.231   7.958 -0.7307 -2.1449  1.7704
  149MOL   H21636032   6.202   0.402   7.948 -0.8054 -0.5049  0.2361
  149MOL   H21736033   6.044   0.302   7.969 -0.7324  2.7115  0.9198
  149MOL   C21836034   6.306   0.087   0.355  0.2396 -1.0267 -0.1496
  149MOL   C21936035   6.165   0.028   0.367  0.7928  0.6235 -0.3312
  149MOL   O22036036   6.180   7.919   0.428 -0.4607  0.2951  0.5137
  149MOL   C22136037   6.092   7.818   0.392  0.8270  0.3531  0.6422
  149MOL   C22236038   6.135   7.676   0.435  0.5999 -0.4500 -0.4182
  149MOL   O22336039   5.994   7.841   0.321 -0.3388  1.0586  0.2445
  149MOL   H22436040   6.362   0.019   0.290 -0.3183 -0.9623 -0.6997
  149MOL   H22536041   6.351   0.082   0.454  1.6232  0.6327 -0.6733
  149MOL   H22636042   6.124   0.014   0.268 -1.6564  0.3350  0.6851
  149MOL   H22736043   6.104   7.612   0.352  1.5494  2.1485 -2.8555
  149MOL   H22836044   6.079   7.629   0.516 -0.7086  1.6538 -0.0672
  149MOL   H22936045   6.243   7.681   0.443  0.6034 -0.8483 -0.2348
  149MOL   C23036046   6.068   0.111   0.455  0.5017  0.2015 -1.1927
  149MOL   C23136047   6.075   0.100   0.607 -0.0383  0.3272  0.1897
  149MOL   O23236048   6.008   0.206   0.676  0.2052 -0.7319  0.3221
  149MOL   C23336049   6.024   0.223   0.808 -0.0529  0.1284  0.0476
  149MOL   C23436050   5.959   0.354   0.864  0.5786  0.0824  0.7815
  149MOL   O23536051   6.079   0.147   0.884  0.0221  0.0041  0.4619
  149MOL   H23636052   6.069   0.218   0.432 -1.5837  0.6765  0.6914
  149MOL   H23736053   5.966   0.081   0.433 -0.2439  0.7883  1.2810
  149MOL   H23836054   6.178   0.106   0.641 -0.6549  1.6177  1.9023
  149MOL   H23936055   5.995   0.446   0.818 -2.1901  0.8463  0.0515
  149MOL   H24036056   5.980   0.351   0.971 -0.6752  3.9531  1.1900
  149MOL   H24136057   5.854   0.350   0.836  0.6414 -0.3337  0.5882
  149MOL   H24236058   6.040   8.021   0.633 -0.6320 -0.1174 -2.1958
  150MOL     C136059   4.359   6.140   7.638 -0.1207  0.0200  0.1451
  150MOL     C236060   4.372   6.271   7.722  0.9669  0.9717 -0.5057
  150MOL     O336061   4.461   6.238   7.825  0.0476  0.6496 -0.0139
  150MOL     C436062   4.429   6.252   7.951  0.3425 -0.1118 -0.2166
  150MOL     C536063   4.539   6.218   0.031  0.4286  0.1910 -0.1493
  150MOL     O636064   4.316   6.288   7.984 -0.2890  0.2251 -0.3782
  150MOL     H736065   4.335   6.059   7.707 -0.5686 -0.8704 -1.0314
  150MOL     H836066   4.461   6.125   7.601  0.5013  1.4121  1.2724
  150MOL     H936067   4.272   6.299   7.755  0.9803  0.8725 -0.3810
  150MOL    H1036068   4.502   6.215   0.134 -0.4422 -0.1770 -0.4599
  150MOL    H1136069   4.612   6.298   0.041  0.6883 -0.0283 -0.2780
  150MOL    H1236070   4.583   6.120   0.012 -0.2615  0.0360 -0.9887
  150MOL    H1336071   4.290   6.156   7.555 -0.9708  0.9498  1.0163
  150MOL    C1436072   4.433   6.392   7.649  0.1844  0.0620 -0.3881
  150MOL    C1536073   4.338   6.449   7.542  0.3556  0.6113  0.7323
  150MOL    O1636074   4.224   6.496   7.605  0.2386 -0.3727  0.0921
  150MOL    C1736075   4.101   6.476   7.560 -0.4500  0.4802 -0.2409
  150MOL    C1836076   3.996   6.481   7.673  0.0538 -0.2869 -0.2532
  150MOL    O1936077   4.069   6.451   7.445  0.3912  0.0761 -0.8323
  150MOL    H2036078   4.455   6.467   7.725 -1.6222 -0.5005  0.7234
  150MOL    H2136079   4.528   6.355   7.611 -0.9334 -2.0986 -1.1789
  150MOL    H2236080   4.323   6.362   7.476  0.5847  1.1092  0.0174
  150MOL    H2336081   3.952   6.580   7.682  1.5753  0.4493 -0.7105
  150MOL    H2436082   4.049   6.461   7.766  1.0553 -2.4208 -1.2440
  150MOL    H2536083   3.920   6.403   7.661 -0.6522  0.2693  0.5663
  150MOL    C2636084   4.392   6.551   7.449  0.0315  0.1148  0.1096
  150MOL    C2736085   4.514   6.510   7.367 -0.5834 -0.1507  0.6541
  150MOL    O2836086   4.482   6.387   7.306 -0.3494 -0.0824 -0.9171
  150MOL    C2936087   4.566   6.272   7.327 -0.1304  0.1886 -0.0399
  150MOL    C3036088   4.523   6.149   7.249 -0.7867 -0.1772 -0.6354
  150MOL    O3136089   4.668   6.273   7.398 -0.2096 -0.1952 -0.2279
  150MOL    H3236090   4.315   6.576   7.375  1.5156 -0.4948 -1.6708
  150MOL    H3336091   4.413   6.646   7.497 -1.8303  1.8260 -2.3179
  150MOL    H3436092   4.594   6.476   7.433  1.7876 -0.2284 -2.1566
  150MOL    H3536093   4.510   6.174   7.144  1.4912  3.1993 -0.1916
  150MOL    H3636094   4.441   6.098   7.298 -1.0383 -0.0386 -0.9169
  150MOL    H3736095   4.603   6.074   7.254 -1.0808 -0.3397  3.1615
  150MOL    C3836096   4.566   6.629   7.277 -0.6464 -0.0336  0.0164
  150MOL    C3936097   4.692   6.589   7.194  0.6058  0.0591  0.2921
  150MOL    O4036098   4.723   6.689   7.100  0.3144  0.8113  0.0669
  150MOL    C4136099   4.673   6.678   6.974 -0.1379 -0.1270 -0.2994
  150MOL    C4236100   4.741   6.769   6.871 -0.3081 -0.2092  0.2498
  150MOL    O4336101   4.587   6.602   6.946  0.6348  0.1214  0.0058
  150MOL    H4436102   4.485   6.664   7.214 -0.9817  0.4124  0.6852
  150MOL    H4536103   4.604   6.705   7.346 -0.1473  1.1628 -1.5484
  150MOL    H4636104   4.659   6.500   7.140  0.0277  0.9640 -0.8733
  150MOL    H4736105   4.847   6.767   6.896  0.5900 -2.9304 -3.2788
  150MOL    H4836106   4.699   6.869   6.867  1.1260  0.4158  0.4837
  150MOL    H4936107   4.740   6.723   6.772  0.0571 -1.0286  0.6251
  150MOL    C5036108   4.818   6.554   7.270  1.0812  0.1150  0.1603
  150MOL    C5136109   4.892   6.425   7.220  0.0155 -0.4189  0.1586
  150MOL    O5236110   4.932   6.449   7.082 -0.6254 -0.3272 -0.1793
  150MOL    C5336111   4.882   6.372   6.984  0.3301  0.2671 -0.2462
  150MOL    C5436112   4.945   6.405   6.846 -0.5797 -0.0328  1.0108
  150MOL    O5536113   4.795   6.286   6.993 -0.4945  0.1196 -0.7686
  150MOL    H5636114   4.879   6.645   7.267  0.7292  0.3309 -0.4926
  150MOL    H5736115   4.798   6.554   7.377 -2.4828 -0.9416 -0.4708
  150MOL    H5836116   4.825   6.341   7.237  1.1277 -1.4428 -0.4011
  150MOL    H5936117   4.885   6.363   6.766  1.5286 -2.8654  0.8277
  150MOL    H6036118   5.045   6.360   6.854  0.5285  2.6174  2.7547
  150MOL    H6136119   4.964   6.511   6.828 -0.4930 -0.2571 -0.2642
  150MOL    C6236120   5.020   6.397   7.303  0.1114  0.3534  0.2337
  150MOL    C6336121   5.091   6.262   7.267 -0.6303 -0.2231 -0.7154
  150MOL    O6436122   5.008   6.144   7.264  0.7575  0.1798  0.5312
  150MOL    C6536123   5.047   6.025   7.302  0.3606 -0.6126  0.1086
  150MOL    C6636124   4.954   5.911   7.259 -0.5389 -0.1904 -0.3518
  150MOL    O6736125   5.145   5.996   7.363  0.4054  0.0763  0.1305
  150MOL    H6836126   5.085   6.478   7.269 -0.5232  0.2747 -1.2246
  150MOL    H6936127   5.009   6.420   7.409  3.2594 -0.7031  0.8533
  150MOL    H7036128   5.170   6.244   7.340  0.0479  1.2641 -1.0734
  150MOL    H7136129   4.886   5.902   7.344 -0.3138 -0.2457 -0.1792
  150MOL    H7236130   5.000   5.812   7.250  0.7930  0.4070 -0.1657
  150MOL    H7336131   4.900   5.929   7.166  2.7160 -2.1446 -2.7433
  150MOL    C7436132   5.169   6.280   7.135 -0.0935  0.0841  0.0042
  150MOL    C7536133   5.312   6.222   7.139  0.9166 -0.4878  0.1726
  150MOL    O7636134   5.326   6.144   7.019 -0.3362  0.1655 -0.1753
  150MOL    C7736135   5.399   6.031   7.019 -0.2879  0.0877 -0.1716
  150MOL    C7836136   5.408   5.961   6.881 -0.1256 -0.4781 -0.2333
  150MOL    O7936137   5.450   5.989   7.127 -0.2819 -0.1380  0.4257
  150MOL    H8036138   5.114   6.227   7.058  2.4603 -2.5975 -0.0412
  150MOL    H8136139   5.175   6.384   7.103 -1.4182  0.3909  0.6953
  150MOL    H8236140   5.335   6.160   7.226 -0.0609  1.7168  2.0617
  150MOL    H8336141   5.505   5.978   6.833  0.6224 -1.4019  0.9237
  150MOL    H8436142   5.321   5.999   6.827 -1.2188  1.0847  2.5420
  150MOL    H8536143   5.409   5.852   6.889  0.0255 -0.4944 -0.4506
  150MOL    C8636144   5.425   6.332   7.119 -0.3366  0.9842  0.7667
  150MOL    C8736145   5.440   6.454   7.219  0.4232 -0.0704 -0.7992
  150MOL    O8836146   5.492   6.397   7.339  0.5809  0.0728  0.4131
  150MOL    C8936147   5.420   6.377   7.448  0.2574 -0.1531 -0.1308
  150MOL    C9036148   5.492   6.280   7.543 -0.2027 -0.1967  0.1433
  150MOL    O9136149   5.307   6.416   7.474  0.7273 -0.1901  0.4328
  150MOL    H9236150   5.516   6.273   7.122 -1.6305 -1.1385 -0.1666
  150MOL    H9336151   5.403   6.382   7.025 -0.1485 -1.3513 -0.5652
  150MOL    H9436152   5.343   6.503   7.230  1.0980  1.1319 -0.0551
  150MOL    H9536153   5.593   6.298   7.579  0.7038  0.1278 -2.4386
  150MOL    H9636154   5.500   6.189   7.485 -1.1168 -0.2274  0.0474
  150MOL    H9736155   5.427   6.265   7.629  0.2152  0.1523  0.5225
  150MOL    C9836156   5.542   6.562   7.184  0.3726  0.2923 -0.5524
  150MOL    C9936157   5.489   6.656   7.076 -0.1809 -0.1736 -0.4594
  150MOL   O10036158   5.366   6.702   7.124  0.3970 -0.4369 -0.1316
  150MOL   C10136159   5.250   6.703   7.045 -0.3956 -0.3422 -0.8023
  150MOL   C10236160   5.123   6.740   7.114  0.1972 -0.1231 -0.1736
  150MOL   O10336161   5.244   6.669   6.927  0.1055 -0.0884 -0.2298
  150MOL   H10436162   5.563   6.626   7.270  2.1811 -2.2499  0.9721
  150MOL   H10536163   5.637   6.516   7.157  0.8634  0.2185  1.2287
  150MOL   H10636164   5.489   6.601   6.982 -1.7275  0.1023 -0.6217
  150MOL   H10736165   5.101   6.712   7.217  0.0923  0.2167 -0.1038
  150MOL   H10836166   5.039   6.704   7.056 -1.4604  0.8073  1.5919
  150MOL   H10936167   5.115   6.849   7.115 -0.6994 -0.1716  2.6192
  150MOL   C11036168   5.580   6.779   7.038  1.1904  0.4483 -0.7094
  150MOL   C11136169   5.557   6.869   6.908  0.1839  0.1425 -0.2029
  150MOL   O11236170   5.586   6.785   6.793  1.0025 -0.8447 -0.0753
  150MOL   C11336171   5.707   6.786   6.729 -0.2054 -0.4880 -0.1240
  150MOL   C11436172   5.730   6.669   6.637 -0.4086 -0.4792  0.0796
  150MOL   O11536173   5.796   6.874   6.752  0.2555  0.4556 -0.1777
  150MOL   H11636174   5.585   6.852   7.120 -2.0074 -1.3778  1.2215
  150MOL   H11736175   5.682   6.742   7.030  0.4133 -1.5634 -1.5697
  150MOL   H11836176   5.614   6.961   6.912 -0.8402  0.7259  1.7011
  150MOL   H11936177   5.656   6.590   6.649  0.2049 -1.1549 -0.5240
  150MOL   H12036178   5.832   6.636   6.657 -0.7921  0.2385  3.4345
  150MOL   H12136179   5.731   6.708   6.535 -2.4610 -2.2696 -0.6608
  150MOL   C12236180   5.417   6.933   6.903 -0.0459 -0.6490 -0.3613
  150MOL   C12336181   5.396   7.066   6.824  0.1550 -1.0376 -0.7699
  150MOL   O12436182   5.464   7.175   6.885 -0.0973  0.2469  0.0249
  150MOL   C12536183   5.414   7.300   6.885  0.5743  0.2833 -0.3108
  150MOL   C12636184   5.483   7.391   6.985 -0.2220  0.6894  0.3224
  150MOL   O12736185   5.317   7.334   6.817  0.3757 -0.8332 -0.1317
  150MOL   H12836186   5.338   6.867   6.865 -0.6881 -0.2597  0.2899
  150MOL   H12936187   5.380   6.946   7.004 -2.1294 -0.4477 -1.1104
  150MOL   H13036188   5.287   7.072   6.833  0.4082  0.4574  2.0712
  150MOL   H13136189   5.418   7.478   6.995  1.6613  2.1358  0.0586
  150MOL   H13236190   5.580   7.410   6.939  1.0678 -1.3642  2.0972
  150MOL   H13336191   5.498   7.341   7.080 -1.0623  1.3949  0.8379
  150MOL   C13436192   5.425   7.068   6.669 -0.0395  0.1193  0.1034
  150MOL   C13536193   5.329   6.973   6.594  0.5023  0.0942 -1.0261
  150MOL   O13636194   5.200   7.031   6.583  0.3041  0.0956 -0.4713
  150MOL   C13736195   5.092   6.965   6.624 -0.0682  0.0528 -0.2173
  150MOL   C13836196   4.963   7.048   6.604  0.1986  0.2897  0.0841
  150MOL   O13936197   5.099   6.854   6.675 -0.2568 -0.2098 -0.3364
  150MOL   H14036198   5.410   7.165   6.623  1.4636  1.2432  1.8926
  150MOL   H14136199   5.531   7.045   6.657 -0.2745  0.5962 -3.3468
  150MOL   H14236200   5.330   6.895   6.670  1.3717  0.6348 -0.4759
  150MOL   H14336201   4.896   7.021   6.685 -0.3374 -2.1794 -1.1312
  150MOL   H14436202   4.898   7.024   6.520  1.6276 -1.4417 -0.5435
  150MOL   H14536203   4.985   7.155   6.603  1.6408 -0.0012  0.0740
  150MOL   C14636204   5.382   6.928   6.457  1.0957  0.1497  0.2346
  150MOL   C14736205   5.314   6.804   6.406  0.0534  0.7479  0.4905
  150MOL   O14836206   5.330   6.784   6.265 -0.5393 -0.3580 -0.9167
  150MOL   C14936207   5.447   6.762   6.205 -0.0670  0.3194 -0.3229
  150MOL   C15036208   5.433   6.726   6.057 -0.9846  0.3636 -0.1459
  150MOL   O15136209   5.554   6.772   6.254 -0.0691 -0.1080  0.0844
  150MOL   H15236210   5.353   7.008   6.387 -0.6408 -1.5858 -1.0805
  150MOL   H15336211   5.489   6.914   6.448  1.0024  0.2552 -1.2037
  150MOL   H15436212   5.206   6.811   6.416 -0.1372  1.6494 -1.9896
  150MOL   H15536213   5.516   6.766   5.998 -0.1823 -2.6217 -1.1314
  150MOL   H15636214   5.337   6.772   6.034 -0.8681  1.9735  2.3749
  150MOL   H15736215   5.449   6.619   6.050 -0.9145  0.3088  0.8493
  150MOL   C15836216   5.358   6.677   6.489  0.7414 -0.9068  0.2691
  150MOL   C15936217   5.283   6.542   6.471 -0.2039 -0.1800  0.3353
  150MOL   O16036218   5.361   6.436   6.534 -0.1778  0.2286 -0.2248
  150MOL   C16136219   5.355   6.305   6.496 -0.2935 -0.0424  0.0975
  150MOL   C16236220   5.436   6.206   6.584 -0.7215  0.8174  0.2102
  150MOL   O16336221   5.278   6.260   6.411 -0.5378 -0.2962  0.3029
  150MOL   H16436222   5.462   6.649   6.473  0.7064 -1.0385  0.2713
  150MOL   H16536223   5.351   6.697   6.596 -0.1458  2.3593 -0.3370
  150MOL   H16636224   5.266   6.513   6.367 -3.9749 -3.7339  1.8269
  150MOL   H16736225   5.450   6.274   6.668 -2.9146  2.0875 -0.4418
  150MOL   H16836226   5.528   6.171   6.537 -0.4744  0.9023  0.6348
  150MOL   H16936227   5.379   6.120   6.620 -1.6066  0.3392 -2.2451
  150MOL   C17036228   5.145   6.545   6.544 -0.7837 -0.0360  0.0058
  150MOL   C17136229   5.028   6.591   6.452 -0.6552  0.5849 -0.2076
  150MOL   O17236230   5.007   6.493   6.353  0.5478 -0.5375 -0.0212
  150MOL   C17336231   5.036   6.519   6.224 -0.4644  0.2565  0.8829
  150MOL   C17436232   4.956   6.426   6.127 -0.9346  0.4486  0.2201
  150MOL   O17536233   5.111   6.607   6.182  0.4745 -0.1600  0.2370
  150MOL   H17636234   5.125   6.445   6.583  0.1591 -0.4820 -0.6183
  150MOL   H17736235   5.145   6.624   6.619 -1.4716  1.1640 -1.2214
  150MOL   H17836236   5.053   6.689   6.410  0.1786 -0.1760 -1.5350
  150MOL   H17936237   4.850   6.419   6.148 -0.6740  0.7652  1.7601
  150MOL   H18036238   4.995   6.324   6.135  2.0761  1.6972  2.6257
  150MOL   H18136239   4.974   6.455   6.024 -1.2749 -0.2484 -0.0402
  150MOL   C18236240   4.895   6.606   6.535  0.4403 -0.2233 -0.0327
  150MOL   C18336241   4.773   6.635   6.447  0.4720 -0.2147  0.9912
  150MOL   O18436242   4.664   6.631   6.534  0.1404  0.3843  0.0167
  150MOL   C18536243   4.567   6.539   6.526 -0.4433  0.9885  0.1329
  150MOL   C18636244   4.465   6.542   6.644 -0.2952 -0.1834 -0.4420
  150MOL   O18736245   4.546   6.456   6.436  0.3825 -0.0837 -0.3232
  150MOL   H18836246   4.879   6.508   6.580  0.1665  0.1850  0.7559
  150MOL   H18936247   4.898   6.683   6.611 -3.3988 -1.2692  1.2689
  150MOL   H19036248   4.761   6.552   6.378 -0.6130  2.2132 -1.8715
  150MOL   H19136249   4.490   6.624   6.712  1.3903 -0.9735 -0.0943
  150MOL   H19236250   4.455   6.445   6.692 -2.8608 -0.1520 -0.8092
  150MOL   H19336251   4.365   6.561   6.605 -0.5406 -0.7661 -0.0955
  150MOL   C19436252   4.772   6.768   6.372 -0.2082  0.0705 -0.2052
  150MOL   C19536253   4.652   6.782   6.276  0.5048  0.2720 -1.2551
  150MOL   O19636254   4.617   6.924   6.279  0.1329  0.2955 -0.4192
  150MOL   C19736255   4.509   6.971   6.335  1.0430 -0.5774 -0.4022
  150MOL   C19836256   4.480   7.117   6.292  0.7034  0.3199  0.0922
  150MOL   O19936257   4.440   6.907   6.414 -0.2318  0.0768  0.3914
  150MOL   H20036258   4.785   6.835   6.457  0.0631 -0.3239  0.0682
  150MOL   H20136259   4.867   6.769   6.318 -0.0269  0.1408  0.1147
  150MOL   H20236260   4.576   6.716   6.319  1.2911 -0.9126 -1.6488
  150MOL   H20336261   4.549   7.183   6.344  1.6991 -1.8291  1.5908
  150MOL   H20436262   4.378   7.129   6.327  0.7277 -2.3963  1.2605
  150MOL   H20536263   4.486   7.140   6.186 -0.5849 -0.4892 -0.1695
  150MOL   C20636264   4.686   6.737   6.131  0.6498  0.4058 -0.3767
  150MOL   C20736265   4.568   6.741   6.034  0.1705  0.4424  0.2247
  150MOL   O20836266   4.612   6.705   5.904 -0.1401 -0.6075  0.1677
  150MOL   C20936267   4.601   6.780   5.800  0.8876 -0.5002  0.4380
  150MOL   C21036268   4.662   6.716   5.676  0.5402 -0.1834  0.4508
  150MOL   O21136269   4.552   6.894   5.795  0.0240 -0.5101  0.5596
  150MOL   H21236270   4.767   6.802   6.099  1.4778 -0.5808 -0.3019
  150MOL   H21336271   4.725   6.635   6.127  0.0214  0.2164 -1.7236
  150MOL   H21436272   4.528   6.842   6.030  1.2533  0.8139 -1.5444
  150MOL   H21536273   4.704   6.619   5.704 -1.4740 -0.6414  2.0481
  150MOL   H21636274   4.742   6.781   5.639  1.5241 -1.8406 -0.4119
  150MOL   H21736275   4.592   6.711   5.592  0.3345  0.6197  0.5724
  150MOL   C21836276   4.463   6.637   6.060 -0.0285  0.8584  0.1553
  150MOL   C21936277   4.331   6.682   6.001  0.0283  0.1927  0.1635
  150MOL   O22036278   4.241   6.579   5.958  0.2047 -0.0936  0.7259
  150MOL   C22136279   4.181   6.592   5.843 -0.1633 -0.1748  0.5692
  150MOL   C22236280   4.110   6.460   5.803  0.9173 -0.0122  0.5954
  150MOL   O22336281   4.173   6.696   5.767  0.2448 -0.2000  0.2147
  150MOL   H22436282   4.483   6.540   6.013  2.1690  1.5425 -0.3622
  150MOL   H22536283   4.458   6.610   6.166 -1.2584 -1.0003 -0.3324
  150MOL   H22636284   4.362   6.734   5.910  2.0642  2.2699  1.9928
  150MOL   H22736285   4.118   6.434   5.698  1.7298 -0.1919  0.6995
  150MOL   H22836286   4.008   6.455   5.842  0.5516  1.2433 -0.1831
  150MOL   H22936287   4.163   6.377   5.850 -2.0263 -1.0135  2.2808
  150MOL   C23036288   4.239   6.763   6.092  0.2205 -0.4235  0.5476
  150MOL   C23136289   4.173   6.677   6.213 -0.6355  0.3756  0.2102
  150MOL   O23236290   4.100   6.762   6.301 -0.1741 -0.3046 -0.0833
  150MOL   C23336291   3.985   6.819   6.264  0.0303 -0.0173 -0.6842
  150MOL   C23436292   3.935   6.922   6.362  0.2870  0.6696 -0.0186
  150MOL   O23536293   3.925   6.784   6.163  0.5588 -0.0439 -0.2523
  150MOL   H23636294   4.285   6.852   6.137  0.7953 -1.2276  1.5834
  150MOL   H23736295   4.151   6.799   6.039 -0.3037  0.1844  1.7972
  150MOL   H23836296   4.251   6.622   6.266 -0.9184  0.1479  0.3880
  150MOL   H23936297   3.979   7.016   6.327 -2.1060  1.0437 -2.1435
  150MOL   H24036298   3.974   6.901   6.462  2.9176  3.2247 -0.4335
  150MOL   H24136299   3.830   6.949   6.364  0.1079  0.3400 -2.8311
  150MOL   H24236300   4.110   6.593   6.186  1.9660 -2.3943  2.4525
  151MOL     C136301   6.513   5.775   2.641 -0.0662  0.6288 -0.6753
  151MOL     C236302   6.437   5.911   2.651  0.4234 -0.7801 -0.2884
  151MOL     O336303   6.347   5.918   2.762 -0.4210 -0.0952  0.2497
  151MOL     C436304   6.233   5.837   2.754 -0.5051 -0.4179  0.1419
  151MOL     C536305   6.132   5.869   2.855  0.4902 -0.2618 -0.1068
  151MOL     O636306   6.202   5.768   2.659  0.1786  0.6247 -0.4814
  151MOL     H736307   6.437   5.700   2.617 -1.1890  1.0752  1.3765
  151MOL     H836308   6.566   5.744   2.731  1.2792  2.7747 -0.7005
  151MOL     H936309   6.377   5.928   2.562 -0.2730  1.6226  0.6210
  151MOL    H1036310   6.046   5.803   2.854 -2.2723  3.0921  3.5228
  151MOL    H1136311   6.099   5.969   2.829  0.8820  0.2588  1.3560
  151MOL    H1236312   6.184   5.877   2.951  2.4602 -0.7637 -1.1064
  151MOL    H1336313   6.595   5.777   2.569 -0.5774  0.5040 -1.2680
  151MOL    C1436314   6.532   6.032   2.676  0.7184 -0.4164 -0.2966
  151MOL    C1536315   6.468   6.170   2.660  0.4723  0.3861  0.1422
  151MOL    O1636316   6.419   6.209   2.786 -0.1307  0.0072 -0.6862
  151MOL    C1736317   6.287   6.243   2.792 -0.1837 -0.5299 -0.8376
  151MOL    C1836318   6.235   6.256   2.939 -0.0777  0.4415 -0.0799
  151MOL    O1936319   6.207   6.245   2.696  0.0680 -0.2164  0.0828
  151MOL    H2036320   6.578   6.031   2.775 -2.0025  1.0777  1.0570
  151MOL    H2136321   6.606   6.018   2.597 -0.0427  1.8565 -1.4822
  151MOL    H2236322   6.391   6.162   2.583  1.0050 -2.2591 -0.1697
  151MOL    H2336323   6.230   6.155   2.980  0.9294  1.3535  2.3904
  151MOL    H2436324   6.135   6.298   2.936  0.1065  0.8324 -0.7798
  151MOL    H2536325   6.303   6.322   2.993  0.2841 -0.1392  0.1882
  151MOL    C2636326   6.563   6.289   2.635  0.0203  0.0117 -0.1338
  151MOL    C2736327   6.605   6.298   2.482  0.3903  0.6321 -0.7109
  151MOL    O2836328   6.487   6.339   2.413 -0.9030  0.3740  0.2215
  151MOL    C2936329   6.409   6.250   2.343 -0.5629 -0.0944  0.8499
  151MOL    C3036330   6.288   6.315   2.275  0.5667  0.7686  0.2975
  151MOL    O3136331   6.427   6.128   2.332 -0.0413  0.4776  0.2542
  151MOL    H3236332   6.520   6.385   2.664 -0.5297 -0.3605  0.2838
  151MOL    H3336333   6.651   6.276   2.698 -0.4029 -1.6825  0.1333
  151MOL    H3436334   6.634   6.196   2.457  1.2755  1.3356 -2.7251
  151MOL    H3536335   6.209   6.347   2.344 -2.5340 -2.2359 -1.7099
  151MOL    H3636336   6.248   6.244   2.203 -1.4682 -0.2081  2.3372
  151MOL    H3736337   6.324   6.407   2.229  2.7802  0.9469  2.2646
  151MOL    C3836338   6.714   6.399   2.455  0.2347 -0.1495 -0.1733
  151MOL    C3936339   6.847   6.367   2.526  0.5138 -0.2574  0.1318
  151MOL    O4036340   6.879   6.229   2.482  0.4805 -0.7326  0.3246
  151MOL    C4136341   6.923   6.141   2.574 -0.0662  0.0262 -0.1027
  151MOL    C4236342   6.965   6.024   2.505 -0.3463 -0.3060  0.2465
  151MOL    O4336343   6.914   6.149   2.691 -0.6814 -0.1175 -0.2205
  151MOL    H4436344   6.734   6.398   2.348 -4.5387 -0.3027 -1.1936
  151MOL    H4536345   6.681   6.497   2.490  0.4873 -0.5979  1.3416
  151MOL    H4636346   6.824   6.357   2.632  1.8026 -2.8277  0.2194
  151MOL    H4736347   7.047   6.055   2.440 -0.5302  2.2968  1.1922
  151MOL    H4836348   6.885   5.983   2.444 -0.7946 -0.2861  0.8135
  151MOL    H4936349   6.999   5.948   2.576  0.5637 -0.6451 -0.5457
  151MOL    C5036350   6.963   6.472   2.502 -0.6418  0.3816 -0.3102
  151MOL    C5136351   7.092   6.452   2.589 -0.4005 -0.5444 -0.4236
  151MOL    O5236352   7.195   6.541   2.550  0.3019 -0.2736  0.0879
  151MOL    C5336353   7.263   6.512   2.439  0.1454 -0.6365 -0.0852
  151MOL    C5436354   7.370   6.617   2.411  0.1148  0.3937  0.1426
  151MOL    O5536355   7.228   6.420   2.364  0.2087  0.1718  0.1198
  151MOL    H5636356   6.987   6.466   2.395 -0.1212 -1.0632 -0.1196
  151MOL    H5736357   6.932   6.576   2.517  1.2789  0.6474  1.9804
  151MOL    H5836358   7.130   6.351   2.582 -0.9824 -0.6680 -2.0706
  151MOL    H5936359   7.465   6.567   2.392 -0.3250 -0.7780  0.9359
  151MOL    H6036360   7.401   6.681   2.493 -0.6006  2.1365 -0.9266
  151MOL    H6136361   7.333   6.674   2.326 -0.6601  1.7081  1.3452
  151MOL    C6236362   7.066   6.460   2.741  0.3982 -0.4918 -0.8675
  151MOL    C6336363   7.190   6.482   2.833 -0.4944 -0.6102 -0.2759
  151MOL    O6436364   7.139   6.486   2.972  0.0055 -0.1637  0.1176
  151MOL    C6536365   7.119   6.603   3.023 -0.0227  0.3672  0.9101
  151MOL    C6636366   7.083   6.590   3.172  0.6782  0.2631 -0.3526
  151MOL    O6736367   7.121   6.715   2.972  0.0418  0.0457 -0.1314
  151MOL    H6836368   7.000   6.543   2.766 -1.6288 -1.4923 -2.7312
  151MOL    H6936369   7.008   6.375   2.774 -0.9513  0.6257 -0.2901
  151MOL    H7036370   7.237   6.576   2.801 -0.3890 -1.1032 -1.6006
  151MOL    H7136371   7.095   6.487   3.207  0.7060  0.9562  1.7329
  151MOL    H7236372   6.979   6.621   3.183  0.6178  0.0722 -0.3679
  151MOL    H7336373   7.145   6.650   3.239 -0.1200  0.8164 -0.1104
  151MOL    C7436374   7.299   6.385   2.808 -1.1289 -0.1207 -0.0575
  151MOL    C7536375   7.433   6.436   2.863  0.0465 -0.0676 -0.0842
  151MOL    O7636376   7.442   6.409   3.007  0.4752  0.3898  0.6529
  151MOL    C7736377   7.488   6.507   3.084  0.0031  0.1291  0.0672
  151MOL    C7836378   7.502   6.462   3.230 -0.4573  0.6023  0.1495
  151MOL    O7936379   7.528   6.619   3.046  0.2331  0.2285 -0.0186
  151MOL    H8036380   7.267   6.291   2.852  1.0706 -2.0366 -2.4338
  151MOL    H8136381   7.322   6.365   2.704  0.7801  1.2796  0.0552
  151MOL    H8236382   7.420   6.543   2.847 -0.0147 -0.3183 -1.8017
  151MOL    H8336383   7.447   6.368   3.238  0.6507  0.0697  1.8719
  151MOL    H8436384   7.446   6.538   3.285 -0.5566 -0.5122  1.6178
  151MOL    H8536385   7.603   6.448   3.268 -0.1797  0.7219 -0.5321
  151MOL    C8636386   7.563   6.382   2.789  0.5671  0.7236  0.2551
  151MOL    C8736387   7.602   6.236   2.814 -0.0877 -0.2902 -0.1899
  151MOL    O8836388   7.501   6.142   2.765 -0.3091  0.7563  0.2434
  151MOL    C8936389   7.431   6.065   2.843  0.3783 -0.2682  0.3645
  151MOL    C9036390   7.303   6.004   2.778  0.1197  0.1301 -0.4241
  151MOL    O9136391   7.455   6.055   2.966  0.1491 -0.1017 -0.1676
  151MOL    H9236392   7.536   6.390   2.684 -1.3453 -0.4305  0.6401
  151MOL    H9336393   7.642   6.453   2.815  1.2744  0.1552 -0.3323
  151MOL    H9436394   7.599   6.219   2.921 -0.2837  1.2959  0.0728
  151MOL    H9536395   7.334   5.910   2.732  0.0400  0.2823 -0.7909
  151MOL    H9636396   7.250   6.064   2.705 -1.0937  0.6344  0.8518
  151MOL    H9736397   7.230   5.980   2.855 -0.3148 -2.2030 -1.5086
  151MOL    C9836398   7.750   6.196   2.774  0.2592  0.0179 -0.0916
  151MOL    C9936399   7.806   6.076   2.859  0.1967 -0.7175  0.3108
  151MOL   O10036400   7.774   5.948   2.799  0.5537  0.1305  0.6454
  151MOL   C10136401   7.746   5.843   2.877  0.3602  0.0960 -0.2499
  151MOL   C10236402   7.696   5.720   2.804 -0.3680  0.2120 -0.1150
  151MOL   O10336403   7.768   5.834   2.999  0.4146  0.3484  0.6909
  151MOL   H10436404   7.754   6.166   2.669 -0.5994  0.6696 -0.3246
  151MOL   H10536405   7.810   6.287   2.773 -0.3651  0.4382  0.2747
  151MOL   H10636406   7.765   6.078   2.959  0.4717 -1.0428  0.4304
  151MOL   H10736407   7.604   5.678   2.845 -0.6649  2.0379  1.1300
  151MOL   H10836408   7.773   5.644   2.819  1.5198  2.0321 -0.2792
  151MOL   H10936409   7.675   5.739   2.698  2.5705 -0.2279 -0.8174
  151MOL   C11036410   7.961   6.078   2.861 -0.4346  0.4624 -0.1265
  151MOL   C11136411   0.010   6.201   2.922  1.0428  0.4645 -0.3259
  151MOL   O11236412   8.007   6.195   3.060 -0.4926  0.3446 -0.2831
  151MOL   C11336413   7.925   6.283   3.124 -0.1784 -0.4296  0.3251
  151MOL   C11436414   7.935   6.274   3.268 -0.3072 -0.5360 -0.2028
  151MOL   O11536415   7.851   6.364   3.068 -0.3382  0.4265 -0.7177
  151MOL   H11636416   8.001   5.985   2.900  0.0798  0.2896 -1.0428
  151MOL   H11736417   7.998   6.078   2.758  0.4135  2.6885  0.1407
  151MOL   H11836418   7.991   6.289   2.872  1.1209  0.1882 -0.8768
  151MOL   H11936419   7.973   6.176   3.298 -0.1607 -0.1623  0.8435
  151MOL   H12036420   7.841   6.285   3.322  1.0014  2.4593  1.5931
  151MOL   H12136421   8.015   6.341   3.301 -1.0321  0.4617 -0.4546
  151MOL   C12236422   0.165   6.200   2.889  0.1026 -0.2847  0.0135
  151MOL   C12336423   0.228   6.326   2.939 -0.8118 -0.5748  0.1986
  151MOL   O12436424   0.362   6.301   2.960 -0.3889 -0.4206 -0.4538
  151MOL   C12536425   0.426   6.362   3.068  0.5624  0.6793  0.5185
  151MOL   C12636426   0.575   6.327   3.066  0.8674  0.0048 -0.0586
  151MOL   O12736427   0.379   6.418   3.160 -0.3206 -0.6273  0.1516
  151MOL   H12836428   0.204   6.116   2.947  1.7147  0.2676 -0.2560
  151MOL   H12936429   0.185   6.177   2.785  1.6178  1.8385 -0.1836
  151MOL   H13036430   0.172   6.340   3.032 -1.3364  0.3393 -0.2451
  151MOL   H13136431   0.583   6.232   3.119 -1.3311  1.6256  3.2893
  151MOL   H13236432   0.628   6.406   3.119 -0.4812  0.5109  0.5632
  151MOL   H13336433   0.603   6.317   2.961  1.1882 -2.0045  0.1938
  151MOL   C13436434   0.193   6.455   2.858  0.2410  0.1139 -0.2078
  151MOL   C13536435   0.214   6.467   2.701  0.7990  0.1054 -0.3328
  151MOL   O13636436   0.116   6.386   2.636 -0.0140 -0.0945 -0.1881
  151MOL   C13736437   0.151   6.311   2.541 -0.7807  0.0974  1.0892
  151MOL   C13836438   0.039   6.238   2.478 -0.0313 -0.4253  0.2139
  151MOL   O13936439   0.267   6.302   2.497  0.0621  0.2558  0.9884
  151MOL   H14036440   0.086   6.472   2.874  0.6904  3.0511  0.0812
  151MOL   H14136441   0.256   6.529   2.908  0.7391  0.2093 -0.9626
  151MOL   H14236442   0.316   6.430   2.694  0.9895  0.6509 -0.4233
  151MOL   H14336443   0.011   6.288   2.385 -2.8384 -1.9255  0.1980
  151MOL   H14436444   7.972   6.236   2.541  0.2918 -2.1311  0.6417
  151MOL   H14536445   0.061   6.132   2.463  2.2125 -0.4390  3.2352
  151MOL   C14636446   0.217   6.612   2.655  0.7515  0.1364 -0.1166
  151MOL   C14736447   0.079   6.673   2.617  0.2691  0.2942  0.2626
  151MOL   O14836448   0.013   6.716   2.728 -0.1792 -0.0747 -0.7560
  151MOL   C14936449   7.934   6.653   2.779  0.2708  0.2840 -0.0348
  151MOL   C15036450   7.889   6.713   2.910  0.3163  0.5865  0.1317
  151MOL   O15136451   7.873   6.563   2.721  0.4583  0.0913  0.0736
  151MOL   H15236452   0.266   6.682   2.722  1.0636 -1.5035  1.4107
  151MOL   H15336453   0.271   6.618   2.561  0.4922  1.1301 -0.2120
  151MOL   H15436454   0.021   6.600   2.560  0.2201 -1.3382  2.3416
  151MOL   H15536455   7.980   6.766   2.938  0.6204  0.9220 -1.4651
  151MOL   H15636456   7.882   6.631   2.982  1.3246  0.9259  0.6227
  151MOL   H15736457   7.802   6.778   2.912 -0.5823 -0.6037  0.1381
  151MOL   C15836458   0.089   6.800   2.526  0.4237 -0.5409 -0.3659
  151MOL   C15936459   7.992   6.806   2.434 -0.5865 -0.5308  0.2175
  151MOL   O16036460   7.879   6.859   2.508 -0.1223 -0.3303  0.4065
  151MOL   C16136461   7.755   6.811   2.492 -0.4191  0.0178 -0.1928
  151MOL   C16236462   7.662   6.881   2.591  0.3488 -0.3046  0.2799
  151MOL   O16336463   7.723   6.716   2.422  0.4145  0.1788 -0.4514
  151MOL   H16436464   0.092   6.896   2.578 -0.1277 -1.4224  1.3179
  151MOL   H16536465   0.181   6.788   2.468 -0.9205  1.0435 -2.9461
  151MOL   H16636466   7.986   6.705   2.392  0.0931 -0.4242 -0.1572
  151MOL   H16736467   7.560   6.846   2.608  0.1893 -0.4486 -0.9843
  151MOL   H16836468   7.645   6.977   2.543  2.5500  1.3764  2.7475
  151MOL   H16936469   7.707   6.910   2.687  0.1274  0.1987  0.2336
  151MOL   C17036470   0.007   6.911   2.323  0.2822 -0.1874 -0.3017
  151MOL   C17136471   7.944   6.915   2.190  0.1164 -0.0003 -0.1662
  151MOL   O17236472   7.987   7.032   2.115 -0.4084  0.4782 -0.1034
  151MOL   C17336473   7.903   7.134   2.110 -0.6353  0.0056  0.3270
  151MOL   C17436474   7.937   7.234   2.003  0.4656  1.1654 -0.4005
  151MOL   O17536475   7.799   7.149   2.173  0.6934  0.0254 -0.0329
  151MOL   H17636476   0.006   7.014   2.358 -0.7123  0.5615 -2.4494
  151MOL   H17736477   0.108   6.891   2.289  0.1490  1.0198 -1.4521
  151MOL   H17836478   7.842   6.926   2.227 -0.4264 -0.9619 -1.3699
  151MOL   H17936479   0.017   7.212   1.971 -0.1212  0.3132 -1.7347
  151MOL   H18036480   7.927   7.335   2.041 -1.3506  1.0587 -0.5287
  151MOL   H18136481   7.871   7.222   1.917  0.6038 -2.8208 -0.0466
  151MOL   C18236482   7.962   6.779   2.112 -0.3689 -0.0743 -0.2998
  151MOL   C18336483   7.871   6.776   1.985  0.0118 -0.3325 -0.2028
  151MOL   O18436484   7.951   6.809   1.874  0.2043  0.3353  0.3863
  151MOL   C18536485   7.898   6.872   1.766 -0.3303 -0.1253  0.0459
  151MOL   C18636486   8.000   6.893   1.658 -0.5380 -0.4010 -0.6428
  151MOL   O18736487   7.786   6.921   1.757 -0.4954  0.1233  0.2125
  151MOL   H18836488   0.041   6.743   2.090 -0.9778 -1.7375 -0.4309
  151MOL   H18936489   7.933   6.698   2.178 -1.9833  2.2202  1.8660
  151MOL   H19036490   7.792   6.851   1.992  1.5154  1.2906 -0.1664
  151MOL   H19136491   8.000   6.995   1.621 -0.6408 -0.1756 -0.0319
  151MOL   H19236492   7.978   6.839   1.567 -1.8444  1.5462 -1.5214
  151MOL   H19336493   0.076   6.859   1.692 -1.6075 -2.3593  0.6027
  151MOL   C19436494   7.791   6.645   1.960 -0.3091 -0.5785 -0.0132
  151MOL   C19536495   7.654   6.637   2.041 -0.2163  0.4690  0.7967
  151MOL   O19636496   7.575   6.741   1.982 -0.0627 -0.2925 -0.1413
  151MOL   C19736497   7.518   6.838   2.061 -0.9318  0.2462  0.1614
  151MOL   C19836498   7.426   6.939   1.989 -0.1220  0.1171 -0.7733
  151MOL   O19936499   7.552   6.855   2.178  0.6487  0.1583 -0.0155
  151MOL   H20036500   7.775   6.642   1.852  3.8089 -2.3290 -0.6702
  151MOL   H20136501   7.860   6.571   1.999 -2.5152 -1.4335  2.4740
  151MOL   H20236502   7.660   6.660   2.147  1.0993  2.5054  0.3136
  151MOL   H20336503   7.418   6.901   1.887 -0.5463  0.7131 -0.9675
  151MOL   H20436504   7.488   7.028   1.995  0.5237 -0.4505  1.5762
  151MOL   H20536505   7.331   6.934   2.043  0.2976  0.3353 -0.0058
  151MOL   C20636506   7.579   6.506   2.020 -0.2136 -0.2820  0.1255
  151MOL   C20736507   7.648   6.381   2.086 -0.1200 -0.2847 -0.6599
  151MOL   O20836508   7.633   6.387   2.223  0.1565  0.5045  0.6533
  151MOL   C20936509   7.741   6.413   2.294 -0.0974  0.1922 -0.2236
  151MOL   C21036510   7.709   6.434   2.439 -0.0278 -1.0230  0.4689
  151MOL   O21136511   7.856   6.429   2.250  0.8449  0.2010 -0.1879
  151MOL   H21236512   7.478   6.509   2.061  0.1001  0.0320  0.8890
  151MOL   H21336513   7.575   6.477   1.915  1.0746 -1.0945  0.2953
  151MOL   H21436514   7.753   6.397   2.061  0.0444 -1.0824 -0.5058
  151MOL   H21536515   7.631   6.510   2.452  0.5548 -0.4879  0.8776
  151MOL   H21636516   7.794   6.464   2.500  0.6854 -0.2878 -0.8570
  151MOL   H21736517   7.673   6.342   2.484  1.2643 -2.0697 -0.6291
  151MOL   C21836518   7.601   6.243   2.031 -0.1041  0.0110  0.4117
  151MOL   C21936519   7.722   6.147   2.025  0.3378 -0.1945 -0.0251
  151MOL   O22036520   7.730   6.081   2.145  0.1079  0.3608 -0.0646
  151MOL   C22136521   7.840   6.080   2.215 -0.4351 -0.0029 -0.1852
  151MOL   C22236522   7.828   5.991   2.341 -0.3753 -0.4543 -0.4102
  151MOL   O22336523   7.948   6.132   2.181  0.1937  0.6050 -0.3766
  151MOL   H22436524   7.520   6.204   2.093 -1.9466  2.4676 -0.3914
  151MOL   H22536525   7.564   6.250   1.929 -0.6912  1.9595  0.7307
  151MOL   H22636526   7.804   6.198   1.974 -0.1974  1.1514  0.4403
  151MOL   H22736527   7.881   5.898   2.319  0.7421 -0.1753  1.0738
  151MOL   H22836528   7.731   5.979   2.388 -0.0641 -1.4735 -0.0234
  151MOL   H22936529   7.890   6.045   2.412 -1.6763 -0.7311  0.9464
  151MOL   C23036530   7.693   6.026   1.928  0.0732 -0.6957  0.1377
  151MOL   C23136531   7.671   6.064   1.779 -0.4467 -0.4164 -0.0409
  151MOL   O23236532   7.627   5.952   1.709 -0.1104 -0.1204  0.0372
  151MOL   C23336533   7.596   5.968   1.583 -0.1757  0.1977  0.2089
  151MOL   C23436534   7.530   5.836   1.517 -0.5646  0.2014 -0.1745
  151MOL   O23536535   7.602   6.076   1.520 -0.0871 -0.0565  0.8194
  151MOL   H23636536   7.763   5.943   1.922  0.1019 -0.6959  0.4954
  151MOL   H23736537   7.601   5.979   1.965 -0.8024  0.4875 -0.4842
  151MOL   H23836538   7.758   6.110   1.733 -0.8796 -0.3866 -0.8260
  151MOL   H23936539   7.603   5.760   1.486 -1.1611  0.7823 -3.2027
  151MOL   H24036540   7.469   5.871   1.434 -1.0456  2.2120  0.9946
  151MOL   H24136541   7.448   5.800   1.579  0.2111  2.3206  2.1566
  151MOL   H24236542   7.598   6.144   1.771  1.3512  1.4933  2.0464
  152MOL     C136543   1.352   1.562   5.966  0.2695  0.0157  0.4335
  152MOL     C236544   1.333   1.443   5.875  0.1454  0.0159  0.5270
  152MOL     O336545   1.388   1.468   5.745 -0.1338  0.0664  0.3685
  152MOL     C436546   1.318   1.535   5.645  0.6614  0.4079  1.0124
  152MOL     C536547   1.381   1.548   5.504 -0.7725 -0.0044  0.5736
  152MOL     O636548   1.202   1.573   5.661  0.6677 -0.5045  0.6476
  152MOL     H736549   1.321   1.545   6.069  1.6991 -0.1076  0.8551
  152MOL     H836550   1.289   1.639   5.922  1.1726 -0.2948 -1.4909
  152MOL     H936551   1.226   1.427   5.862  0.2873 -1.0759  0.6951
  152MOL    H1036552   1.469   1.485   5.488 -0.7691  0.4793 -1.4657
  152MOL    H1136553   1.398   1.654   5.488 -0.7642 -0.1750 -0.6201
  152MOL    H1236554   1.313   1.523   5.422  0.2159  0.4184 -0.3876
  152MOL    H1336555   1.451   1.608   5.975 -1.0229  3.3225 -1.4876
  152MOL    C1436556   1.405   1.316   5.938 -0.1447  0.3739 -0.5959
  152MOL    C1536557   1.397   1.187   5.857  0.1741  0.2037  0.1384
  152MOL    O1636558   1.474   1.088   5.924  0.1353  0.1153 -0.0377
  152MOL    C1736559   1.582   1.032   5.874 -0.2927 -0.0899  0.1016
  152MOL    C1836560   1.664   0.959   5.970 -0.1981 -0.2005  0.6247
  152MOL    O1936561   1.624   1.054   5.764  0.0023  0.4061  0.0876
  152MOL    H2036562   1.509   1.347   5.948 -0.4137  1.3703 -0.8322
  152MOL    H2136563   1.368   1.309   6.041  0.9410 -0.9966 -0.2887
  152MOL    H2236564   1.439   1.221   5.763  0.4330  1.4396  0.6865
  152MOL    H2336565   1.756   0.942   5.913  0.1172  0.0085  1.0746
  152MOL    H2436566   1.624   0.862   5.999 -2.3439  1.0869  2.1046
  152MOL    H2536567   1.694   1.018   6.057 -0.1365 -0.6794  0.9291
  152MOL    C2636568   1.253   1.130   5.830  0.2920 -0.1649  0.0082
  152MOL    C2736569   1.199   1.059   5.964  0.4389  0.2142 -0.1863
  152MOL    O2836570   1.126   1.158   6.041  0.3027 -0.1477  0.7736
  152MOL    C2936571   1.158   1.184   6.162 -0.0309 -1.0198 -0.3313
  152MOL    C3036572   1.082   1.303   6.216 -0.2441 -0.0849  0.7232
  152MOL    O3136573   1.235   1.121   6.229  0.2128 -0.6303 -0.0391
  152MOL    H3236574   1.196   1.217   5.797  0.5049  0.0230  0.1289
  152MOL    H3336575   1.260   1.059   5.748 -1.6675 -0.1348 -0.2161
  152MOL    H3436576   1.277   1.011   6.023  0.4784  0.0415 -0.3749
  152MOL    H3536577   1.153   1.358   6.279 -0.3852  2.8299 -1.5699
  152MOL    H3636578   0.999   1.276   6.281 -0.4929 -0.6662  0.1642
  152MOL    H3736579   1.039   1.359   6.133 -0.5010 -2.1258 -0.5481
  152MOL    C3836580   1.089   0.955   5.934  0.3484  0.1469 -0.3117
  152MOL    C3936581   1.124   0.807   5.899  0.3258 -0.7300 -0.2475
  152MOL    O4036582   1.204   0.743   6.001 -0.1420  0.1461  0.2566
  152MOL    C4136583   1.333   0.740   5.991  0.0737 -0.5354  0.1395
  152MOL    C4236584   1.403   0.697   6.122 -0.1710  0.0574  0.1169
  152MOL    O4336585   1.399   0.760   5.885  0.6349 -0.1626 -0.2239
  152MOL    H4436586   1.011   0.947   6.010  0.5950 -0.0223 -0.0755
  152MOL    H4536587   1.029   1.005   5.859  0.3733  0.7361  0.0581
  152MOL    H4636588   1.182   0.813   5.808 -0.6506  2.2759 -0.7119
  152MOL    H4736589   1.470   0.780   6.147 -0.4042  0.1890  0.3124
  152MOL    H4836590   1.469   0.613   6.102  0.3222 -0.1382  2.3528
  152MOL    H4936591   1.348   0.676   6.214  0.8617 -0.8655  0.5351
  152MOL    C5036592   0.995   0.729   5.877  0.0899  0.2976  0.1322
  152MOL    C5136593   1.014   0.588   5.826 -0.3623 -0.1699 -0.9839
  152MOL    O5236594   1.057   0.503   5.935 -0.4176 -0.1105  0.0224
  152MOL    C5336595   1.174   0.429   5.922 -0.0352  0.4406  0.7735
  152MOL    C5436596   1.190   0.337   6.037 -0.1366 -0.4973  0.1416
  152MOL    O5536597   1.245   0.416   5.818  0.3757 -0.2899 -0.3854
  152MOL    H5636598   0.933   0.722   5.967  0.5498  1.3500  0.5306
  152MOL    H5736599   0.931   0.771   5.799 -0.5215  0.4352  0.7071
  152MOL    H5836600   1.091   0.582   5.748  3.1657  1.7181  2.1977
  152MOL    H5936601   1.170   0.378   6.136  2.0117  0.2011  0.3101
  152MOL    H6036602   1.291   0.296   6.026  0.5199  0.5073  2.1724
  152MOL    H6136603   1.126   0.249   6.033 -1.6433  0.5778  0.1242
  152MOL    C6236604   0.878   0.528   5.776  0.4962 -0.1666 -0.2484
  152MOL    C6336605   0.867   0.376   5.756 -0.3217  0.1146  0.0482
  152MOL    O6436606   0.742   0.353   5.701 -0.4347  0.3222  0.0884
  152MOL    C6536607   0.654   0.277   5.762 -0.4254  0.0522 -0.2951
  152MOL    C6636608   0.524   0.277   5.692  0.0844  0.3822 -0.6216
  152MOL    O6736609   0.684   0.197   5.856 -0.1295  0.0345  0.7573
  152MOL    H6836610   0.794   0.564   5.836  1.7768 -1.1839  2.2384
  152MOL    H6936611   0.846   0.567   5.679 -2.0611 -1.3397  0.0799
  152MOL    H7036612   0.874   0.332   5.855  1.8732  0.9826  0.3175
  152MOL    H7136613   0.448   0.254   5.766  1.8616 -1.2709  0.7251
  152MOL    H7236614   0.520   0.204   5.612 -0.1420 -0.9009  0.5483
  152MOL    H7336615   0.497   0.380   5.666 -2.9592 -0.2451 -0.0821
  152MOL    C7436616   0.964   0.306   5.660 -0.9355  0.7264 -0.6918
  152MOL    C7536617   0.972   0.156   5.673 -0.2098 -0.5127 -0.2708
  152MOL    O7636618   1.034   0.105   5.560 -0.2577  0.0544  0.0077
  152MOL    C7736619   0.960   0.080   5.447 -0.1490  0.0312 -0.1775
  152MOL    C7836620   1.034   8.006   5.348 -1.1062 -0.2242  0.1553
  152MOL    O7936621   0.844   0.110   5.434  0.8359  0.2276 -0.0573
  152MOL    H8036622   0.952   0.341   5.557  3.9835 -0.3896 -1.8080
  152MOL    H8136623   1.066   0.344   5.669  0.0482 -2.0944  0.8251
  152MOL    H8236624   0.871   0.117   5.688  0.1323 -1.9799 -1.6034
  152MOL    H8336625   1.125   0.036   5.318 -0.2992 -0.0463  2.7974
  152MOL    H8436626   0.987   7.979   5.253  0.7816 -0.0288 -0.8660
  152MOL    H8536627   1.073   7.922   5.405 -2.2455  0.0298  1.3042
  152MOL    C8636628   1.074   0.121   5.793  0.1636 -0.0670 -0.3365
  152MOL    C8736629   1.099   7.998   5.818 -0.2163  0.1549 -0.2751
  152MOL    O8836630   1.222   7.997   5.898 -0.4221 -0.1873  0.6623
  152MOL    C8936631   1.300   7.885   5.904 -0.0225  0.2382  0.0783
  152MOL    C9036632   1.401   7.893   6.015 -0.3278  0.1980  0.1733
  152MOL    O9136633   1.298   7.786   5.828 -0.5099  0.0885 -0.0669
  152MOL    H9236634   1.164   0.172   5.761  0.3587  0.2967  0.7785
  152MOL    H9336635   1.038   0.166   5.886  1.5062  1.7550 -0.6757
  152MOL    H9436636   1.116   7.943   5.725  1.1281 -2.3198  1.3769
  152MOL    H9536637   1.424   7.998   6.036  1.3164 -0.5450  2.3328
  152MOL    H9636638   1.480   7.821   5.994  0.1429  1.1339 -1.3338
  152MOL    H9736639   1.351   7.867   6.108  0.6268 -2.6610 -0.0715
  152MOL    C9836640   0.970   7.941   5.891  0.1912  0.4065 -0.7619
  152MOL    C9936641   0.945   7.791   5.864  0.2613  0.0578 -0.7058
  152MOL   O10036642   1.043   7.716   5.940  0.0604 -0.2627  0.6415
  152MOL   C10136643   1.073   7.590   5.904 -0.1045 -0.2737 -0.6208
  152MOL   C10236644   1.175   7.523   5.995  0.1229 -1.1201  0.7427
  152MOL   O10336645   1.022   7.524   5.812 -0.6069 -0.5251 -0.4645
  152MOL   H10436646   0.976   7.960   5.998  2.7195  1.2697 -1.0202
  152MOL   H10536647   0.889   8.000   5.849 -0.6525  1.1758  1.8768
  152MOL   H10636648   0.953   7.781   5.756 -1.8111 -1.0143 -0.7934
  152MOL   H10736649   1.157   7.415   6.000 -0.1471 -1.1370 -0.5870
  152MOL   H10836650   1.184   7.561   6.097  1.2177 -0.2721  0.3385
  152MOL   H10936651   1.276   7.538   5.956 -0.0491  2.6596  1.6176
  152MOL   C11036652   0.807   7.745   5.904 -0.0279 -0.0092  0.1925
  152MOL   C11136653   0.686   7.808   5.827  0.7900 -0.7102  0.1056
  152MOL   O11236654   0.701   7.785   5.688  0.3017  0.0169  0.7398
  152MOL   C11336655   0.645   7.866   5.599  0.1298  0.4021 -0.1484
  152MOL   C11436656   0.652   7.823   5.451  0.2203  0.5449  0.4266
  152MOL   O11536657   0.566   7.962   5.628  0.0039  0.2763 -0.3505
  152MOL   H11636658   0.794   7.637   5.910  1.1449 -0.1436  0.4230
  152MOL   H11736659   0.796   7.774   6.009  0.4053  1.2873 -0.1132
  152MOL   H11836660   0.678   7.916   5.841  1.2202 -0.8046  1.1170
  152MOL   H11936661   0.755   7.789   5.435 -0.8973 -1.9659 -2.0892
  152MOL   H12036662   0.638   7.911   5.388 -1.1759 -0.0127 -0.0614
  152MOL   H12136663   0.584   7.740   5.428 -0.6180  1.6984 -1.3280
  152MOL   C12236664   0.562   7.733   5.873  0.2845  0.0692  0.0910
  152MOL   C12336665   0.511   7.738   6.019 -0.0283 -0.5522  0.6043
  152MOL   O12436666   0.451   7.869   6.037  0.0222  0.2208  0.0514
  152MOL   C12536667   0.529   7.977   6.066 -0.6011  0.4508 -0.2809
  152MOL   C12636668   0.446   0.079   6.093  0.0542  0.2605 -0.0982
  152MOL   O12736669   0.649   7.970   6.067 -0.1740 -0.3940  0.6149
  152MOL   H12836670   0.478   7.768   5.813  1.0844  3.0768  0.5994
  152MOL   H12936671   0.569   7.630   5.840 -1.4398  0.1545 -0.6103
  152MOL   H13036672   0.586   7.730   6.098 -0.8257  0.3781  1.4657
  152MOL   H13136673   0.460   0.119   6.193  2.2873  1.2661 -0.7733
  152MOL   H13236674   0.340   0.056   6.084  0.1674 -0.3473  0.1196
  152MOL   H13336675   0.476   0.158   6.024 -0.9437 -0.1004 -0.9545
  152MOL   C13436676   0.407   7.625   6.043 -0.1455 -0.2152 -0.1747
  152MOL   C13536677   0.377   7.608   6.194  0.2032  0.3849  0.0858
  152MOL   O13636678   0.269   7.698   6.228 -0.1148 -0.1122  0.4580
  152MOL   C13736679   0.290   7.790   6.324 -0.2070  0.6297  0.0351
  152MOL   C13836680   0.182   7.898   6.324 -0.3597  0.5133 -0.2174
  152MOL   O13936681   0.378   7.795   6.410  0.1772 -0.4534 -0.1160
  152MOL   H14036682   0.310   7.647   5.997 -0.8277  1.9137  2.1607
  152MOL   H14136683   0.453   7.534   6.004  0.5582 -0.6019  1.5077
  152MOL   H14236684   0.461   7.627   6.261 -1.5749 -1.3561  2.9650
  152MOL   H14336685   0.132   7.899   6.420 -1.4471 -0.0356 -0.7668
  152MOL   H14436686   0.101   7.891   6.251  0.5123  0.9961 -1.2546
  152MOL   H14536687   0.233   7.990   6.295  0.4503  0.2715  0.4301
  152MOL   C14636688   0.340   7.458   6.222  0.0742  0.3655 -0.6748
  152MOL   C14736689   0.292   7.428   6.363  0.1199  0.1371  0.7406
  152MOL   O14836690   0.232   7.298   6.356  0.0854  0.6325  0.2676
  152MOL   C14936691   0.137   7.257   6.444  0.8293 -1.0188  0.1262
  152MOL   C15036692   0.113   7.107   6.458 -0.4491 -0.6072 -0.0298
  152MOL   O15136693   0.082   7.326   6.533  0.1518 -0.0226  0.2443
  152MOL   H15236694   0.255   7.435   6.157 -0.4644 -1.1959  0.5234
  152MOL   H15336695   0.414   7.383   6.194 -0.3630 -0.8282  1.2939
  152MOL   H15436696   0.216   7.505   6.379 -2.9732 -2.3671 -1.1096
  152MOL   H15536697   0.011   7.095   6.494  0.0322 -0.5862  1.3729
  152MOL   H15636698   0.181   7.074   6.536  0.7090 -1.5952 -1.4428
  152MOL   H15736699   0.136   7.053   6.366 -1.4090 -0.9804 -0.0532
  152MOL   C15836700   0.404   7.419   6.464  0.2374  0.3604 -0.4874
  152MOL   C15936701   0.364   7.418   6.613  0.3397  0.3127 -0.2437
  152MOL   O16036702   0.468   7.405   6.712 -0.2297  0.2396  0.5073
  152MOL   C16136703   0.543   7.301   6.713  0.1667  0.9810  0.5547
  152MOL   C16236704   0.655   7.297   6.807 -0.3131 -1.0662  0.6003
  152MOL   O16336705   0.529   7.215   6.634 -0.7331 -0.5124  0.1730
  152MOL   H16436706   0.451   7.323   6.442  1.2929  0.7018  0.2293
  152MOL   H16536707   0.474   7.500   6.442  1.7019 -0.3264  1.4765
  152MOL   H16636708   0.297   7.338   6.643  0.0086  0.9792  0.7997
  152MOL   H16736709   0.636   7.213   6.875 -1.9229 -2.0116 -0.9751
  152MOL   H16836710   0.663   7.384   6.872  2.3019 -1.4324  0.8082
  152MOL   H16936711   0.753   7.274   6.766  1.0175  0.2526  2.9009
  152MOL   C17036712   0.288   7.549   6.644 -0.0777 -0.1769  0.3344
  152MOL   C17136713   0.233   7.567   6.789 -0.8097  0.2479  0.0021
  152MOL   O17236714   0.186   7.700   6.777  0.3553  0.3297 -0.5714
  152MOL   C17336715   0.245   7.806   6.830  0.4952 -0.0760  0.3668
  152MOL   C17436716   0.169   7.930   6.798 -0.2922 -0.4600  0.3699
  152MOL   O17536717   0.336   7.805   6.913  0.4715  0.3015 -0.4829
  152MOL   H17636718   0.355   7.635   6.635  0.4092 -0.5203  0.6331
  152MOL   H17736719   0.202   7.565   6.579  0.8493  0.4362 -0.7731
  152MOL   H17836720   0.309   7.557   6.866 -0.9042  2.5057  0.4039
  152MOL   H17936721   0.067   7.928   6.836 -0.9648  1.9748 -1.1491
  152MOL   H18036722   0.171   7.927   6.689 -0.2023  0.0020  0.3551
  152MOL   H18136723   0.218   8.021   6.832  2.3950 -1.3791 -0.9564
  152MOL   C18236724   0.125   7.473   6.822  0.1830  0.9658  0.4786
  152MOL   C18336725   0.071   7.480   6.970 -0.0338  0.3325 -0.4728
  152MOL   O18436726   0.168   7.415   7.057  0.5400 -0.8960 -0.3824
  152MOL   C18536727   0.149   7.286   7.089 -0.4950 -0.7163 -0.5565
  152MOL   C18636728   0.249   7.221   7.190  0.0665  0.3144 -0.3632
  152MOL   O18736729   0.041   7.224   7.062  0.4718 -0.4017  0.3662
  152MOL   H18836730   0.040   7.481   6.754  2.2304 -0.1438 -2.3242
  152MOL   H18936731   0.164   7.372   6.807 -1.8779 -0.1831  2.5129
  152MOL   H19036732   7.998   7.426   6.963  0.9771 -1.4833 -0.4737
  152MOL   H19136733   0.199   7.185   7.280 -1.9223 -2.9721 -2.6638
  152MOL   H19236734   0.324   7.293   7.223  0.7015 -0.2109 -0.6338
  152MOL   H19336735   0.293   7.133   7.143 -0.4767 -1.1341  1.7512
  152MOL   C19436736   0.039   7.618   7.035  0.2135  1.0505  0.3956
  152MOL   C19536737   7.990   7.596   7.170  0.4284 -0.1070 -0.1466
  152MOL   O19636738   0.064   7.623   7.279 -0.4756 -0.6290  0.4467
  152MOL   C19736739   0.069   7.537   7.385 -0.0992 -0.2382  0.2079
  152MOL   C19836740   0.178   7.565   7.486  0.1948  0.1159  0.0087
  152MOL   O19936741   8.015   7.445   7.411  0.3464  0.5419  0.7017
  152MOL   H20036742   0.138   7.662   7.051  1.6450 -1.2648 -1.6776
  152MOL   H20136743   8.006   7.675   6.960 -0.6338 -3.5487 -2.6989
  152MOL   H20236744   7.945   7.497   7.184  2.9758 -1.1305  1.0375
  152MOL   H20336745   0.228   7.657   7.455  1.0511 -0.2043  0.4118
  152MOL   H20436746   0.257   7.490   7.485 -0.1464 -0.2462  0.0079
  152MOL   H20536747   0.133   7.568   7.585  1.5530 -1.6395  0.7182
  152MOL   C20636748   7.865   7.695   7.183  0.8560  0.5951  0.1108
  152MOL   C20736749   7.897   7.830   7.244 -0.0122 -0.1930 -0.0804
  152MOL   O20836750   7.978   7.914   7.158  0.0556 -0.1830  0.3373
  152MOL   C20936751   0.065   7.972   7.205  0.7611  0.8688 -0.3652
  152MOL   C21036752   0.140   0.027   7.095  0.0151 -0.0968 -0.0705
  152MOL   O21136753   0.102   7.992   7.321  0.1353 -0.8104 -0.3348
  152MOL   H21236754   7.824   7.709   7.083 -0.1608 -0.7141  0.3382
  152MOL   H21336755   7.787   7.648   7.243  1.8112 -1.5860 -0.3380
  152MOL   H21436756   7.947   7.814   7.339 -0.5716 -1.4959  0.0087
  152MOL   H21536757   0.221   7.986   7.060 -1.4900 -0.8870 -2.2202
  152MOL   H21636758   0.192   0.116   7.130 -1.7932  0.3637  1.6108
  152MOL   H21736759   0.073   0.056   7.014 -0.9298 -2.0937 -0.0208
  152MOL   C21836760   7.761   7.906   7.267 -0.8175  0.0879  0.1396
  152MOL   C21936761   7.768   0.013   7.348  0.1362  0.3281 -0.0607
  152MOL   O22036762   7.638   0.061   7.352 -0.3319  0.1900  0.0088
  152MOL   C22136763   7.617   0.192   7.319  0.2010 -0.6646  0.2508
  152MOL   C22236764   7.471   0.230   7.361 -0.7572  0.3312  0.3676
  152MOL   O22336765   7.698   0.271   7.268 -0.4200 -0.4446  0.2662
  152MOL   H22436766   7.717   7.928   7.169  1.5539 -0.1424 -1.0169
  152MOL   H22536767   7.689   7.841   7.316 -0.1760  0.4126  1.5457
  152MOL   H22636768   7.836   0.085   7.302 -0.5882  1.6329  0.8866
  152MOL   H22736769   7.476   0.299   7.445  1.8809  0.1687  0.3937
  152MOL   H22836770   7.429   0.132   7.383 -1.8109  0.8661  0.7518
  152MOL   H22936771   7.400   0.270   7.288 -1.6691  1.0719  1.6397
  152MOL   C23036772   7.811   8.009   7.493 -0.0223  0.4807 -0.3168
  152MOL   C23136773   7.713   7.935   7.585  0.4981 -0.3047 -0.1574
  152MOL   O23236774   7.733   7.794   7.568 -0.0602  0.2237  0.2485
  152MOL   C23336775   7.681   7.701   7.651  0.1262 -0.8434  0.3834
  152MOL   C23436776   7.719   7.566   7.607  0.3002 -0.4629 -0.2201
  152MOL   O23536777   7.603   7.725   7.745 -0.2227  0.8367  0.0359
  152MOL   H23636778   7.905   7.953   7.492 -0.5926 -0.4886 -0.4739
  152MOL   H23736779   7.854   0.079   7.534 -0.0971 -0.4942  2.0211
  152MOL   H23836780   7.608   7.946   7.560  0.3087  0.7390  1.0872
  152MOL   H23936781   7.647   7.486   7.627  0.6322 -0.7823 -0.2753
  152MOL   H24036782   7.805   7.544   7.670 -0.3803  0.9645  1.2374
  152MOL   H24136783   7.759   7.572   7.506  1.4298 -2.1944  0.0801
  152MOL   H24236784   7.736   7.954   7.689 -1.2025 -2.1923  0.5938
  153MOL     C136785   5.390   7.140   7.713 -0.0713 -0.1688 -0.3971
  153MOL     C236786   5.309   7.162   7.842 -0.3421 -0.0079 -0.5042
  153MOL     O336787   5.292   7.045   7.926 -0.3642 -0.1452  0.1618
  153MOL     C436788   5.184   6.968   7.912  0.1544  0.2959 -0.1846
  153MOL     C536789   5.187   6.854   8.011 -0.6019 -0.1119  0.1358
  153MOL     O636790   5.095   6.977   7.828 -0.0393  0.3601 -0.2921
  153MOL     H736791   5.372   7.231   7.657 -1.4244 -0.3211 -0.2263
  153MOL     H836792   5.357   7.049   7.663 -0.3904 -0.5759  0.5359
  153MOL     H936793   5.209   7.198   7.819 -0.1923  2.0069  1.7287
  153MOL    H1036794   5.120   6.775   7.979 -0.8327 -0.3320  1.1290
  153MOL    H1136795   5.169   6.886   0.092  1.8777  2.0838 -0.0365
  153MOL    H1236796   5.288   6.814   8.003 -1.4499 -1.9733 -1.4865
  153MOL    H1336797   5.498   7.129   7.730 -0.0775 -1.1276 -0.9282
  153MOL    C1436798   5.367   7.277   7.922  0.0165  0.1432 -0.3159
  153MOL    C1536799   5.265   7.374   7.981 -0.5819  0.3187  0.2043
  153MOL    O1636800   5.168   7.296   0.015  0.1646  0.4217  0.2967
  153MOL    C1736801   5.037   7.314   8.021  0.4357 -0.5419  0.2963
  153MOL    C1836802   4.962   7.233   0.106  0.1703  0.5705  0.3012
  153MOL    O1936803   4.978   7.382   7.937  0.1363 -0.4626  0.4365
  153MOL    H2036804   5.431   7.235   8.000 -0.5853  0.5244  0.3867
  153MOL    H2136805   5.427   7.338   7.855  1.4069 -0.9104 -0.0553
  153MOL    H2236806   5.214   7.418   7.896  1.1560  2.6470  0.3309
  153MOL    H2336807   5.006   7.240   0.206  3.8773 -0.7285 -1.1423
  153MOL    H2436808   4.967   7.134   0.060  0.4540 -0.6386  2.8758
  153MOL    H2536809   4.856   7.256   0.105  0.0226 -0.1208 -1.0347
  153MOL    C2636810   5.326   7.485   0.054 -0.1118  0.2989  0.0596
  153MOL    C2736811   5.413   7.583   7.993  0.0683  0.4239 -0.0486
  153MOL    O2836812   5.341   7.642   7.887 -0.1712 -0.1824 -0.2955
  153MOL    C2936813   5.399   7.645   7.767  0.0652  0.0351  0.2971
  153MOL    C3036814   5.313   7.681   7.650  0.4898 -0.2164  0.3820
  153MOL    O3136815   5.519   7.627   7.745  0.1057  0.1990  0.0786
  153MOL    H3236816   5.243   7.531   0.108 -0.0930  2.8809 -2.0044
  153MOL    H3336817   5.391   7.437   0.126  2.0167  1.1047 -1.2757
  153MOL    H3436818   5.500   7.527   7.959  0.1340  1.6484 -2.0333
  153MOL    H3536819   5.284   7.786   7.661 -3.7907 -1.0170 -2.2266
  153MOL    H3636820   5.224   7.625   7.625  0.3890 -0.0605  0.3892
  153MOL    H3736821   5.371   7.673   7.558  0.5771 -0.1464  0.4307
  153MOL    C3836822   5.469   7.705   0.049 -0.3875  0.3662  0.0914
  153MOL    C3936823   5.586   7.667   0.138  0.0145 -0.7466 -0.2622
  153MOL    O4036824   5.708   7.654   0.068 -0.3413 -0.3682 -0.5392
  153MOL    C4136825   5.770   7.532   0.053  1.1737 -0.1252  0.9795
  153MOL    C4236826   5.885   7.544   7.978  0.4594 -0.1017  0.1654
  153MOL    O4336827   5.727   7.426   0.090  0.2261 -0.1037 -0.0594
  153MOL    H4436828   5.514   7.772   7.997  1.1896 -0.6165  0.1392
  153MOL    H4536829   5.383   7.758   0.089  0.9329  1.2152  1.8547
  153MOL    H4636830   5.562   7.572   0.186  0.2068 -0.5337  0.2562
  153MOL    H4736831   5.850   7.586   7.884  1.3615 -0.7643 -0.4811
  153MOL    H4836832   5.953   7.462   7.955  0.2745  0.0896 -1.0571
  153MOL    H4936833   5.939   7.626   0.003 -1.1794  0.3451  1.3090
  153MOL    C5036834   5.610   7.767   0.258  0.0040 -0.1853 -0.7331
  153MOL    C5136835   5.602   7.691   0.396  0.0670 -0.4208 -0.2658
  153MOL    O5236836   5.476   7.630   0.420 -0.4273  0.3579 -0.3586
  153MOL    C5336837   5.400   7.669   0.528 -0.3330  0.0113  0.5042
  153MOL    C5436838   5.289   7.575   0.558  0.6840  0.7098  0.0674
  153MOL    O5536839   5.420   7.766   0.596  0.4693 -0.4371 -0.3415
  153MOL    H5636840   5.701   7.826   0.246 -0.4819  0.2041 -2.6962
  153MOL    H5736841   5.527   7.838   0.258  1.2848  1.4092  2.0859
  153MOL    H5836842   5.621   7.764   0.475 -0.1216 -0.7235  0.0593
  153MOL    H5936843   5.248   7.513   0.479 -1.7242  1.9014  0.3358
  153MOL    H6036844   5.215   7.642   0.603  0.1440  0.3123 -0.2340
  153MOL    H6136845   5.318   7.506   0.637 -0.6725 -1.5649 -1.4016
  153MOL    C6236846   5.720   7.586   0.409 -0.7434  0.1783 -0.0955
  153MOL    C6336847   5.751   7.545   0.553  0.0645 -0.4410  0.0095
  153MOL    O6436848   5.838   7.430   0.557  0.8339  0.1995  0.8865
  153MOL    C6536849   5.793   7.313   0.613 -0.3480 -0.4067  0.2107
  153MOL    C6636850   5.902   7.203   0.612  0.0662  0.1134  0.3021
  153MOL    O6736851   5.688   7.297   0.678  0.4649  0.1231  0.3725
  153MOL    H6836852   5.688   7.497   0.354 -1.7559  0.3939  0.1334
  153MOL    H6936853   5.812   7.620   0.361 -0.1528 -0.4240  0.6021
  153MOL    H7036854   5.661   7.525   0.611  0.0552 -0.7339 -0.1097
  153MOL    H7136855   5.975   7.222   0.691 -0.7596 -0.4046  1.2010
  153MOL    H7236856   5.966   7.219   0.525 -2.6439 -0.0256 -1.7946
  153MOL    H7336857   5.882   7.096   0.614  1.1604 -0.1128 -0.1352
  153MOL    C7436858   5.819   7.645   0.645  0.1554 -0.3501 -0.0531
  153MOL    C7536859   5.737   7.700   0.754  0.3495 -1.2926 -0.1695
  153MOL    O7636860   5.720   7.595   0.855 -0.7546 -0.0691 -0.0448
  153MOL    C7736861   5.596   7.545   0.889 -0.5069 -0.4530 -0.1037
  153MOL    C7836862   5.606   7.451   1.003 -0.3701 -0.4678  0.5480
  153MOL    O7936863   5.491   7.564   0.833 -0.2002 -0.1903 -0.0920
  153MOL    H8036864   5.915   7.605   0.676  0.1256 -0.0358  0.4383
  153MOL    H8136865   5.852   7.726   0.580  0.6487  1.3507  2.2732
  153MOL    H8236866   5.640   7.720   0.708  0.3773 -0.8341 -0.0277
  153MOL    H8336867   5.530   7.481   1.075 -0.1907 -3.0227  1.8438
  153MOL    H8436868   5.698   7.446   1.062 -0.4633  0.8513  0.8198
  153MOL    H8536869   5.581   7.354   0.961  1.6514  0.3920 -2.9181
  153MOL    C8636870   5.809   7.834   0.808 -0.5348 -0.2509 -0.5289
  153MOL    C8736871   5.715   7.900   0.916  0.3481  0.5110 -0.2520
  153MOL    O8836872   5.793   8.014   0.976  0.1210 -0.0088 -0.3955
  153MOL    C8936873   5.818   8.015   1.107  0.2655  0.4012 -0.4307
  153MOL    C9036874   5.872   0.131   1.150 -0.3053 -0.1149  0.1859
  153MOL    O9136875   5.793   7.927   1.186 -0.2240 -0.4560  0.0568
  153MOL    H9236876   5.907   7.815   0.853 -1.3796 -1.3588  0.8974
  153MOL    H9336877   5.834   7.891   0.718  3.1057 -0.7871  0.0405
  153MOL    H9436878   5.691   7.822   0.988  0.5406  0.4732 -0.2273
  153MOL    H9536879   5.944   0.168   1.077 -0.7700  1.0767  0.3141
  153MOL    H9636880   5.919   0.121   1.248  0.5200 -1.2873 -0.3255
  153MOL    H9736881   5.792   0.206   1.155  0.1013  0.4548 -1.4792
  153MOL    C9836882   5.578   7.961   0.861  0.0298  0.1007  0.2291
  153MOL    C9936883   5.447   7.928   0.933  0.4600  0.3538 -0.3879
  153MOL   O10036884   5.456   7.967   1.072  0.4325 -0.5777 -0.4735
  153MOL   C10136885   5.442   7.887   1.174  0.1281 -0.0249  0.2997
  153MOL   C10236886   5.467   7.956   1.308  0.1639 -0.4484 -0.3933
  153MOL   O10336887   5.406   7.772   1.168 -0.7382  0.6570 -0.1914
  153MOL   H10436888   5.587   0.048   0.863  3.3607 -0.1385  0.3759
  153MOL   H10536889   5.567   7.938   0.755 -0.0942  1.5306 -0.0751
  153MOL   H10636890   5.434   7.821   0.917 -0.0716  0.3280  0.2245
  153MOL   H10736891   5.408   0.024   1.321  0.3186  0.1145 -3.2248
  153MOL   H10836892   5.570   7.992   1.299 -0.3301  1.2197  0.6534
  153MOL   H10936893   5.463   7.908   1.406  3.5251  3.0846  1.6241
  153MOL   C11036894   5.320   7.994   0.868  0.0467  0.0487  0.1847
  153MOL   C11136895   5.295   0.126   0.911 -0.2263  0.4987 -0.1308
  153MOL   O11236896   5.401   0.215   0.876  0.1904  0.2398  0.2678
  153MOL   C11336897   5.431   0.311   0.963  0.1472  0.6087 -0.0305
  153MOL   C11436898   5.528   0.419   0.914  0.6962  0.1459  0.4233
  153MOL   O11536899   5.377   0.324   1.073  0.5035  0.7512 -0.3984
  153MOL   H11636900   5.332   7.974   0.761  1.0447 -1.3178  0.5413
  153MOL   H11736901   5.232   7.936   0.897  0.1296 -0.5568 -0.7543
  153MOL   H11836902   5.262   0.129   1.015 -0.2001  0.3756 -0.1187
  153MOL   H11936903   5.576   0.407   0.816  1.5491 -1.7867  1.0382
  153MOL   H12036904   5.608   0.404   0.987 -0.4061  2.6066  2.1852
  153MOL   H12136905   5.483   0.517   0.916  0.3008 -0.0449  0.8144
  153MOL   C12236906   5.166   0.178   0.836 -0.5386  0.4872 -0.0771
  153MOL   C12336907   5.039   0.090   0.851 -0.6727 -0.2552  0.6930
  153MOL   O12436908   4.920   0.154   0.892 -0.1759 -0.3022 -0.4929
  153MOL   C12536909   4.883   0.142   1.019  0.3543  0.8212 -0.5832
  153MOL   C12636910   4.760   0.225   1.055  0.0954 -0.5318  0.0337
  153MOL   O12736911   4.944   0.072   1.100 -0.1000 -0.0606  0.1309
  153MOL   H12836912   5.136   0.278   0.869  0.3917  1.5325 -2.2861
  153MOL   H12936913   5.194   0.188   0.731 -2.3743 -1.8820 -0.8443
  153MOL   H13036914   5.060   0.010   0.922 -1.1484  1.1720  2.4954
  153MOL   H13136915   4.694   0.251   0.972  0.3352 -1.3402 -0.4091
  153MOL   H13236916   4.794   0.321   1.095 -0.4335 -0.1367 -0.4721
  153MOL   H13336917   4.703   0.173   1.132  2.1747 -1.3136  1.1024
  153MOL   C13436918   5.006   0.004   0.727  0.1738  0.4559 -0.3532
  153MOL   C13536919   4.995   0.082   0.600 -0.5083  0.4492  0.2366
  153MOL   O13636920   5.031   8.018   0.491 -0.3810 -0.6060 -0.4096
  153MOL   C13736921   5.142   0.012   0.433 -0.9425 -0.6642  0.4685
  153MOL   C13836922   5.162   7.934   0.320  0.5105 -0.8772 -0.9528
  153MOL   O13936923   5.229   0.095   0.463  0.4983 -0.1801 -0.4706
  153MOL   H14036924   5.093   7.961   0.717  0.5196  1.0943 -1.6865
  153MOL   H14136925   4.922   7.957   0.735 -0.3819  1.4336  2.5379
  153MOL   H14236926   5.054   0.174   0.600  1.5300 -0.8174 -0.3501
  153MOL   H14336927   5.085   7.857   0.334  1.2222 -1.0525  2.3882
  153MOL   H14436928   5.266   7.906   0.306  0.5276 -2.6328  2.2349
  153MOL   H14536929   5.132   7.978   0.225  0.1659  1.3831  0.1837
  153MOL   C14636930   4.857   0.139   0.577 -0.4648 -0.0859  0.7251
  153MOL   C14736931   4.843   0.233   0.457  0.8370 -0.3641  0.4505
  153MOL   O14836932   4.768   0.178   0.352 -0.6845  0.4356 -0.3823
  153MOL   C14936933   4.813   0.185   0.225 -0.3367  0.6813  0.7090
  153MOL   C15036934   4.727   0.115   0.117 -0.0474  0.8123 -0.1983
  153MOL   O15136935   4.921   0.241   0.192  0.3028  0.4510 -0.0018
  153MOL   H15236936   4.788   0.055   0.564  1.8599 -1.7600 -1.2402
  153MOL   H15336937   4.827   0.187   0.671 -0.7964 -1.8115  1.5304
  153MOL   H15436938   4.946   0.258   0.433  0.2920  0.3206 -1.2580
  153MOL   H15536939   4.714   0.171   0.025  0.6046  1.0735 -0.1374
  153MOL   H15636940   4.630   0.114   0.166  0.0555 -0.9334  0.0025
  153MOL   H15736941   4.770   0.015   0.107 -0.7073  0.8268 -3.5772
  153MOL   C15836942   4.779   0.367   0.498  0.0367 -0.7006  0.1284
  153MOL   C15936943   4.880   0.474   0.546  0.1101  0.4665 -0.5381
  153MOL   O16036944   4.924   0.446   0.678 -0.2274  0.2784 -0.1041
  153MOL   C16136945   4.870   0.511   0.781  0.1266  0.1943  0.5020
  153MOL   C16236946   4.961   0.506   0.903 -0.1265  0.0735 -0.1808
  153MOL   O16336947   4.756   0.554   0.780  0.2948  0.0578  0.1126
  153MOL   H16436948   4.722   0.409   0.415  0.9204 -1.8442 -1.0852
  153MOL   H16536949   4.707   0.359   0.579 -0.6096  0.0237 -0.3732
  153MOL   H16636950   4.829   0.571   0.549 -0.7070 -0.0301  3.2627
  153MOL   H16736951   5.059   0.474   0.868  0.7655  0.4051  1.9330
  153MOL   H16836952   4.926   0.420   0.961 -0.9208  1.1534  0.9670
  153MOL   H16936953   4.968   0.600   0.957 -2.3831 -0.5304  1.2235
  153MOL   C17036954   5.000   0.491   0.451 -0.3272 -0.7367  0.1450
  153MOL   C17136955   5.081   0.617   0.481  0.0227 -0.3502  0.2610
  153MOL   O17236956   5.221   0.604   0.480 -0.4303  0.2709  0.1889
  153MOL   C17336957   5.283   0.588   0.595 -0.2831 -0.1065 -0.3706
  153MOL   C17436958   5.425   0.560   0.581 -0.0393  0.1775  0.1326
  153MOL   O17536959   5.236   0.611   0.708  0.2759 -0.6650  0.3984
  153MOL   H17636960   5.070   0.409   0.469  1.4906  0.6584 -0.3818
  153MOL   H17736961   4.960   0.476   0.351 -0.9002  2.2559 -0.1183
  153MOL   H17836962   5.045   0.649   0.579 -1.0224 -0.9140  0.0621
  153MOL   H17936963   5.476   0.638   0.525  1.6435 -0.0116  1.3446
  153MOL   H18036964   5.446   0.461   0.539  0.1878  0.6689 -0.9045
  153MOL   H18136965   5.468   0.558   0.682 -1.5905 -1.1739  0.7910
  153MOL   C18236966   5.041   0.731   0.374 -0.1178 -0.4262 -0.1881
  153MOL   C18336967   5.072   0.874   0.411 -0.0491 -1.1341  0.5640
  153MOL   O18436968   4.996   0.896   0.527  0.1128  0.2012  0.0800
  153MOL   C18536969   4.875   0.958   0.519  0.1557  0.1644 -0.0982
  153MOL   C18636970   4.805   0.960   0.656 -1.0803 -0.3007  1.0938
  153MOL   O18736971   4.826   1.018   0.422 -0.7121  0.0665  0.8788
  153MOL   H18836972   5.092   0.695   0.285  1.1989  1.4749 -0.2118
  153MOL   H18936973   4.933   0.723   0.362 -0.4035  1.7654  0.7617
  153MOL   H19036974   5.032   0.937   0.331 -0.6952 -0.9458  1.0292
  153MOL   H19136975   4.704   0.920   0.651 -0.4626 -1.8440  0.9323
  153MOL   H19236976   4.802   1.066   0.683 -3.4571  0.2460 -1.1364
  153MOL   H19336977   4.860   0.895   0.723  1.0864 -0.8000 -1.0953
  153MOL   C19436978   5.223   0.917   0.427  0.2575 -0.2772 -0.4818
  153MOL   C19536979   5.258   1.060   0.405  0.1462  1.2420  0.4688
  153MOL   O19636980   5.182   1.150   0.487 -0.1760 -0.0976  0.0916
  153MOL   C19736981   5.128   1.264   0.435  1.0464 -0.0674 -0.0340
  153MOL   C19836982   5.029   1.327   0.534  0.1017 -0.4627 -0.6093
  153MOL   O19936983   5.142   1.300   0.322 -0.8737  0.0555  0.0790
  153MOL   H20036984   5.256   0.888   0.527 -1.7061  0.9336  0.5627
  153MOL   H20136985   5.272   0.859   0.349  0.5891  2.2706 -2.2181
  153MOL   H20236986   5.235   1.066   0.298 -0.4498  1.3272  0.5992
  153MOL   H20336987   4.930   1.280   0.529 -0.6824  0.9765  0.9542
  153MOL   H20436988   5.009   1.433   0.525 -1.2052 -0.4633  1.7401
  153MOL   H20536989   5.068   1.323   0.636 -0.8146  0.8641 -0.1899
  153MOL   C20636990   5.410   1.094   0.408  0.0746 -0.3498 -0.0341
  153MOL   C20736991   5.487   1.041   0.526 -0.4655  0.1536 -0.1925
  153MOL   O20836992   5.629   1.042   0.486  0.3637  0.0676  0.6628
  153MOL   C20936993   5.700   0.932   0.465  0.5847  0.6221  0.0290
  153MOL   C21036994   5.840   0.960   0.415 -1.0222  0.1177 -0.5423
  153MOL   O21136995   5.661   0.818   0.501 -0.3647  0.5279 -0.4132
  153MOL   H21236996   5.442   1.050   0.314 -2.5562  0.3782 -1.3240
  153MOL   H21336997   5.430   1.201   0.406 -0.1428 -0.3111 -0.0890
  153MOL   H21436998   5.460   0.936   0.540 -1.3502  0.3630 -0.3014
  153MOL   H21536999   5.838   0.983   0.308 -0.6113  0.3065 -0.5084
  153MOL   H21637000   5.918   0.887   0.433  0.3106  1.8139  0.7435
  153MOL   H21737001   5.865   1.055   0.462  0.3696 -0.1361 -0.7658
  153MOL   C21837002   5.462   1.119   0.651  0.0498  0.9327  0.3906
  153MOL   C21937003   5.468   1.053   0.788 -0.2682 -0.1029  0.2402
  153MOL   O22037004   5.347   0.983   0.798  0.0439  0.2058 -0.9767
  153MOL   C22137005   5.292   0.958   0.918  0.2876 -0.1751 -0.3822
  153MOL   C22237006   5.151   0.893   0.900  0.1960 -0.0875  0.0063
  153MOL   O22337007   5.346   0.976   1.028  0.0708  0.1595  0.6208
  153MOL   H22437008   5.525   1.208   0.650  1.4478 -0.0248 -2.8583
  153MOL   H22537009   5.362   1.162   0.639 -0.2958 -0.1057 -0.4780
  153MOL   H22637010   5.477   1.130   0.866 -0.4626  0.0863  0.0766
  153MOL   H22737011   5.085   0.942   0.972  2.2986  1.3624  0.9756
  153MOL   H22837012   5.150   0.787   0.923 -1.5756 -0.3870 -1.2739
  153MOL   H22937013   5.107   0.903   0.800 -0.1390  1.6407  0.3092
  153MOL   C23037014   5.594   0.959   0.795  0.0260  0.3277 -0.3494
  153MOL   C23137015   5.649   0.946   0.937 -0.3238 -0.0011 -0.0559
  153MOL   O23237016   5.761   0.855   0.942  0.7519 -0.2464 -0.1483
  153MOL   C23337017   5.752   0.740   1.000  0.5163  0.0466  0.0887
  153MOL   C23437018   5.884   0.674   1.009 -0.2955 -0.6038  0.3373
  153MOL   O23537019   5.649   0.684   1.035 -0.1165 -0.0560 -0.2076
  153MOL   H23637020   5.581   0.868   0.737  1.0359  0.0652 -0.1757
  153MOL   H23737021   5.672   1.020   0.749 -1.4113  1.1373 -1.7406
  153MOL   H23837022   5.577   0.912   1.012 -0.6110 -4.1811 -2.0688
  153MOL   H23937023   5.926   0.668   0.909  0.2885  1.9982  0.3797
  153MOL   H24037024   5.880   0.580   1.064 -2.0714 -0.6049  0.2276
  153MOL   H24137025   5.941   0.732   1.082 -0.6085  1.4589 -1.0171
  153MOL   H24237026   5.694   1.041   0.967 -1.7109  0.6356  0.0331
  154MOL     C137027   1.264   4.832   6.794  0.0326  0.7378  0.0123
  154MOL     C237028   1.354   4.911   6.704  0.3213  0.4272  0.0648
  154MOL     O337029   1.461   4.831   6.670 -0.9880  0.1187  0.1665
  154MOL     C437030   1.565   4.809   6.748 -0.1910 -0.7358 -0.2463
  154MOL     C537031   1.674   4.728   6.680  0.0060  0.1221  0.1335
  154MOL     O637032   1.581   4.853   6.865 -0.5419 -0.5217 -0.1097
  154MOL     H737033   1.248   4.730   6.759 -3.2824 -0.0144  3.3637
  154MOL     H837034   1.170   4.879   6.824 -0.8085 -0.6873 -0.3562
  154MOL     H937035   1.381   4.997   6.765  1.2639  0.1003  0.1219
  154MOL    H1037036   1.680   4.751   6.573 -2.5481 -0.1876 -0.0975
  154MOL    H1137037   1.649   4.622   6.684 -1.3953  0.5015  1.8973
  154MOL    H1237038   1.769   4.745   6.731  0.2909  2.5329 -1.1197
  154MOL    H1337039   1.309   4.823   6.893  0.5805 -0.8315 -0.3660
  154MOL    C1437040   1.283   4.966   6.582  0.0968 -0.5078 -0.7413
  154MOL    C1537041   1.179   5.078   6.610  0.4794 -0.1235  0.3479
  154MOL    O1637042   1.216   5.185   6.698  0.2517  0.3433  0.0133
  154MOL    C1737043   1.321   5.263   6.668  0.9666 -0.3418  0.2830
  154MOL    C1837044   1.350   5.375   6.759 -0.0375  0.1085 -0.4622
  154MOL    O1937045   1.383   5.249   6.564  0.1608 -0.3176  0.4985
  154MOL    H2037046   1.357   5.003   6.511  1.1772 -1.3590 -0.0671
  154MOL    H2137047   1.240   4.881   6.529 -0.2910  0.1258 -1.4489
  154MOL    H2237048   1.101   5.039   6.676 -0.4146  0.7075 -0.2108
  154MOL    H2337049   1.394   5.457   6.701 -1.8805  1.0506 -0.5885
  154MOL    H2437050   1.422   5.329   6.826 -2.5240  0.1138  2.2903
  154MOL    H2537051   1.251   5.406   6.794  0.8040  3.6057 -0.9515
  154MOL    C2637052   1.112   5.133   6.478  0.4307  0.8980  0.0312
  154MOL    C2737053   1.019   5.037   6.397 -0.3620 -0.1569  0.4691
  154MOL    O2837054   0.883   5.043   6.434 -0.1938 -0.0756  0.5961
  154MOL    C2937055   0.824   4.953   6.495  0.0649 -0.0305  0.2262
  154MOL    C3037056   0.675   4.985   6.514 -0.5332 -0.3210 -0.1473
  154MOL    O3137057   0.878   4.859   6.552  0.4322 -0.2070 -0.4694
  154MOL    H3237058   1.041   5.203   6.521 -1.9503 -2.3561  1.6804
  154MOL    H3337059   1.184   5.182   6.413  0.0860 -1.5991 -2.2972
  154MOL    H3437060   1.055   4.934   6.402  1.5524  0.4874  0.4496
  154MOL    H3537061   0.662   5.084   6.558  0.5367 -0.2687  0.0781
  154MOL    H3637062   0.623   4.916   6.580  0.8805 -1.1956  0.0803
  154MOL    H3737063   0.632   4.981   6.414 -0.2126 -1.6139 -0.2452
  154MOL    C3837064   1.017   5.080   6.248 -0.1278  0.1661  0.0113
  154MOL    C3937065   1.141   5.023   6.176  0.5126 -0.2278 -0.5030
  154MOL    O4037066   1.117   4.888   6.124 -0.1033 -0.3365 -0.4693
  154MOL    C4137067   1.164   4.785   6.190  0.7285  0.2287 -0.1051
  154MOL    C4237068   1.137   4.656   6.109  0.4949 -0.1664 -0.7891
  154MOL    O4337069   1.221   4.786   6.297 -0.6203 -0.2193  0.0897
  154MOL    H4437070   0.927   5.047   6.197  0.7493 -0.7854 -0.9668
  154MOL    H4537071   1.025   5.188   6.240 -1.7354  0.2694 -0.2573
  154MOL    H4637072   1.228   5.038   6.241 -0.9224  0.2015  1.3775
  154MOL    H4737073   1.096   4.695   6.016 -2.8268  1.1682  1.1782
  154MOL    H4837074   1.070   4.586   6.158  0.7883  0.9366  1.2219
  154MOL    H4937075   1.232   4.607   6.086  0.3877  0.3012 -2.2515
  154MOL    C5037076   1.188   5.117   6.059 -0.2867 -0.1452  0.6181
  154MOL    C5137077   1.248   5.249   6.101  0.2222  0.2892  0.4239
  154MOL    O5237078   1.376   5.227   6.159  0.5967 -0.4211 -0.1257
  154MOL    C5337079   1.418   5.305   6.263  0.0509  0.5543  0.6851
  154MOL    C5437080   1.548   5.253   6.323 -0.0968 -0.3773  0.1396
  154MOL    O5537081   1.359   5.407   6.293 -0.1963  0.1088 -0.0459
  154MOL    H5637082   1.263   5.062   6.001 -1.4499 -0.4018 -0.6664
  154MOL    H5737083   1.108   5.136   5.987  0.1433  4.0768  1.0862
  154MOL    H5837084   1.186   5.302   6.174  0.1258 -0.4164  0.8669
  154MOL    H5937085   1.636   5.279   6.263  0.5493  0.1013  1.2819
  154MOL    H6037086   1.542   5.144   6.329  2.5170 -0.6133 -0.9084
  154MOL    H6137087   1.562   5.299   6.421 -1.0603  0.4261 -0.1013
  154MOL    C6237088   1.282   5.339   5.980  0.1345 -0.4937 -0.3298
  154MOL    C6337089   1.166   5.427   5.921 -0.4233 -0.9948 -0.1382
  154MOL    O6437090   1.126   5.518   6.027 -0.0390  0.1286 -0.3572
  154MOL    C6537091   0.999   5.567   6.026  0.1787  0.0678  0.3350
  154MOL    C6637092   0.978   5.677   6.127  0.0358  0.3041  0.1554
  154MOL    O6737093   0.903   5.537   5.955  0.2251 -0.4064 -0.4335
  154MOL    H6837094   1.351   5.413   6.020 -0.3609 -0.5474  0.6484
  154MOL    H6937095   1.336   5.282   5.904  0.3276 -0.3687 -0.2881
  154MOL    H7037096   1.076   5.369   5.900 -0.4473 -1.6086  1.5164
  154MOL    H7137097   0.898   5.646   6.194  1.3456 -1.2583  1.0470
  154MOL    H7237098   0.962   5.773   6.077 -1.2993 -0.2470 -0.4933
  154MOL    H7337099   1.071   5.696   6.182  1.6222  0.5752 -2.5510
  154MOL    C7437100   1.206   5.521   5.811 -0.1389 -0.0183 -0.2705
  154MOL    C7537101   1.244   5.450   5.676 -0.2350  0.6657 -0.1975
  154MOL    O7637102   1.121   5.420   5.605  0.0882  0.2881 -0.4549
  154MOL    C7737103   1.060   5.304   5.631  0.6473  0.4598  0.2658
  154MOL    C7837104   0.924   5.295   5.572  0.6534  0.6168 -0.8989
  154MOL    O7937105   1.107   5.214   5.703 -0.4574  0.3739  0.4062
  154MOL    H8037106   1.132   5.593   5.777  0.0700  0.2405 -0.1835
  154MOL    H8137107   1.287   5.588   5.840 -1.2248  1.9969 -1.7970
  154MOL    H8237108   1.292   5.354   5.691 -2.3938 -0.3489  0.4144
  154MOL    H8337109   0.885   5.394   5.547 -0.8445  0.1332 -0.5216
  154MOL    H8437110   0.851   5.264   5.647  0.8316  0.3757 -0.8243
  154MOL    H8537111   0.933   5.228   5.486 -1.4980 -1.6880  0.5935
  154MOL    C8637112   1.317   5.543   5.584  0.3252  0.7469  0.3884
  154MOL    C8737113   1.469   5.514   5.585 -0.6247 -0.0732  0.3036
  154MOL    O8837114   1.531   5.535   5.706  0.1600 -0.0115 -0.4717
  154MOL    C8937115   1.599   5.651   5.739  0.1103 -0.4264 -0.7688
  154MOL    C9037116   1.597   5.682   5.890 -0.0406 -0.3497 -0.1728
  154MOL    O9137117   1.649   5.724   5.656 -0.1584 -0.7476 -0.3644
  154MOL    H9237118   1.290   5.517   5.481 -1.5285  1.2066  0.7482
  154MOL    H9337119   1.285   5.645   5.606 -0.1154  1.1275 -1.8607
  154MOL    H9437120   1.509   5.593   5.521 -1.4720  0.4321  0.3856
  154MOL    H9537121   1.506   5.735   5.915 -0.1697 -0.4625 -0.4041
  154MOL    H9637122   1.685   5.745   5.904  0.6134 -0.8976 -1.6392
  154MOL    H9737123   1.601   5.590   5.949 -1.7932 -0.5735 -0.3920
  154MOL    C9837124   1.529   5.381   5.520  0.7457 -0.0699  0.1073
  154MOL    C9937125   1.492   5.348   5.373 -0.3626  0.9156 -0.2803
  154MOL   O10037126   1.369   5.279   5.389  0.3774  0.1391  0.1509
  154MOL   C10137127   1.345   5.174   5.310 -0.2763 -0.1019  0.1255
  154MOL   C10237128   1.196   5.132   5.307 -0.5474 -0.5398  0.4976
  154MOL   O10337129   1.420   5.124   5.221  0.4018 -0.1295 -0.6807
  154MOL   H10437130   1.637   5.396   5.528  0.9496 -1.3141 -0.2928
  154MOL   H10537131   1.505   5.298   5.587  2.9135  1.6978  3.1850
  154MOL   H10637132   1.570   5.276   5.350 -0.2146  0.5931  1.1780
  154MOL   H10737133   1.143   5.181   5.388 -0.7562  1.2075 -0.6528
  154MOL   H10837134   1.185   5.025   5.324 -1.7727 -0.4121  0.5699
  154MOL   H10937135   1.160   5.157   5.207  1.0822  0.3252  0.1072
  154MOL   C11037136   1.489   5.455   5.265 -0.3195 -0.5916  0.1656
  154MOL   C11137137   1.614   5.534   5.237  0.9902 -0.7144 -0.5193
  154MOL   O11237138   1.724   5.443   5.224  0.0709 -0.1581 -0.1292
  154MOL   C11337139   1.826   5.443   5.297 -1.0364 -0.0442 -0.0148
  154MOL   C11437140   1.934   5.367   5.234  0.4728 -0.4634 -0.0757
  154MOL   O11537141   1.837   5.494   5.406 -0.1911 -0.3444 -0.1408
  154MOL   H11637142   1.473   5.409   5.168  0.0391  1.5160 -0.9116
  154MOL   H11737143   1.412   5.530   5.282  0.3754 -0.1304  1.3541
  154MOL   H11837144   1.625   5.591   5.328 -0.0792 -1.0838 -0.1471
  154MOL   H11937145   1.954   5.298   5.315 -1.1016 -0.0177  0.7147
  154MOL   H12037146   2.018   5.435   5.220 -0.9761  1.4195  0.1539
  154MOL   H12137147   1.905   5.316   5.142 -2.0095  2.0559 -0.7626
  154MOL   C12237148   1.607   5.631   5.116  0.1713  0.3489 -0.7055
  154MOL   C12337149   1.513   5.760   5.132  0.4788 -0.0914 -0.4607
  154MOL   O12437150   1.563   5.855   5.225  0.4761 -0.5827  0.2527
  154MOL   C12537151   1.489   5.880   5.340  0.3346  0.2485  0.3725
  154MOL   C12637152   1.543   5.991   5.433 -0.0963 -0.2692  0.4740
  154MOL   O12737153   1.389   5.825   5.375  0.2503  0.1279  0.2248
  154MOL   H12837154   1.713   5.655   5.103  0.4567 -0.9613 -0.8790
  154MOL   H12937155   1.577   5.581   5.024  2.5187 -1.1178 -0.7106
  154MOL   H13037156   1.412   5.730   5.160  0.3317  1.9031  1.2464
  154MOL   H13137157   1.652   5.997   5.424 -0.2257  1.5955 -0.0286
  154MOL   H13237158   1.526   5.964   5.537 -0.8306  1.7774  0.8940
  154MOL   H13337159   1.498   6.088   5.415 -0.7100 -0.3337  1.5903
  154MOL   C13437160   1.478   5.835   4.998  0.0610 -0.0612 -0.6193
  154MOL   C13537161   1.600   5.872   4.908 -0.1981  0.4594 -0.7900
  154MOL   O13637162   1.555   5.909   4.772  0.2379  0.0717  0.4917
  154MOL   C13737163   1.559   5.815   4.683  0.0417  0.0700 -0.0056
  154MOL   C13837164   1.509   5.859   4.549 -0.3431 -0.3573 -0.0764
  154MOL   O13937165   1.605   5.703   4.703 -0.5463  0.1062 -0.9928
  154MOL   H14037166   1.422   5.768   4.933  0.9517  1.0128 -2.5437
  154MOL   H14137167   1.419   5.920   5.033  0.7899 -0.0356  0.5585
  154MOL   H14237168   1.674   5.792   4.906 -0.0444  0.5330  0.8124
  154MOL   H14337169   1.407   5.895   4.557 -0.1686  0.4181 -1.1657
  154MOL   H14437170   1.522   5.786   4.469  1.7679  0.3459 -0.4078
  154MOL   H14537171   1.561   5.948   4.514 -0.2336 -1.0513 -1.7290
  154MOL   C14637172   1.677   5.999   4.956 -0.4778  0.3994 -0.1353
  154MOL   C14737173   1.789   6.043   4.862 -0.0342  0.3384  0.6104
  154MOL   O14837174   1.758   6.176   4.816 -0.3504  0.3760 -0.3003
  154MOL   C14937175   1.793   6.231   4.695 -0.0897 -1.0558 -0.0864
  154MOL   C15037176   1.775   6.385   4.703  0.3656 -0.4288 -0.1056
  154MOL   O15137177   1.844   6.180   4.595 -0.1087 -0.1330 -0.0839
  154MOL   H15237178   1.606   6.080   4.971  0.3803  1.3888 -1.3706
  154MOL   H15337179   1.719   5.971   5.052 -3.0534  1.3992  1.3230
  154MOL   H15437180   1.797   5.984   4.771 -1.9552 -0.9494  1.2377
  154MOL   H15537181   1.696   6.400   4.777 -0.8173 -1.5664 -1.1134
  154MOL   H15637182   1.741   6.424   4.608 -2.2157 -2.0814  0.0891
  154MOL   H15737183   1.871   6.430   4.728  0.2671  0.7650 -1.8654
  154MOL   C15837184   1.930   6.038   4.919  0.0225 -0.3043 -0.6111
  154MOL   C15937185   1.963   5.892   4.959  0.1651  0.6779  0.2224
  154MOL   O16037186   1.973   5.808   4.841  0.4909  0.1844  0.0029
  154MOL   C16137187   1.927   5.684   4.839 -0.2378  0.8439  0.3850
  154MOL   C16237188   1.935   5.618   4.703 -0.5383  0.1079 -0.2541
  154MOL   O16337189   1.893   5.609   4.930 -0.1624  0.2450  0.4473
  154MOL   H16437190   2.004   6.058   4.841 -0.7967 -1.0859 -1.5969
  154MOL   H16537191   1.935   6.110   5.000  3.4631 -0.8189 -0.2805
  154MOL   H16637192   1.889   5.843   5.022 -0.6903  0.4268 -0.9699
  154MOL   H16737193   1.844   5.586   4.652 -1.4616 -0.7881  1.8813
  154MOL   H16837194   2.003   5.534   4.695 -0.6770 -0.0757  0.4680
  154MOL   H16937195   1.982   5.684   4.630 -0.1772 -0.8356 -0.8809
  154MOL   C17037196   2.096   5.883   5.027 -0.1102  0.1597 -0.4459
  154MOL   C17137197   2.100   5.953   5.168  0.7616 -0.1780 -0.3605
  154MOL   O17237198   2.026   5.873   5.253 -0.5750 -0.3373  0.8089
  154MOL   C17337199   1.918   5.919   5.325  0.3268 -0.0619  0.2474
  154MOL   C17437200   1.858   5.820   5.422  0.2243 -0.2848 -0.3152
  154MOL   O17537201   1.865   6.023   5.298 -0.0525  0.1869  0.4753
  154MOL   H17637202   2.125   5.780   5.043  1.0166  0.4641 -0.5236
  154MOL   H17737203   2.175   5.931   4.970 -0.9682  0.6249 -1.2624
  154MOL   H17837204   2.050   6.048   5.150  2.4096  0.8925  0.5630
  154MOL   H17937205   1.759   5.798   5.382 -0.4779  1.1771  0.5759
  154MOL   H18037206   1.855   5.855   5.525  0.3119 -1.2615  0.0290
  154MOL   H18137207   1.918   5.729   5.422 -1.3663 -1.3598 -0.0424
  154MOL   C18237208   2.243   5.966   5.223 -1.2675 -0.9022 -0.0430
  154MOL   C18337209   2.286   6.066   5.336 -0.2855 -0.1149  0.0286
  154MOL   O18437210   2.229   6.027   5.460  0.2562  0.2020 -0.2701
  154MOL   C18537211   2.199   6.113   5.557 -1.2772 -0.4223  0.0272
  154MOL   C18637212   2.117   6.055   5.663 -0.1175  0.6300  0.2342
  154MOL   O18737213   2.224   6.238   5.552  0.4143 -0.2876  0.2906
  154MOL   H18837214   2.284   5.873   5.263  0.9222 -0.6976 -1.6771
  154MOL   H18937215   2.293   5.998   5.131 -1.3512  1.5976  0.7591
  154MOL   H19037216   2.252   6.167   5.311 -1.8550 -0.7934 -0.5928
  154MOL   H19137217   2.136   6.065   5.770  1.0137 -2.1802  0.3522
  154MOL   H19237218   2.125   5.947   5.652 -2.1928  0.5874 -1.0533
  154MOL   H19337219   2.012   6.068   5.640 -0.8406 -1.6591  2.0141
  154MOL   C19437220   2.442   6.067   5.343  0.0583  0.4603  0.1493
  154MOL   C19537221   2.516   6.108   5.213  0.0005 -0.0868 -0.0728
  154MOL   O19637222   2.525   6.243   5.207 -0.3623  0.2745 -0.1169
  154MOL   C19737223   2.429   6.309   5.153 -0.2075  0.4051 -0.1885
  154MOL   C19837224   2.450   6.458   5.171  0.3652 -1.0520 -0.1194
  154MOL   O19937225   2.336   6.265   5.085  0.1340  0.4234 -0.2949
  154MOL   H20037226   2.479   6.122   5.429  2.8694  0.6362 -1.0918
  154MOL   H20137227   2.459   5.961   5.360 -0.0732  0.0603 -2.0469
  154MOL   H20237228   2.470   6.076   5.119  0.1060 -0.7114  0.0859
  154MOL   H20337229   2.411   6.518   5.089  1.0402 -1.3213 -0.6391
  154MOL   H20437230   2.551   6.491   5.198 -1.0213  1.6301  2.0147
  154MOL   H20537231   2.389   6.488   5.256 -0.0380 -0.5926 -0.5670
  154MOL   C20637232   2.660   6.051   5.189  0.0222 -0.2374  0.0700
  154MOL   C20737233   2.673   5.894   5.174  0.4686 -0.0626 -0.1029
  154MOL   O20837234   2.590   5.853   5.064  0.3035  0.4105  0.3399
  154MOL   C20937235   2.510   5.741   5.072  0.0463 -0.3490 -0.4639
  154MOL   C21037236   2.452   5.697   4.937 -0.0124  0.1334 -0.3780
  154MOL   O21137237   2.485   5.669   5.170 -0.3787 -0.5284  0.0510
  154MOL   H21237238   2.709   6.090   5.100  2.0987 -1.4411  0.6439
  154MOL   H21337239   2.719   6.088   5.273 -0.1987  1.5776 -0.5687
  154MOL   H21437240   2.649   5.842   5.267 -0.3033 -0.7631 -0.6928
  154MOL   H21537241   2.387   5.772   4.892 -0.7342 -1.2694 -1.7227
  154MOL   H21637242   2.380   5.616   4.947  1.7254 -1.0476  3.6486
  154MOL   H21737243   2.528   5.678   4.861 -0.5508 -1.7218 -0.4774
  154MOL   C21837244   2.818   5.853   5.142  0.1377  0.0560  0.1569
  154MOL   C21937245   2.836   5.700   5.148 -0.0349  0.1989 -0.6114
  154MOL   O22037246   2.808   5.644   5.021  0.9202  0.2470  0.1139
  154MOL   C22137247   2.755   5.520   5.005 -0.2122  0.1843  0.2775
  154MOL   C22237248   2.714   5.484   4.859  0.6958  0.1753 -0.0276
  154MOL   O22337249   2.765   5.435   5.089 -0.6604 -0.5575 -0.0528
  154MOL   H22437250   2.859   5.890   5.048 -0.9256  2.0442  0.4492
  154MOL   H22537251   2.879   5.911   5.211 -1.0526 -0.0154  1.2849
  154MOL   H22637252   2.773   5.661   5.228 -0.7468  0.3222 -1.1066
  154MOL   H22737253   2.606   5.477   4.856  0.4797  1.9492  2.0205
  154MOL   H22837254   2.760   5.390   4.830 -1.8149 -0.2368 -2.8610
  154MOL   H22937255   2.750   5.563   4.793  0.0558  0.0032 -0.5881
  154MOL   C23037256   2.970   5.658   5.194 -0.0635  0.4192  0.5793
  154MOL   C23137257   3.011   5.704   5.332  0.4488  0.4319 -0.3891
  154MOL   O23237258   3.136   5.639   5.353  0.1471 -0.1585  0.3758
  154MOL   C23337259   3.222   5.686   5.436  0.3347  0.0511 -0.1048
  154MOL   C23437260   3.345   5.608   5.433  0.1594 -0.1576  0.6057
  154MOL   O23537261   3.207   5.776   5.522  0.4285  0.0146 -0.1052
  154MOL   H23637262   2.972   5.549   5.196  3.8436  0.3740 -0.9746
  154MOL   H23737263   3.048   5.687   5.123  0.5292 -2.8104 -0.1567
  154MOL   H23837264   2.931   5.675   5.400 -0.9805 -1.4520 -2.7723
  154MOL   H23937265   3.331   5.544   5.520  1.4292 -0.6697  0.4501
  154MOL   H24037266   3.429   5.677   5.442  0.7563 -0.8018  0.0262
  154MOL   H24137267   3.340   5.542   5.347  1.6475 -0.2203  0.5534
  154MOL   H24237268   3.002   5.812   5.337  2.1112  0.4641  3.3386
  155MOL     C137269   6.919   4.113   6.716  0.1655 -0.3306  0.3187
  155MOL     C237270   7.057   4.179   6.725  0.3574  1.3209 -0.0864
  155MOL     O337271   7.106   4.188   6.590 -0.1379  0.0883 -0.0386
  155MOL     C437272   7.238   4.163   6.564  0.6635 -0.8054 -0.6321
  155MOL     C537273   7.272   4.181   6.418 -0.1399 -0.0051  0.8086
  155MOL     O637274   7.331   4.130   6.629 -0.3117  0.1065  0.5281
  155MOL     H737275   6.850   4.170   6.654 -1.2403 -1.7092  0.5807
  155MOL     H837276   6.869   4.104   6.813  1.2473  0.2429  0.9413
  155MOL     H937277   7.118   4.118   6.791 -0.0595  0.2322 -0.6910
  155MOL    H1037278   7.376   4.154   6.401 -0.4848 -0.0225 -1.4727
  155MOL    H1137279   7.261   4.285   6.387  1.1609  0.2982  1.3531
  155MOL    H1237280   7.211   4.112   6.360  0.2117  0.4990 -0.1792
  155MOL    H1337281   6.930   4.012   6.675  1.9808  0.0583 -0.1736
  155MOL    C1437282   7.058   4.321   6.775 -0.2115 -0.1541 -0.5414
  155MOL    C1537283   7.007   4.346   6.915  0.1540 -0.0170 -0.6507
  155MOL    O1637284   7.083   4.281   7.019  0.4340 -0.3344  0.2448
  155MOL    C1737285   7.037   4.167   7.075 -0.5475  0.0354 -0.3745
  155MOL    C1837286   7.120   4.121   7.188  0.0654 -0.4654  0.7247
  155MOL    O1937287   6.936   4.102   7.041 -0.0588 -0.3414 -0.7682
  155MOL    H2037288   7.154   4.372   6.771 -0.7534  1.1658  2.4274
  155MOL    H2137289   6.986   4.379   6.716 -2.3443 -2.3877 -0.2114
  155MOL    H2237290   6.905   4.307   6.917 -0.3050  1.1082 -1.0718
  155MOL    H2337291   7.083   4.028   7.231  0.0056  0.5311  2.9105
  155MOL    H2437292   7.148   4.195   7.264  3.1862  0.6504 -1.3993
  155MOL    H2537293   7.218   4.099   7.146 -0.5085  1.2694 -1.5875
  155MOL    C2637294   7.000   4.493   6.967 -0.0112 -0.1234  0.0315
  155MOL    C2737295   6.883   4.576   6.909  0.1183  0.3610  0.4878
  155MOL    O2837296   6.761   4.528   6.970 -0.2109 -0.0467  0.3153
  155MOL    C2937297   6.671   4.450   6.904  0.2552  0.2151  0.0279
  155MOL    C3037298   6.557   4.393   6.991 -1.0459  0.3622  0.2061
  155MOL    O3137299   6.673   4.437   6.783  0.4215 -0.8263  0.6071
  155MOL    H3237300   6.990   4.485   7.075  0.4140 -3.9530 -0.1406
  155MOL    H3337301   7.092   4.548   6.947 -0.1682 -0.4302 -1.6278
  155MOL    H3437302   6.874   4.565   6.801  0.0949  3.5878  0.1064
  155MOL    H3537303   6.464   4.450   6.981 -1.0836  0.4236  0.8918
  155MOL    H3637304   6.584   4.416   7.094 -0.6352  4.8109 -0.7657
  155MOL    H3737305   6.532   4.289   6.971 -0.6309 -0.1725  2.3768
  155MOL    C3837306   6.909   4.723   6.930  0.0725 -0.1352 -0.2848
  155MOL    C3937307   6.838   4.826   6.841  0.2604  0.1468 -0.2647
  155MOL    O4037308   6.698   4.803   6.844  0.0748  0.1030  0.0473
  155MOL    C4137309   6.625   4.830   6.730 -0.6321  0.1410 -0.3380
  155MOL    C4237310   6.482   4.773   6.735  0.0014  0.8156 -0.7375
  155MOL    O4337311   6.672   4.884   6.629  0.1771  0.1276  0.3816
  155MOL    H4437312   6.880   4.730   7.035 -1.2794  0.9831 -0.7234
  155MOL    H4537313   7.015   4.744   6.929 -0.4240  2.4869 -2.2684
  155MOL    H4637314   6.866   4.808   6.737 -3.4217 -2.0751 -0.9966
  155MOL    H4737315   6.419   4.824   6.663  0.5294 -1.3428 -2.8239
  155MOL    H4837316   6.435   4.780   6.833 -1.8794 -2.0697 -1.3722
  155MOL    H4937317   6.494   4.668   6.707 -0.3943  0.6396 -0.2629
  155MOL    C5037318   6.873   4.969   6.894  0.6081 -0.0764 -0.5388
  155MOL    C5137319   6.975   5.038   6.804 -0.2790 -0.2649 -1.6953
  155MOL    O5237320   7.096   4.967   6.804 -0.1376 -0.5364  0.5738
  155MOL    C5337321   7.218   5.027   6.806 -0.6532 -0.1465 -0.3273
  155MOL    C5437322   7.337   4.935   6.817 -0.2454 -0.5773 -0.5303
  155MOL    O5537323   7.238   5.147   6.803 -0.4476  0.7798  0.2301
  155MOL    H5637324   6.784   5.031   6.891 -0.2459 -1.3428 -2.0009
  155MOL    H5737325   6.917   4.958   6.993 -0.6222 -0.0105  0.0209
  155MOL    H5837326   6.993   5.128   6.862  2.2653 -0.8653 -1.5129
  155MOL    H5937327   7.408   4.965   6.895  0.0462  2.1635 -1.7913
  155MOL    H6037328   7.395   4.926   6.725  0.4945 -2.4876  0.0884
  155MOL    H6137329   7.301   4.836   6.844 -0.1269 -1.2931 -2.8577
  155MOL    C6237330   6.929   5.081   6.661  0.3449 -0.4335 -0.2254
  155MOL    C6337331   7.003   5.195   6.589  0.2556 -1.0292 -0.2852
  155MOL    O6437332   6.955   5.200   6.453 -0.4110  0.1093  0.3827
  155MOL    C6537333   7.020   5.138   6.355  0.2562 -0.1090  0.6825
  155MOL    C6637334   6.958   5.162   6.223  0.5219 -0.1160  0.5709
  155MOL    O6737335   7.126   5.071   6.363  0.4009  0.1234  0.0398
  155MOL    H6837336   6.942   4.997   6.594 -1.6590 -1.6873  0.9042
  155MOL    H6937337   6.824   5.111   6.655  0.4547  0.1176  0.4432
  155MOL    H7037338   7.109   5.174   6.584 -0.0175 -2.9698  1.4383
  155MOL    H7137339   6.999   5.088   6.155  0.8922 -0.5471  1.2573
  155MOL    H7237340   6.981   5.261   6.183 -0.2673  0.5605  1.7516
  155MOL    H7337341   6.850   5.152   6.228  0.3271  0.1184 -2.3894
  155MOL    C7437342   6.978   5.335   6.656 -0.0217 -0.8267 -0.0027
  155MOL    C7537343   7.043   5.455   6.592 -0.6921  0.1060 -0.0235
  155MOL    O7637344   6.981   5.572   6.648 -0.5437 -0.2020  0.0592
  155MOL    C7737345   6.948   5.677   6.567 -0.2247 -0.2323  0.6967
  155MOL    C7837346   6.864   5.789   6.631  0.0423 -0.4097 -0.4570
  155MOL    O7937347   6.999   5.688   6.448  0.2943 -0.2433 -0.5614
  155MOL    H8037348   6.873   5.362   6.662  0.4847  0.9650  1.3901
  155MOL    H8137349   7.007   5.334   6.761  1.2735  0.1643 -0.3396
  155MOL    H8237350   7.022   5.454   6.485  1.2261 -2.0523 -0.4338
  155MOL    H8337351   6.896   5.891   6.610 -1.9872 -0.0733 -2.1290
  155MOL    H8437352   6.859   5.802   6.739  1.2513 -0.4218 -0.3941
  155MOL    H8537353   6.765   5.780   6.586 -0.7706 -2.0088  1.5331
  155MOL    C8637354   7.193   5.473   6.621  0.5249  0.5917  0.5810
  155MOL    C8737355   7.277   5.403   6.520 -0.6699  0.3512  0.2257
  155MOL    O8837356   7.312   5.499   6.416 -0.4523  0.2120  0.0704
  155MOL    C8937357   7.276   5.470   6.292  0.2988 -0.2955 -0.1968
  155MOL    C9037358   7.307   5.584   6.196  0.0869 -0.2715  0.3994
  155MOL    O9137359   7.214   5.367   6.259  0.1490 -0.6843 -0.1587
  155MOL    H9237360   7.236   5.571   6.643 -0.6974  1.1532  0.5113
  155MOL    H9337361   7.216   5.412   6.708  1.9913 -2.9343 -2.1652
  155MOL    H9437362   7.227   5.315   6.480 -1.8648  1.1777 -0.1253
  155MOL    H9537363   7.409   5.578   6.156  0.2032  1.4014  0.4207
  155MOL    H9637364   7.299   5.686   6.234 -1.4272  0.2888 -1.3484
  155MOL    H9737365   7.234   5.584   6.116 -0.8845  1.9202  1.2537
  155MOL    C9837366   7.412   5.357   6.576 -0.1159 -0.0731 -0.1068
  155MOL    C9937367   7.502   5.254   6.501  0.0848 -0.2588 -0.8656
  155MOL   O10037368   7.612   5.220   6.591 -0.3293 -0.2855 -0.5312
  155MOL   C10137369   7.731   5.273   6.561 -0.4483 -0.7917  0.0694
  155MOL   C10237370   7.848   5.222   6.643  0.7233 -0.2691  0.0830
  155MOL   O10337371   7.752   5.353   6.467  0.0157 -0.4000 -0.7901
  155MOL   H10437372   7.471   5.444   6.603 -0.9605 -0.0871  1.8634
  155MOL   H10537373   7.405   5.305   6.671  0.6889  1.3582  0.7579
  155MOL   H10637374   7.525   5.289   6.400  0.5983  1.6287 -0.1290
  155MOL   H10737375   7.898   5.129   6.614  1.9380  0.2501  0.4947
  155MOL   H10837376   7.808   5.204   6.743  0.2427 -0.1923 -0.0942
  155MOL   H10937377   7.927   5.297   6.648 -0.0208  0.4877  0.5571
  155MOL   C11037378   7.437   5.118   6.476 -0.2174 -0.2986 -0.7637
  155MOL   C11137379   7.489   5.040   6.351 -0.4816  0.4015  0.2048
  155MOL   O11237380   7.627   5.022   6.382 -0.1624 -0.3055  0.9023
  155MOL   C11337381   7.721   5.008   6.281  0.7492  0.3982 -0.4475
  155MOL   C11437382   7.856   4.979   6.332 -0.0914  0.3049  0.4872
  155MOL   O11537383   7.700   5.034   6.163  0.2703 -0.2523 -0.5381
  155MOL   H11637384   7.464   5.057   6.563 -0.3769 -0.0494 -0.5384
  155MOL   H11737385   7.331   5.140   6.464  0.1687  0.1415 -3.7689
  155MOL   H11837386   7.479   5.097   6.258 -0.3228  0.1346  0.0217
  155MOL   H11937387   7.898   4.886   6.294  0.6758  0.8790 -0.1217
  155MOL   H12037388   7.849   4.976   6.440 -0.7724  0.9255  0.4617
  155MOL   H12137389   7.920   5.064   6.308  1.3322 -1.2479 -1.3758
  155MOL   C12237390   7.420   4.902   6.336  0.3125  0.0563 -0.4747
  155MOL   C12337391   7.414   4.841   6.196 -0.1704  0.2038  0.8925
  155MOL   O12437392   7.362   4.712   6.217 -0.3326  0.0926 -0.1605
  155MOL   C12537393   7.455   4.610   6.219  0.1783  0.1548  0.1632
  155MOL   C12637394   7.402   4.474   6.260  0.2564  0.0513  0.0597
  155MOL   O12737395   7.581   4.619   6.210 -0.0600 -0.1330 -0.0255
  155MOL   H12837396   7.455   4.828   6.408  2.4829 -0.7719 -2.3103
  155MOL   H12937397   7.320   4.909   6.379  0.3582  0.3038 -0.4052
  155MOL   H13037398   7.515   4.849   6.158 -0.3260  1.4238  0.6910
  155MOL   H13137399   7.384   4.398   6.185  1.0398 -0.4327  0.3652
  155MOL   H13237400   7.308   4.504   6.307 -0.5185  0.1985 -1.5750
  155MOL   H13337401   7.448   4.430   6.348  0.0173  0.5570  0.4433
  155MOL   C13437402   7.324   4.919   6.101 -0.8885 -0.1649 -0.5034
  155MOL   C13537403   7.337   4.891   5.951  0.8084  0.0699  0.5321
  155MOL   O13637404   7.467   4.925   5.920  0.1418 -0.0315  0.6246
  155MOL   C13737405   7.497   5.023   5.842  0.4385  0.5677 -0.6644
  155MOL   C13837406   7.647   5.030   5.808  0.8780 -0.3050  0.0102
  155MOL   O13937407   7.421   5.100   5.787 -0.5954 -0.8305  0.0370
  155MOL   H14037408   7.220   4.895   6.124 -1.0078  2.9779  2.5655
  155MOL   H14137409   7.339   5.023   6.132  0.1543  0.0501 -1.6789
  155MOL   H14237410   7.265   4.955   5.899 -0.3112 -1.1785  0.5379
  155MOL   H14337411   7.712   5.075   5.883  0.8228  1.6717 -1.0977
  155MOL   H14437412   7.663   5.074   5.710  1.7174 -0.2281  0.1808
  155MOL   H14537413   7.676   4.925   5.814  0.9902 -0.1613  2.4313
  155MOL   C14637414   7.319   4.751   5.901  0.4485  0.1626 -0.1298
  155MOL   C14737415   7.175   4.694   5.926 -0.0106  0.4667 -0.1468
  155MOL   O14837416   7.080   4.771   5.855  0.0623 -0.3011  0.3057
  155MOL   C14937417   6.961   4.810   5.908 -0.1828 -0.0517 -0.1805
  155MOL   C15037418   6.899   4.917   5.825  0.3256  0.3429  0.0699
  155MOL   O15137419   6.915   4.789   6.020  0.4397  0.2501 -0.8210
  155MOL   H15237420   7.353   4.750   5.797 -1.0836  0.3350 -0.6554
  155MOL   H15337421   7.392   4.688   5.951 -1.1962 -1.2191  0.5671
  155MOL   H15437422   7.143   4.684   6.030 -0.4849  0.2414 -0.3141
  155MOL   H15537423   6.888   4.885   5.721  1.1590 -1.3177  0.4644
  155MOL   H15637424   6.948   5.011   5.846  1.0277 -0.2632  1.1763
  155MOL   H15737425   6.798   4.926   5.864 -0.1892  1.0802 -1.3960
  155MOL   C15837426   7.177   4.549   5.881  0.6693 -0.3493  0.4933
  155MOL   C15937427   7.069   4.455   5.946  0.8480  0.0254 -0.6840
  155MOL   O16037428   7.082   4.328   5.879 -0.0912  0.0830  0.4800
  155MOL   C16137429   6.989   4.283   5.792 -0.5374  0.6930 -0.4940
  155MOL   C16237430   7.033   4.159   5.720 -0.3701 -0.5315  0.8799
  155MOL   O16337431   6.884   4.343   5.763  0.5055 -0.8381  0.2878
  155MOL   H16437432   7.162   4.541   5.773  0.0342 -1.5958  0.6736
  155MOL   H16537433   7.273   4.499   5.873  0.9184  0.0532  0.9282
  155MOL   H16637434   6.973   4.505   5.952  0.3232 -0.9116 -1.1865
  155MOL   H16737435   7.076   4.205   5.631 -2.2417 -1.4202 -0.5259
  155MOL   H16837436   6.952   4.099   5.678 -0.4603  1.3518 -1.7260
  155MOL   H16937437   7.108   4.102   5.776  0.0730 -1.4418 -0.6004
  155MOL   C17037438   7.097   4.423   6.094 -0.1500 -0.1593 -0.0324
  155MOL   C17137439   6.975   4.379   6.190 -0.4786 -0.1478 -0.2323
  155MOL   O17237440   6.895   4.498   6.221 -0.0801  0.0260 -0.0689
  155MOL   C17337441   6.934   4.585   6.323 -0.5483  0.3800  0.3056
  155MOL   C17437442   6.836   4.697   6.351  0.3954 -0.0920  0.5450
  155MOL   O17537443   7.040   4.579   6.387 -0.2879  0.4546  0.1092
  155MOL   H17637444   7.173   4.345   6.091 -0.0230 -0.1171  1.5169
  155MOL   H17737445   7.149   4.509   6.136  0.6569  0.0278 -1.4035
  155MOL   H17837446   7.023   4.342   6.280  4.0579 -0.9342 -2.7948
  155MOL   H17937447   6.882   4.777   6.409 -0.5221  1.1990 -0.4653
  155MOL   H18037448   6.744   4.658   6.396  0.2327 -0.6118 -0.2303
  155MOL   H18137449   6.800   4.743   6.259 -0.5326 -1.6130  0.1221
  155MOL   C18237450   6.897   4.262   6.137  0.1152 -0.5609 -0.4752
  155MOL   C18337451   6.805   4.196   6.238  0.1161 -0.6270  0.5084
  155MOL   O18437452   6.871   4.110   6.328 -0.1050  0.3811  0.1010
  155MOL   C18537453   6.871   3.968   6.325 -0.0800  0.9841 -0.1180
  155MOL   C18637454   6.963   3.911   6.428 -0.0668  0.0815  0.3341
  155MOL   O18737455   6.805   3.898   6.244  0.5599  0.3721 -0.3948
  155MOL   H18837456   6.829   4.278   6.053 -0.0312  1.1844 -0.0561
  155MOL   H18937457   6.965   4.185   6.101 -1.7810 -2.4010 -0.2483
  155MOL   H19037458   6.747   4.139   6.165  0.9411  0.4196 -0.9772
  155MOL   H19137459   6.906   3.855   6.502 -2.1591  0.7203 -0.7396
  155MOL   H19237460   7.017   3.990   6.479  1.4965 -0.5510 -0.3182
  155MOL   H19337461   7.034   3.836   6.392  0.6643  0.7189  0.4463
  155MOL   C19437462   6.700   4.280   6.313  0.4122  0.1150  0.1052
  155MOL   C19537463   6.576   4.190   6.355  0.4061 -0.7297  0.6295
  155MOL   O19637464   6.499   4.251   6.456 -0.0539  0.0840 -0.6665
  155MOL   C19737465   6.498   4.202   6.582 -0.0361  0.9441 -0.3053
  155MOL   C19837466   6.399   4.270   6.672 -0.9640  0.0837 -0.8716
  155MOL   O19937467   6.570   4.107   6.628 -0.3252 -0.5470  0.4800
  155MOL   H20037468   6.745   4.332   6.397 -4.5665  3.8725  0.6431
  155MOL   H20137469   6.656   4.360   6.253 -2.1077 -0.0337  1.6597
  155MOL   H20237470   6.609   4.090   6.386  0.2727 -1.9301 -2.8792
  155MOL   H20337471   6.454   4.313   6.756 -0.7989 -0.1142 -0.8782
  155MOL   H20437472   6.329   4.199   6.716  0.2363 -0.1437  0.7265
  155MOL   H20537473   6.351   4.351   6.618 -0.2977 -0.7499 -2.7376
  155MOL   C20637474   6.484   4.138   6.238  0.7858  0.9226  0.3515
  155MOL   C20737475   6.385   4.022   6.273  0.1172 -0.2148  0.6055
  155MOL   O20837476   6.280   4.008   6.175 -0.5394 -0.6062 -0.1034
  155MOL   C20937477   6.148   4.040   6.205 -0.0322 -0.7573  0.1061
  155MOL   C21037478   6.065   4.044   6.076 -0.0687  0.2430 -0.3311
  155MOL   O21137479   6.096   4.072   6.317 -0.2906  0.4602  0.3406
  155MOL   H21237480   6.445   4.228   6.190 -0.4992  0.1990  0.0086
  155MOL   H21337481   6.540   4.094   6.156 -0.1301  0.2924  0.0570
  155MOL   H21437482   6.330   4.056   6.361 -0.5629  1.3451 -0.4031
  155MOL   H21537483   6.113   4.112   6.006  0.2191  0.6835  0.2907
  155MOL   H21637484   5.964   4.074   6.102 -0.9499 -0.8973 -2.3029
  155MOL   H21737485   6.056   3.950   6.022 -0.8128  0.3477 -0.3872
  155MOL   C21837486   6.455   3.891   6.290  0.1050  0.0348 -0.1499
  155MOL   C21937487   6.470   3.840   6.432 -0.9840  0.1907 -0.0373
  155MOL   O22037488   6.337   3.806   6.467  0.4796  0.0507 -0.0111
  155MOL   C22137489   6.277   3.856   6.579  0.3627 -0.3097 -0.4023
  155MOL   C22237490   6.130   3.813   6.588 -0.0506  0.3090  0.2265
  155MOL   O22337491   6.324   3.935   6.666 -0.3499  0.4953 -0.3265
  155MOL   H22437492   6.409   3.825   6.217 -0.2504  0.6615 -0.4931
  155MOL   H22537493   6.557   3.903   6.253 -0.4317 -2.9765 -2.8550
  155MOL   H22637494   6.509   3.922   6.492  1.1218 -1.9839  1.6628
  155MOL   H22737495   6.092   3.792   6.688 -1.3001 -3.2631 -0.9381
  155MOL   H22837496   6.104   3.729   6.525 -3.1755 -0.9668  3.0735
  155MOL   H22937497   6.064   3.895   6.558 -0.1208  0.5129  0.9228
  155MOL   C23037498   6.556   3.713   6.454  0.8483  0.0394 -0.6280
  155MOL   C23137499   6.502   3.599   6.366 -0.0350 -0.0310 -0.6010
  155MOL   O23237500   6.567   3.483   6.400 -0.2996  0.2504  0.3263
  155MOL   C23337501   6.521   3.395   6.492  0.0980 -0.2832  0.2497
  155MOL   C23437502   6.618   3.283   6.504  0.3900  0.0535  0.2811
  155MOL   O23537503   6.426   3.426   6.568 -0.3383  0.3869 -0.4318
  155MOL   H23637504   6.657   3.731   6.417 -0.3935  1.4832 -3.5120
  155MOL   H23737505   6.556   3.689   6.560 -0.1587 -2.9223 -1.2568
  155MOL   H23837506   6.517   3.603   6.259 -1.4927 -2.0699 -0.9185
  155MOL   H23937507   6.653   3.251   6.406 -1.7043 -1.0274 -0.1374
  155MOL   H24037508   6.576   3.193   6.547  0.0772 -0.4678 -1.0755
  155MOL   H24137509   6.706   3.312   6.560  1.1022 -0.8205 -0.3694
  155MOL   H24237510   6.395   3.578   6.373 -0.0287 -1.4933 -3.9739
  156MOL     C137511   7.250   0.689   2.879  0.3648 -0.2383 -0.1972
  156MOL     C237512   7.397   0.729   2.864 -0.5545  0.0326 -0.1450
  156MOL     O337513   7.419   0.873   2.839  0.4747  0.0953  0.2871
  156MOL     C437514   7.401   0.912   2.716 -0.2643  0.2074 -0.6013
  156MOL     C537515   7.388   1.061   2.704  0.1880 -0.2005  0.4085
  156MOL     O637516   7.382   0.837   2.616  0.1543 -0.0901 -0.2493
  156MOL     H737517   7.233   0.599   2.938  2.9634 -0.2985  0.5153
  156MOL     H837518   7.202   0.700   2.781 -0.0886 -1.7305 -0.1599
  156MOL     H937519   7.438   0.666   2.785  2.2730  1.0814  0.4000
  156MOL    H1037520   7.282   1.081   2.693  0.6180  2.1047  0.2570
  156MOL    H1137521   7.443   1.100   2.618 -2.3234 -0.9148 -1.5656
  156MOL    H1237522   7.418   1.116   2.793 -1.7423  0.7392  0.4890
  156MOL    H1337523   7.203   0.771   2.933  1.0884 -0.9837  1.6079
  156MOL    C1437524   7.480   0.680   2.978 -0.6790 -1.0004 -0.0093
  156MOL    C1537525   7.459   0.743   3.116  0.5995  0.0086 -0.0639
  156MOL    O1637526   7.331   0.705   3.168 -0.0109 -0.1000 -0.4188
  156MOL    C1737527   7.263   0.785   3.249 -0.1410 -0.5342  0.1083
  156MOL    C1837528   7.132   0.722   3.292  0.1752  0.3581  0.2048
  156MOL    O1937529   7.304   0.882   3.310 -0.2155  0.1939 -0.0811
  156MOL    H2037530   7.482   0.571   2.974 -1.7176 -0.9837 -1.1518
  156MOL    H2137531   7.580   0.697   2.940 -1.0398  0.6708 -0.2367
  156MOL    H2237532   7.469   0.851   3.112 -1.8552  0.3632  1.8867
  156MOL    H2337533   7.073   0.808   3.323 -3.0173 -2.3488  1.9104
  156MOL    H2437534   7.154   0.646   3.368 -1.8671  0.1790  0.6428
  156MOL    H2537535   7.076   0.688   3.205 -0.1884  0.7485  0.2843
  156MOL    C2637536   7.565   0.699   3.225 -0.4144  0.1247 -0.2428
  156MOL    C2737537   7.711   0.729   3.191 -0.1500 -0.5854 -0.4826
  156MOL    O2837538   7.730   0.867   3.164 -0.1679 -0.5826 -0.7217
  156MOL    C2937539   7.769   0.914   3.040  0.1866  0.6506  0.0558
  156MOL    C3037540   7.828   1.052   3.060  1.0365  0.0494  0.8956
  156MOL    O3137541   7.760   0.845   2.937 -0.6359 -0.1575  0.6936
  156MOL    H3237542   7.545   0.734   3.326  0.2631  1.4797 -0.5659
  156MOL    H3337543   7.560   0.590   3.214  0.9354 -0.1151  1.4496
  156MOL    H3437544   7.724   0.668   3.102  0.6721 -0.6286 -0.3415
  156MOL    H3537545   7.875   1.057   2.961 -1.4697 -1.5029 -0.4118
  156MOL    H3637546   7.908   1.068   3.132  0.6788  1.9011  0.8969
  156MOL    H3737547   7.745   1.122   3.062  1.2805  0.4614 -1.8194
  156MOL    C3837548   7.811   0.680   3.296 -0.0130 -0.2814 -0.5748
  156MOL    C3937549   7.812   0.527   3.328  0.1092 -0.7227 -0.0036
  156MOL    O4037550   7.878   0.445   3.236 -0.2997 -0.3618 -0.3680
  156MOL    C4137551   7.811   0.398   3.129  0.0615  0.4283  0.2432
  156MOL    C4237552   7.895   0.306   3.054 -0.1829 -0.1340 -0.2938
  156MOL    O4337553   7.696   0.417   3.101  0.6888 -0.1495  0.1859
  156MOL    H4437554   7.910   0.701   3.255  0.7201  0.0729  1.2941
  156MOL    H4537555   7.806   0.744   3.384  1.8088 -0.2183 -0.4891
  156MOL    H4637556   7.709   0.490   3.331  0.4370 -1.9499 -2.7238
  156MOL    H4737557   7.938   0.231   3.121  1.9969  0.5057 -0.9386
  156MOL    H4837558   7.987   0.348   3.014 -0.3146 -1.3372 -1.9369
  156MOL    H4937559   7.828   0.265   2.979 -1.7152  1.9609 -0.1189
  156MOL    C5037560   7.872   0.488   3.466 -0.1971  0.2052 -0.0239
  156MOL    C5137561   7.777   0.520   3.575 -0.5870 -0.3573  0.1856
  156MOL    O5237562   7.670   0.424   3.577 -0.2668  0.5792 -0.1384
  156MOL    C5337563   7.539   0.464   3.575  0.2938 -0.2812  0.2446
  156MOL    C5437564   7.446   0.351   3.589  0.5168  0.6964  0.1999
  156MOL    O5537565   7.498   0.577   3.585  0.0761 -0.7238 -0.5006
  156MOL    H5637566   7.890   0.381   3.476 -1.0141  0.1767  1.1934
  156MOL    H5737567   7.972   0.529   3.479  0.8038 -2.0681 -0.3214
  156MOL    H5837568   7.734   0.616   3.549 -0.4689 -0.5850 -0.8486
  156MOL    H5937569   7.468   0.308   3.686  0.1850  1.3845  0.5804
  156MOL    H6037570   7.460   0.272   3.515 -2.0242 -0.8086  1.2575
  156MOL    H6137571   7.339   0.373   3.589  0.4541  0.4383  2.7019
  156MOL    C6237572   7.840   0.532   3.719  0.0463  1.0644  0.1678
  156MOL    C6337573   7.768   0.624   3.810  0.7536 -0.2283 -0.0651
  156MOL    O6437574   7.669   0.547   3.866  0.1232  0.0038 -0.1898
  156MOL    C6537575   7.559   0.617   3.921 -0.0691 -0.0852 -0.1604
  156MOL    C6637576   7.482   0.543   4.035  0.0414  0.0173 -0.3391
  156MOL    O6737577   7.522   0.729   3.892  0.4300  0.5027  0.5554
  156MOL    H6837578   7.861   0.435   3.764 -0.3212  0.6438 -0.5578
  156MOL    H6937579   7.938   0.572   3.694 -0.1360  2.5664  1.7714
  156MOL    H7037580   7.727   0.710   3.757 -1.0334 -1.7848 -1.2530
  156MOL    H7137581   7.424   0.609   4.099 -0.1794 -0.5550  0.0541
  156MOL    H7237582   7.552   0.482   4.092  0.3692 -0.4577 -1.2297
  156MOL    H7337583   7.407   0.481   3.986  0.2067 -0.7325  0.3414
  156MOL    C7437584   7.867   0.691   3.914 -0.3089  0.3901  0.5287
  156MOL    C7537585   7.967   0.789   3.852  0.3399 -0.1891  0.3766
  156MOL    O7637586   7.895   0.892   3.786  0.2939 -0.5262  0.4286
  156MOL    C7737587   7.908   0.902   3.655 -0.5367  0.3548  0.6229
  156MOL    C7837588   7.880   1.050   3.607  0.2641 -0.4928 -0.1404
  156MOL    O7937589   7.938   0.813   3.573  0.1670 -0.0473 -0.7657
  156MOL    H8037590   7.797   0.735   3.985 -1.9078  1.5150 -1.6487
  156MOL    H8137591   7.921   0.616   3.971  0.0721  0.7710  0.6728
  156MOL    H8237592   0.005   0.736   3.778 -1.8731 -1.0239 -0.8628
  156MOL    H8337593   7.892   1.056   3.499  1.5813 -0.2878  0.0041
  156MOL    H8437594   7.947   1.120   3.658  0.3171 -0.0531 -0.8074
  156MOL    H8537595   7.780   1.074   3.641  0.8701  0.8986  0.7313
  156MOL    C8637596   0.031   0.861   3.956 -0.4566 -0.3690 -0.1117
  156MOL    C8737597   0.155   0.926   3.888  0.7672 -0.4862  0.6750
  156MOL    O8837598   0.223   1.024   3.967 -0.9996  0.3219  0.9257
  156MOL    C8937599   0.192   1.150   3.950 -0.0107 -0.0221 -0.1578
  156MOL    C9037600   0.272   1.247   4.038 -0.1751  0.1366 -0.3213
  156MOL    O9137601   0.094   1.187   3.889  0.5006 -0.0753 -0.1319
  156MOL    H9237602   7.990   0.919   4.024  0.1152  1.6990 -1.3102
  156MOL    H9337603   0.074   0.782   4.018  0.2100 -0.3711 -0.5876
  156MOL    H9437604   0.116   0.975   3.798 -2.0611 -1.4106  1.3487
  156MOL    H9537605   0.220   1.292   4.122  0.3234 -0.8100  0.5202
  156MOL    H9637606   0.284   1.329   3.968  0.4854 -0.9378 -1.5087
  156MOL    H9737607   0.369   1.202   4.064 -0.8221 -1.2751 -0.2779
  156MOL    C9837608   0.263   0.827   3.837 -0.7793 -0.2195 -0.6654
  156MOL    C9937609   0.355   0.883   3.726 -0.0592 -0.1358 -0.3814
  156MOL   O10037610   0.461   0.801   3.690 -0.0933 -0.7117  0.1657
  156MOL   C10137611   0.574   0.789   3.770 -0.1031 -0.0811 -0.0231
  156MOL   C10237612   0.700   0.732   3.702  1.0308  0.1554  0.4151
  156MOL   O10337613   0.576   0.808   3.897 -0.2666 -0.4640  0.1535
  156MOL   H10437614   0.326   0.809   3.924 -1.4016  1.2492  0.1075
  156MOL   H10537615   0.213   0.735   3.806  0.0984 -1.1370  0.5401
  156MOL   H10637616   0.391   0.981   3.760 -2.9579  0.8979 -0.0947
  156MOL   H10737617   0.723   0.628   3.724 -2.0358 -0.6608  0.0684
  156MOL   H10837618   0.779   0.800   3.735  0.8443 -0.2760  1.7700
  156MOL   H10937619   0.677   0.744   3.596 -0.3250 -0.4621  0.6319
  156MOL   C11037620   0.276   0.904   3.596  0.2914 -0.1976  1.0927
  156MOL   C11137621   0.363   0.938   3.468  0.1779 -0.2935 -0.4932
  156MOL   O11237622   0.270   0.938   3.360 -0.1784  0.5807  0.1182
  156MOL   C11337623   0.229   0.819   3.305 -0.0451  0.0273 -0.1908
  156MOL   C11437624   0.122   0.840   3.203 -0.7273  0.0512 -0.4566
  156MOL   O11537625   0.265   0.704   3.338  0.6586 -0.8009  0.1885
  156MOL   H11637626   0.216   0.816   3.573 -0.5405  0.7801 -0.5464
  156MOL   H11737627   0.202   0.981   3.615 -0.3377 -0.5402  0.0680
  156MOL   H11837628   0.430   0.855   3.448 -0.8480 -1.4359  0.7126
  156MOL   H11937629   0.160   0.916   3.134  0.5927 -1.1367 -1.0572
  156MOL   H12037630   0.025   0.874   3.241 -0.4115  1.0992 -0.5650
  156MOL   H12137631   0.103   0.741   3.161  1.8154 -0.4900 -0.4070
  156MOL   C12237632   0.427   1.074   3.479 -0.3254 -0.4189 -0.4477
  156MOL   C12337633   0.517   1.093   3.357 -0.0959  0.3298 -0.0136
  156MOL   O12437634   0.440   1.135   3.245 -0.0313  0.1286  0.0966
  156MOL   C12537635   0.481   1.090   3.124 -0.9316 -0.5948 -0.2689
  156MOL   C12637636   0.393   1.147   3.013  0.0181  0.0365  0.0189
  156MOL   O12737637   0.567   1.014   3.090 -0.3005 -0.3359 -0.0045
  156MOL   H12837638   0.345   1.145   3.491  0.3193  0.8477 -3.0778
  156MOL   H12937639   0.490   1.083   3.567 -0.7668 -1.2612 -0.0447
  156MOL   H13037640   0.560   0.998   3.325 -3.4004 -1.2980  0.1331
  156MOL   H13137641   0.433   1.247   3.000  0.6835 -0.3227 -0.7173
  156MOL   H13237642   0.287   1.156   3.035 -0.2443 -0.4725 -1.0241
  156MOL   H13337643   0.398   1.077   2.930 -1.5906  1.1783 -1.0575
  156MOL   C13437644   0.629   1.190   3.386  0.0249  0.1112 -0.1133
  156MOL   C13537645   0.752   1.114   3.437 -0.3989 -0.5560  0.1402
  156MOL   O13637646   0.801   1.049   3.324  0.5503  0.2198  0.1236
  156MOL   C13737647   0.811   0.917   3.310  0.0003  0.2140  0.3890
  156MOL   C13837648   0.844   0.861   3.172  0.7329  0.0633 -0.0969
  156MOL   O13937649   0.781   0.844   3.399 -0.0569 -0.5146  0.4239
  156MOL   H14037650   0.654   1.239   3.292  0.6588  0.5907  0.3036
  156MOL   H14137651   0.604   1.274   3.450 -0.6381 -0.5930  0.5721
  156MOL   H14237652   0.724   1.030   3.500  3.4201 -0.9816  1.4121
  156MOL   H14337653   0.948   0.832   3.183  1.4115  2.0798 -1.0533
  156MOL   H14437654   0.823   0.943   3.104 -1.9408 -0.1183  0.4281
  156MOL   H14537655   0.767   0.787   3.148  1.3926 -0.7470  0.2585
  156MOL   C14637656   0.857   1.208   3.506 -0.4989  0.0699 -0.5694
  156MOL   C14737657   0.819   1.270   3.640  0.5693  0.8853 -0.0238
  156MOL   O14837658   0.845   1.171   3.734 -0.3037  0.2946  0.1636
  156MOL   C14937659   0.739   1.121   3.805 -1.0307  0.4853 -0.4968
  156MOL   C15037660   0.791   1.043   3.934  0.0313 -0.1364  0.2772
  156MOL   O15137661   0.620   1.132   3.791  0.5310  0.1428 -0.5491
  156MOL   H15237662   0.954   1.160   3.513 -1.2183 -1.7743 -2.6026
  156MOL   H15337663   0.875   1.290   3.437  0.6537 -1.4085 -2.0575
  156MOL   H15437664   0.714   1.295   3.631  0.3031 -0.7620 -1.9511
  156MOL   H15537665   0.874   1.105   3.967  0.9030 -1.1403 -0.0070
  156MOL   H15637666   0.820   0.940   3.913 -0.9860 -0.2256 -0.7483
  156MOL   H15737667   0.720   1.048   4.016 -0.8741 -3.1354 -0.2857
  156MOL   C15837668   0.894   1.405   3.665 -0.1402  0.4265 -0.1274
  156MOL   C15937669   0.899   1.452   3.813  0.4271  0.2522  0.0716
  156MOL   O16037670   0.990   1.559   3.803  0.0590  0.1731  0.1128
  156MOL   C16137671   1.093   1.568   3.882 -0.3676 -0.8850 -0.0342
  156MOL   C16237672   1.184   1.682   3.845  0.0396  0.6331  0.2116
  156MOL   O16337673   1.112   1.498   3.978 -0.0119  0.2466  0.6559
  156MOL   H16437674   0.995   1.400   3.625 -0.9352 -0.0470 -2.1487
  156MOL   H16537675   0.849   1.489   3.613 -1.2369 -0.8721 -1.3102
  156MOL   H16637676   0.932   1.364   3.868 -1.3237  0.0798  0.8867
  156MOL   H16737677   1.208   1.684   3.739 -1.8586 -1.0558 -0.2955
  156MOL   H16837678   1.270   1.680   3.912  0.2115 -0.0502 -0.0228
  156MOL   H16937679   1.132   1.775   3.864  1.4193  1.6919 -1.0456
  156MOL   C17037680   0.763   1.502   3.879 -0.2105 -0.5790  0.7412
  156MOL   C17137681   0.774   1.514   4.031 -0.1760 -0.0397  0.4584
  156MOL   O17237682   0.657   1.562   4.094 -0.6626 -0.0179  0.0742
  156MOL   C17337683   0.655   1.652   4.187  0.2733 -0.6436 -0.0865
  156MOL   C17437684   0.512   1.674   4.228  0.4454 -0.0134  0.5569
  156MOL   O17537685   0.749   1.722   4.225 -0.3944 -0.5802  0.4584
  156MOL   H17637686   0.721   1.591   3.831  2.5563  0.2933 -0.1208
  156MOL   H17737687   0.691   1.420   3.871 -1.8208  0.6929  1.6407
  156MOL   H17837688   0.854   1.587   4.045  0.3585 -0.3216 -1.0297
  156MOL   H17937689   0.521   1.752   4.303  1.2496 -1.1182  1.6347
  156MOL   H18037690   0.463   1.588   4.273  1.0003 -0.4496  0.3376
  156MOL   H18137691   0.462   1.724   4.145  0.3955 -1.0825 -0.0690
  156MOL   C18237692   0.813   1.377   4.107  0.4207 -0.1848 -0.0199
  156MOL   C18337693   0.831   1.387   4.258 -0.1965  0.1635  0.6231
  156MOL   O18437694   0.809   1.251   4.311  0.0899 -0.0995  0.0233
  156MOL   C18537695   0.682   1.213   4.353 -0.1137  0.1613  0.2358
  156MOL   C18637696   0.680   1.090   4.438 -0.1570  0.3792 -0.0647
  156MOL   O18737697   0.580   1.267   4.310  0.2086 -0.1587 -0.5602
  156MOL   H18837698   0.727   1.312   4.088  0.8216 -0.3053 -1.4459
  156MOL   H18937699   0.902   1.322   4.075  0.6066 -0.8504  1.5729
  156MOL   H19037700   0.768   1.459   4.309  1.0034  0.7273  1.3453
  156MOL   H19137701   0.611   1.014   4.400  0.0471  0.6740 -1.0291
  156MOL   H19237702   0.649   1.107   4.541  1.1561 -0.6436  0.5120
  156MOL   H19337703   0.780   1.047   4.449 -1.6512 -3.0431  1.1006
  156MOL   C19437704   0.978   1.427   4.292 -0.0955 -0.9001  0.0730
  156MOL   C19537705   0.998   1.512   4.421  0.2561  0.7490 -0.2703
  156MOL   O19637706   0.954   1.432   4.529  0.0761  0.9423 -0.5519
  156MOL   C19737707   0.847   1.456   4.590 -0.2228  0.1445  0.2954
  156MOL   C19837708   0.811   1.356   4.692  0.0030  0.1984  0.3880
  156MOL   O19937709   0.776   1.548   4.569  0.0814 -0.4284 -0.7455
  156MOL   H20037710   1.038   1.336   4.292 -0.4486 -1.1579  1.7590
  156MOL   H20137711   1.011   1.488   4.208 -1.9734 -0.9313 -0.7233
  156MOL   H20237712   0.953   1.611   4.425  0.1632  0.7322 -0.8795
  156MOL   H20337713   0.795   1.410   4.785  2.3307 -1.0314  1.5361
  156MOL   H20437714   0.892   1.288   4.716  1.1262  1.4647  0.1978
  156MOL   H20537715   0.716   1.310   4.662  0.2810  1.2498 -2.2225
  156MOL   C20637716   1.143   1.534   4.453  0.7257  0.3293 -0.4839
  156MOL   C20737717   1.225   1.619   4.353  0.4126  1.4466  0.0331
  156MOL   O20837718   1.168   1.757   4.354 -0.3034  0.1635  0.2715
  156MOL   C20937719   1.083   1.796   4.268  0.0364  1.5522 -0.5700
  156MOL   C21037720   1.046   1.934   4.279  0.2675 -0.2096 -0.2321
  156MOL   O21137721   1.034   1.726   4.184  0.4304 -0.0191 -0.2292
  156MOL   H21237722   1.141   1.572   4.555 -0.0346  1.4104 -0.8950
  156MOL   H21337723   1.181   1.432   4.458 -1.5829 -0.4770  1.6452
  156MOL   H21437724   1.205   1.579   4.254  0.5675 -1.0245  0.9738
  156MOL   H21537725   1.050   1.981   4.180  2.1425 -0.4737 -0.3171
  156MOL   H21637726   1.091   1.986   4.363 -2.2126  2.0802 -0.2479
  156MOL   H21737727   0.943   1.936   4.314  0.9658  0.9597  1.7965
  156MOL   C21837728   1.372   1.632   4.375  0.4072  0.3691  0.5648
  156MOL   C21937729   1.464   1.521   4.314 -0.3168 -0.3582 -1.0460
  156MOL   O22037730   1.470   1.537   4.177  0.5396  0.0599 -0.1701
  156MOL   C22137731   1.434   1.434   4.096  0.2524 -0.2545  0.2772
  156MOL   C22237732   1.524   1.439   3.968  0.4794 -0.5633 -0.3512
  156MOL   O22337733   1.344   1.349   4.121  0.4413  0.1570 -0.8137
  156MOL   H22437734   1.414   1.727   4.341 -2.0353  0.6842 -1.7715
  156MOL   H22537735   1.388   1.638   4.482  3.3239  2.4839  0.0834
  156MOL   H22637736   1.422   1.423   4.336  1.3958 -1.6638 -3.3503
  156MOL   H22737737   1.611   1.502   3.989  1.4527 -2.1824  0.6033
  156MOL   H22837738   1.463   1.460   3.881  0.1753  1.4873  0.3411
  156MOL   H22937739   1.571   1.341   3.962  0.0775 -0.7544 -0.3361
  156MOL   C23037740   1.611   1.527   4.364 -0.0650  0.6948  0.3071
  156MOL   C23137741   1.688   1.395   4.334 -0.5260 -0.3374  0.1482
  156MOL   O23237742   1.817   1.415   4.384 -0.0005  0.0144  0.0023
  156MOL   C23337743   1.922   1.340   4.332  0.4388  0.1959  0.6256
  156MOL   C23437744   2.058   1.388   4.387  0.1769 -0.0094 -0.1888
  156MOL   O23537745   1.915   1.256   4.243 -0.6054 -0.2639 -0.2692
  156MOL   H23637746   1.661   1.616   4.325 -0.0817  0.7232  0.3517
  156MOL   H23737747   1.609   1.542   4.472 -0.8122 -1.1630  0.5672
  156MOL   H23837748   1.715   1.385   4.228 -1.2668  0.8281 -0.1680
  156MOL   H23937749   2.059   1.359   4.492 -1.1435  2.1932  0.4759
  156MOL   H24037750   2.084   1.491   4.365 -1.5012  0.3806 -0.4522
  156MOL   H24137751   2.138   1.332   4.339 -0.0171  0.1758 -0.7282
  156MOL   H24237752   1.642   1.303   4.369  2.7329 -0.8018  3.4041
  157MOL     C137753   7.609   1.662   7.424  0.8121 -0.3218 -0.3954
  157MOL     C237754   7.652   1.771   7.519  0.5854  0.1820  0.3111
  157MOL     O337755   7.541   1.843   7.559  0.6591 -0.0343  0.1818
  157MOL     C437756   7.488   1.934   7.475 -0.4804 -0.6791 -0.2507
  157MOL     C537757   7.351   1.988   7.520  0.2810 -0.6652  0.1407
  157MOL     O637758   7.525   1.965   7.360  0.6048 -0.7391  0.5663
  157MOL     H737759   7.533   1.686   7.351  0.3530  1.3627  0.6128
  157MOL     H837760   7.556   1.597   7.494 -1.4563  1.9140  0.0130
  157MOL     H937761   7.722   1.834   7.464 -0.3337  0.6568 -0.3134
  157MOL    H1037762   7.366   2.041   7.614  0.7321  2.4433 -1.5879
  157MOL    H1137763   7.284   1.908   7.550  0.9299 -0.6129  1.7795
  157MOL    H1237764   7.299   2.042   7.440 -0.8759 -3.1443 -0.8128
  157MOL    H1337765   7.698   1.613   7.385 -0.0621 -2.6256  0.4055
  157MOL    C1437766   7.723   1.721   7.639 -0.1793 -0.0422  0.3859
  157MOL    C1537767   7.830   1.810   7.689 -0.4095 -0.7411 -0.0115
  157MOL    O1637768   7.775   1.933   7.736 -0.6957  0.9690  0.2301
  157MOL    C1737769   7.826   2.051   7.702  0.1516  0.7540 -0.4497
  157MOL    C1837770   7.736   2.164   7.764  0.4198 -0.0969  0.5956
  157MOL    O1937771   7.932   2.076   7.648 -0.5832 -0.1870 -0.4546
  157MOL    H2037772   7.656   1.703   7.723  1.5491  1.3841  2.1342
  157MOL    H2137773   7.758   1.623   7.608  0.3185  0.9190 -2.2207
  157MOL    H2237774   7.903   1.835   7.611  0.8626 -0.8814  1.1116
  157MOL    H2337775   7.631   2.139   7.777  0.1565  0.5286 -0.2786
  157MOL    H2437776   7.731   2.259   7.711  0.1184  0.5994  1.8422
  157MOL    H2537777   7.770   2.183   7.866  1.0226  0.3675  0.3117
  157MOL    C2637778   7.916   1.734   7.794  0.0124 -0.3417 -0.1925
  157MOL    C2737779   0.026   1.797   7.814 -0.8959  0.2950  0.6518
  157MOL    O2837780   0.088   1.746   7.929 -0.5639  0.1208 -0.9482
  157MOL    C2937781   0.121   1.828   0.014  0.1747  0.6541  0.0518
  157MOL    C3037782   0.166   1.752   0.135  0.3128  0.1002  0.1938
  157MOL    O3137783   0.122   1.952   0.015 -0.8987 -0.1759  0.4001
  157MOL    H3237784   7.855   1.725   7.883  0.6060 -1.3975  0.1134
  157MOL    H3337785   7.936   1.635   7.754  0.7589  1.2290 -3.9228
  157MOL    H3437786   0.012   1.904   7.834 -0.9681  0.1249  1.5247
  157MOL    H3537787   0.079   1.723   0.194 -0.8252  0.2879 -1.3308
  157MOL    H3637788   0.242   1.791   0.202  0.8206  0.7746 -0.7540
  157MOL    H3737789   0.199   1.660   0.088  0.6528  0.1576  0.3230
  157MOL    C3837790   0.126   1.769   7.693  0.1942 -0.3596 -0.2152
  157MOL    C3937791   0.223   1.888   7.664  0.1338  0.7551 -0.3963
  157MOL    O4037792   0.314   1.896   7.780 -0.3635  0.2342 -0.6064
  157MOL    C4137793   0.360   2.011   7.830  0.6142 -0.3976  0.1622
  157MOL    C4237794   0.450   1.992   7.948 -0.1155 -0.6057  0.1778
  157MOL    O4337795   0.334   2.128   7.795  0.2994  0.5525  0.4103
  157MOL    H4437796   0.177   1.674   7.712 -2.4979 -1.8983 -0.4193
  157MOL    H4537797   0.063   1.753   7.606 -1.5655  2.4697  0.4730
  157MOL    H4637798   0.166   1.980   7.651 -0.6051  0.5144  1.0241
  157MOL    H4737799   0.526   1.917   7.929 -0.3771 -0.7064 -0.4640
  157MOL    H4837800   0.394   1.955   0.013 -2.8590 -1.5712 -1.9211
  157MOL    H4937801   0.497   2.088   7.970  0.8720 -0.7628 -1.2294
  157MOL    C5037802   0.314   1.850   7.544  0.1239  0.4797  0.9049
  157MOL    C5137803   0.251   1.813   7.408  0.4551  0.1197 -0.2678
  157MOL    O5237804   0.182   1.926   7.354 -0.3588  0.6063  0.1791
  157MOL    C5337805   0.048   1.930   7.363  0.5532  0.4082  0.0445
  157MOL    C5437806   8.009   2.068   7.338  0.4004  0.3196  0.5144
  157MOL    O5537807   7.993   1.840   7.390  0.3623 -0.2249  0.7882
  157MOL    H5637808   0.386   1.930   7.529  0.1012  0.5790  1.3372
  157MOL    H5737809   0.362   1.760   7.583  0.4907 -0.0541 -0.7001
  157MOL    H5837810   0.177   1.733   7.415 -1.9914  2.3308 -0.2632
  157MOL    H5937811   0.035   2.144   7.401 -1.5035  0.5564  1.7242
  157MOL    H6037812   7.902   2.064   7.355  0.1334  0.6812 -1.0432
  157MOL    H6137813   0.012   2.106   7.239 -0.3534 -0.5798 -0.0162
  157MOL    C6237814   0.355   1.788   7.287 -0.2539 -0.1312 -0.2665
  157MOL    C6337815   0.419   1.657   7.290  0.5676 -0.4077  0.8934
  157MOL    O6437816   0.333   1.574   7.208 -0.0378  0.1455 -0.7179
  157MOL    C6537817   0.270   1.470   7.264  0.1067  0.2181  0.5590
  157MOL    C6637818   0.210   1.381   7.153  0.4014  0.1609 -0.5084
  157MOL    O6737819   0.265   1.441   7.387 -0.3662 -0.3309 -0.0633
  157MOL    H6837820   0.309   1.815   7.191 -0.9265 -1.6018 -0.3685
  157MOL    H6937821   0.430   1.867   7.282 -0.0376 -0.2754  0.7193
  157MOL    H7037822   0.409   1.619   7.391 -0.5943 -1.2791  0.4624
  157MOL    H7137823   0.114   1.428   7.131  1.1486  1.1956 -1.6555
  157MOL    H7237824   0.184   1.280   7.184  1.4816 -0.3673 -1.2874
  157MOL    H7337825   0.278   1.384   7.068 -0.8039  1.6117 -1.4402
  157MOL    C7437826   0.567   1.645   7.239 -1.0800 -0.8322  0.3826
  157MOL    C7537827   0.675   1.731   7.299 -0.1023  0.0656 -0.0285
  157MOL    O7637828   0.692   1.681   7.430  0.0315  0.0218  0.3874
  157MOL    C7737829   0.706   1.775   7.517 -0.9755 -1.6761  0.2708
  157MOL    C7837830   0.739   1.709   7.655  0.0101  0.5701 -1.0919
  157MOL    O7937831   0.705   1.899   7.500 -0.3755 -0.6849 -0.2656
  157MOL    H8037832   0.593   1.540   7.252 -0.1848 -0.6887 -0.2546
  157MOL    H8137833   0.582   1.664   7.133 -1.1154  3.2551  1.0091
  157MOL    H8237834   0.643   1.835   7.302  1.8067  0.7541 -2.3994
  157MOL    H8337835   0.825   1.757   7.700 -1.4701  1.0356  1.3582
  157MOL    H8437836   0.758   1.603   7.634 -1.3334  0.0323  0.3224
  157MOL    H8537837   0.653   1.707   7.722  0.9320  3.3772  0.2452
  157MOL    C8637838   0.804   1.739   7.223 -0.9113  0.3548 -1.0105
  157MOL    C8737839   0.804   1.830   7.102  0.5697  0.5116 -0.5313
  157MOL    O8837840   0.823   1.957   7.153 -0.0641 -0.3865 -0.5577
  157MOL    C8937841   0.722   2.050   7.138  0.1158 -0.4792  0.6249
  157MOL    C9037842   0.760   2.192   7.178 -0.2802  0.0008 -0.3075
  157MOL    O9137843   0.609   2.026   7.101 -0.4871  0.1686 -0.0025
  157MOL    H9237844   0.880   1.772   7.294 -1.1147  0.9826 -1.0871
  157MOL    H9337845   0.832   1.637   7.195  3.1975  0.6321  1.6047
  157MOL    H9437846   0.708   1.818   7.053 -0.3610 -1.5955  1.7520
  157MOL    H9537847   0.747   2.262   7.096  2.0280 -2.2475 -2.6925
  157MOL    H9637848   0.864   2.193   7.212  0.1654 -1.8248 -1.5453
  157MOL    H9737849   0.710   2.234   7.265  0.8074  2.8414 -0.9848
  157MOL    C9837850   0.916   1.805   7.004  0.5051  0.4950 -0.0122
  157MOL    C9937851   0.914   1.674   6.916  0.0314 -0.3611  0.2570
  157MOL   O10037852   0.901   1.548   6.998 -0.5575 -0.1250 -0.4280
  157MOL   C10137853   1.009   1.484   7.041 -0.1975 -0.5618 -0.2279
  157MOL   C10237854   0.974   1.345   7.103  0.0603 -0.2748 -0.1852
  157MOL   O10337855   1.126   1.520   7.036 -0.0658 -1.3817 -0.1710
  157MOL   H10437856   0.923   1.893   6.941 -1.6826  2.0953  1.8800
  157MOL   H10537857   1.010   1.800   7.061 -1.3867  0.2906  3.2278
  157MOL   H10637858   1.014   1.666   6.873  0.0850 -0.9194  0.4703
  157MOL   H10737859   0.887   1.297   7.060  0.2667  0.3126 -1.2675
  157MOL   H10837860   0.964   1.362   7.211  5.1745  1.6592  0.1249
  157MOL   H10937861   1.059   1.278   7.098  0.3163 -0.1404  1.8559
  157MOL   C11037862   0.802   1.658   6.811  0.0960  0.4533  0.6477
  157MOL   C11137863   0.784   1.764   6.705  0.9178  0.0869 -0.0309
  157MOL   O11237864   0.913   1.799   6.660  0.6688 -0.2719  0.1012
  157MOL   C11337865   0.946   1.928   6.659 -0.6533 -0.6360 -0.5220
  157MOL   C11437866   1.090   1.932   6.617  0.4621  0.3275 -0.1924
  157MOL   O11537867   0.877   2.024   6.693 -0.1025  0.2026 -0.2317
  157MOL   H11637868   0.819   1.569   6.750  2.5638  1.7403 -0.6156
  157MOL   H11737869   0.707   1.641   6.862 -0.2339  2.9226  0.8993
  157MOL   H11837870   0.739   1.843   6.764  0.7046  0.4627 -0.6857
  157MOL   H11937871   1.168   1.897   6.684  0.5625  0.4101 -0.2649
  157MOL   H12037872   1.113   2.031   6.577 -2.7022  0.5247 -1.7164
  157MOL   H12137873   1.094   1.865   6.532  0.4721  1.1539 -0.8492
  157MOL   C12237874   0.693   1.728   6.592  0.0851 -0.4409 -0.2803
  157MOL   C12337875   0.617   1.854   6.533 -0.0493 -0.4084  0.0814
  157MOL   O12437876   0.573   1.818   6.400 -0.1073  0.4861 -0.1322
  157MOL   C12537877   0.665   1.845   6.298 -0.2255  0.2405 -0.6133
  157MOL   C12637878   0.613   1.791   6.166  0.2332  0.0254  0.1984
  157MOL   O12737879   0.773   1.904   6.302 -0.6098  0.2290 -0.4091
  157MOL   H12837880   0.752   1.690   6.509 -0.2142  0.0072 -0.6983
  157MOL   H12937881   0.631   1.641   6.618 -1.6055  0.6296 -0.6512
  157MOL   H13037882   0.689   1.936   6.535 -1.5805  1.0085 -1.3611
  157MOL   H13137883   0.662   1.697   6.143  0.0240 -0.1652  0.5181
  157MOL   H13237884   0.632   1.872   6.096  0.0335 -0.3030 -0.2412
  157MOL   H13337885   0.505   1.776   6.173  0.0413  1.7584  1.0807
  157MOL   C13437886   0.485   1.891   6.607 -0.2032  0.1021 -0.2482
  157MOL   C13537887   0.416   2.029   6.559  0.0353  0.1656 -0.1456
  157MOL   O13637888   0.361   2.013   6.429  0.4695 -0.0924 -0.0048
  157MOL   C13737889   0.345   2.116   6.354 -0.3326 -0.6128 -1.1422
  157MOL   C13837890   0.270   2.072   6.227  0.2051  0.1755  0.2167
  157MOL   O13937891   0.378   2.234   6.372 -0.3693 -0.3785  0.2251
  157MOL   H14037892   0.418   1.813   6.571  1.5060 -0.2942 -2.7018
  157MOL   H14137893   0.489   1.878   6.715  0.5715 -0.0802 -0.2984
  157MOL   H14237894   0.498   2.099   6.545  0.3593 -0.2456 -0.3224
  157MOL   H14337895   0.344   2.062   6.147  1.2209 -0.3345  1.2065
  157MOL   H14437896   0.208   2.153   6.190  0.4987 -0.3455 -1.4496
  157MOL   H14537897   0.215   1.981   6.249 -1.0340  0.6091 -1.0631
  157MOL   C14637898   0.298   2.069   6.649 -0.1742  0.6985 -0.0526
  157MOL   C14737899   0.344   2.140   6.775  0.4278 -0.1844  0.1225
  157MOL   O14837900   0.414   2.262   6.750  0.1090  0.0561 -0.3617
  157MOL   C14937901   0.539   2.285   6.788  0.0500 -0.3109  0.0808
  157MOL   C15037902   0.592   2.423   6.758 -0.3983  0.6815  0.0035
  157MOL   O15137903   0.611   2.205   6.845 -0.1675 -0.3101  0.2674
  157MOL   H15237904   0.225   2.132   6.599 -1.4109 -0.2886  0.4990
  157MOL   H15337905   0.239   1.982   6.676  0.5640  0.0411 -0.5297
  157MOL   H15437906   0.409   2.072   6.830  1.7460 -0.7909 -2.1437
  157MOL   H15537907   0.689   2.405   6.714 -1.0584  0.0839 -1.2390
  157MOL   H15637908   0.607   2.497   6.837 -0.2297  1.2023 -0.5134
  157MOL   H15737909   0.536   2.467   6.676 -0.3392  0.4570 -0.1574
  157MOL   C15837910   0.219   2.177   6.855 -0.7888 -0.5198 -0.3456
  157MOL   C15937911   0.234   2.267   6.972 -0.1367  0.4337 -0.0440
  157MOL   O16037912   0.107   2.271   7.043  0.2198 -0.3790 -0.1256
  157MOL   C16137913   0.037   2.388   7.064  0.2648  0.5194  0.8617
  157MOL   C16237914   7.940   2.367   7.154  0.1969  0.0275 -0.3050
  157MOL   O16337915   0.076   2.499   7.037  0.4313 -0.4787 -0.1615
  157MOL   H16437916   0.148   2.223   6.786  0.2892  0.0730 -1.0593
  157MOL   H16537917   0.173   2.087   6.895  0.2667 -1.2600 -0.8016
  157MOL   H16637918   0.257   2.368   6.938 -0.7325  0.9025  0.8872
  157MOL   H16737919   7.876   2.455   7.148  0.1664  0.0483  0.3258
  157MOL   H16837920   7.975   2.350   7.255 -1.6028  2.9592  0.8727
  157MOL   H16937921   7.872   2.285   7.131 -0.0406 -0.0939  0.8100
  157MOL   C17037922   0.332   2.217   7.081  0.6556  0.4285 -0.1236
  157MOL   C17137923   0.364   2.321   7.188 -0.2314 -0.7784 -0.0733
  157MOL   O17237924   0.457   2.270   7.289 -0.3338 -0.1794  0.9157
  157MOL   C17337925   0.414   2.242   7.417 -0.8378  0.8450  0.7345
  157MOL   C17437926   0.515   2.159   7.496  0.2929 -0.1651  0.1407
  157MOL   O17537927   0.306   2.269   7.467 -0.2787 -0.3695  0.0619
  157MOL   H17637928   0.289   2.120   7.104  0.9781  0.2925 -0.0900
  157MOL   H17737929   0.424   2.193   7.028 -0.4132 -1.0320 -1.3448
  157MOL   H17837930   0.267   2.353   7.226  0.0209 -1.2944  1.0127
  157MOL   H17937931   0.552   2.077   7.433 -1.6094 -1.3274  0.5179
  157MOL   H18037932   0.470   2.125   7.589 -1.3087 -1.6572 -1.1498
  157MOL   H18137933   0.601   2.225   7.509  0.2790  0.5396 -2.8455
  157MOL   C18237934   0.411   2.461   7.132 -0.5354  0.5917 -0.4628
  157MOL   C18337935   0.422   2.576   7.241 -0.0526  0.5842 -0.0195
  157MOL   O18437936   0.487   2.691   7.176 -0.4714 -0.1736 -0.0442
  157MOL   C18537937   0.617   2.717   7.207 -0.0989 -0.2448  0.3387
  157MOL   C18637938   0.665   2.851   7.166 -0.0043  0.6571 -0.0340
  157MOL   O18737939   0.685   2.640   7.267  0.1018  0.1187 -0.6438
  157MOL   H18837940   0.512   2.449   7.092  0.4151 -0.7072  2.2453
  157MOL   H18937941   0.367   2.497   7.039  0.3221  2.8839 -0.0074
  157MOL   H19037942   0.486   2.545   7.324  0.8165 -0.0954 -0.9360
  157MOL   H19137943   0.699   2.898   7.258 -1.4919  2.8026 -0.5503
  157MOL   H19237944   0.594   2.921   7.122  0.4005  1.8574  1.1860
  157MOL   H19337945   0.754   2.837   7.105 -1.5678 -2.5855 -1.7314
  157MOL   C19437946   0.283   2.613   7.305 -0.2957 -1.0827  0.2964
  157MOL   C19537947   0.294   2.719   7.422  0.3036  0.3135 -0.2668
  157MOL   O19637948   0.303   2.843   7.350 -0.6976 -0.4798 -0.3505
  157MOL   C19737949   0.381   2.940   7.397 -0.1171 -0.1989  0.0749
  157MOL   C19837950   0.374   3.067   7.318 -0.7183  0.5205 -0.4806
  157MOL   O19937951   0.447   2.938   7.495  0.4846 -0.2503  0.1778
  157MOL   H20037952   0.232   2.663   7.223  1.9467 -0.1796 -0.5885
  157MOL   H20137953   0.229   2.524   7.337  0.1647 -1.1677  0.8311
  157MOL   H20237954   0.382   2.707   7.485  1.3144 -0.6919 -1.8542
  157MOL   H20337955   0.381   3.159   7.377 -0.0978 -0.5845  1.2019
  157MOL   H20437956   0.278   3.074   7.266 -1.1748  0.2927  0.3243
  157MOL   H20537957   0.460   3.077   7.252  0.0321  1.9806  0.6819
  157MOL   C20637958   0.161   2.714   7.505  0.1905 -0.7908 -0.4250
  157MOL   C20737959   0.163   2.821   7.619  0.3313 -0.1330 -0.0280
  157MOL   O20837960   0.029   2.835   7.668  0.0178 -0.0647 -0.4139
  157MOL   C20937961   7.962   2.925   7.619 -0.3526 -0.5548  0.3201
  157MOL   C21037962   7.824   2.921   7.680 -0.1571 -0.0194 -0.5069
  157MOL   O21137963   7.998   3.013   7.544 -0.0857  0.0977  0.1626
  157MOL   H21237964   0.075   2.728   7.440  0.8475  2.2810 -0.7196
  157MOL   H21337965   0.137   2.616   7.546  3.3294 -0.8828  1.2776
  157MOL   H21437966   0.199   2.910   7.568  3.6394 -1.2213  0.2701
  157MOL   H21537967   7.823   2.935   7.788 -2.3095  0.4968 -0.5660
  157MOL   H21637968   7.799   2.815   7.666 -0.9998  0.1680 -0.4599
  157MOL   H21737969   7.759   2.993   7.632  0.3265  1.2973  0.7678
  157MOL   C21837970   0.249   2.787   7.745 -0.1324  0.1227  0.2682
  157MOL   C21937971   0.195   2.701   7.861 -0.1182  0.4691  0.6014
  157MOL   O22037972   0.186   2.558   7.829 -0.2815  0.4908 -0.3911
  157MOL   C22137973   0.068   2.490   7.792 -0.0184  0.1191  0.5622
  157MOL   C22237974   0.086   2.355   7.730  0.6628  0.1872  0.2485
  157MOL   O22337975   7.976   2.538   7.806 -0.1737  0.3973 -0.5810
  157MOL   H22437976   0.347   2.761   7.705 -0.9490 -1.0637 -1.0015
  157MOL   H22537977   0.259   2.887   7.787 -0.5517  1.0472 -1.7536
  157MOL   H22637978   0.101   2.744   7.897  0.5932  0.5758  2.3833
  157MOL   H22737979   8.014   2.331   7.680  0.1440  0.8485  0.8827
  157MOL   H22837980   0.094   2.284   7.813 -0.2276 -0.2885 -0.0592
  157MOL   H22937981   0.166   2.330   7.661 -0.8937 -2.9729 -0.5368
  157MOL   C23037982   0.295   2.707   7.978 -0.1456  0.9762  0.1143
  157MOL   C23137983   0.309   2.842   0.029  0.9480  0.0272  0.0416
  157MOL   O23237984   0.192   2.858   0.116  0.1542  0.3701 -0.1598
  157MOL   C23337985   0.083   2.919   0.069  0.1508 -0.0495  0.4117
  157MOL   C23437986   7.988   2.915   0.171 -0.2341  0.0030  0.1558
  157MOL   O23537987   0.063   2.973   7.978 -0.2313  0.3526 -0.1509
  157MOL   H23637988   0.270   2.635   0.034  3.8909 -0.9654 -0.2689
  157MOL   H23737989   0.393   2.682   7.936 -1.3617  0.0346 -2.2690
  157MOL   H23837990   0.314   2.939   8.002  2.8891  0.7980  1.7111
  157MOL   H23937991   7.989   3.005   0.234 -0.7989  0.1943 -0.1053
  157MOL   H24037992   7.993   2.834   0.244 -1.8450 -0.8485 -0.6452
  157MOL   H24137993   7.893   2.910   0.117 -0.4404  2.2045  0.2559
  157MOL   H24237994   0.397   2.828   0.091  1.6089 -0.8799 -1.0922
  158MOL     C137995   7.266   3.271   7.769 -0.1911 -0.5607 -0.1592
  158MOL     C237996   7.157   3.172   7.728  0.1218 -0.0188  0.1139
  158MOL     O337997   7.227   3.047   7.695 -0.2015 -0.7129  0.1589
  158MOL     C437998   7.298   3.038   7.574 -0.0328 -0.0034 -0.7652
  158MOL     C537999   7.399   2.927   7.576 -0.4470 -1.4023  0.1138
  158MOL     O638000   7.283   3.113   7.481 -0.1226 -0.4707  0.1157
  158MOL     H738001   7.332   3.303   7.688 -2.6415  0.9398 -1.5888
  158MOL     H838002   7.326   3.222   7.846 -2.2291  1.7350  3.0237
  158MOL     H938003   7.104   3.196   7.635  2.3137 -2.1726 -1.7350
  158MOL    H1038004   7.478   2.929   7.501 -0.3219  2.7170  0.2024
  158MOL    H1138005   7.345   2.837   7.549  0.9559 -1.5992 -2.1539
  158MOL    H1238006   7.447   2.923   7.673 -2.4578  0.1824  1.2134
  158MOL    H1338007   7.220   3.367   7.794  1.6644  0.4751 -0.5873
  158MOL    C1438008   7.058   3.144   7.839 -0.2703 -0.5893  0.6705
  158MOL    C1538009   6.959   3.255   7.864  0.5972 -0.9390  0.2140
  158MOL    O1638010   6.850   3.238   7.768  0.0788  0.5894  0.4310
  158MOL    C1738011   6.838   3.335   7.674  0.3418  0.1471  0.0489
  158MOL    C1838012   6.729   3.296   7.572  0.4185  0.0539  0.3835
  158MOL    O1938013   6.891   3.444   7.681  0.0938  0.3856 -0.0047
  158MOL    H2038014   6.992   3.061   7.812 -1.2901 -0.9616  4.0828
  158MOL    H2138015   7.108   3.128   7.934  1.1633 -0.2526 -0.0195
  158MOL    H2238016   7.015   3.347   7.851 -0.2316 -0.6231 -1.2409
  158MOL    H2338017   6.685   3.389   7.535  0.7935  0.1402  0.1455
  158MOL    H2438018   6.645   3.244   7.618  0.2167  0.4020  0.4082
  158MOL    H2538019   6.766   3.230   7.493 -0.5376  0.5489 -0.4972
  158MOL    C2638020   6.892   3.249   8.004  0.0003  0.0896  0.3355
  158MOL    C2738021   6.991   3.238   0.104 -0.7433  0.4403 -0.3416
  158MOL    O2838022   7.082   3.341   0.096 -0.5225 -0.8298  0.2103
  158MOL    C2938023   7.212   3.323   0.130 -0.0744  0.1178  0.2570
  158MOL    C3038024   7.284   3.460   0.141 -0.2369  0.2193 -0.3561
  158MOL    O3138025   7.273   3.218   0.146  0.4081 -0.0920  0.2145
  158MOL    H3238026   6.835   3.342   8.015 -0.4769  0.0833 -1.7476
  158MOL    H3338027   6.827   3.162   8.009 -0.1393  0.2711  2.0688
  158MOL    H3438028   7.051   3.148   0.094 -2.0354 -0.5252  0.3343
  158MOL    H3538029   7.376   3.460   0.199  0.3268  0.5054 -1.2421
  158MOL    H3638030   7.214   3.535   0.178  0.1333  1.2266 -1.6760
  158MOL    H3738031   7.309   3.495   0.041  1.3117 -0.1508 -0.1083
  158MOL    C3838032   6.919   3.239   0.242 -0.4350  0.3040  0.2773
  158MOL    C3938033   7.015   3.185   0.353  0.0462  0.7556  0.0366
  158MOL    O4038034   6.964   3.225   0.476  0.2634  0.1991 -0.3088
  158MOL    C4138035   7.003   3.335   0.539  0.6095  0.0982  0.1655
  158MOL    C4238036   6.906   3.388   0.640  0.6160  0.2793 -0.0739
  158MOL    O4338037   7.108   3.398   0.523 -0.7372  0.2297 -0.0736
  158MOL    H4438038   6.889   3.342   0.265 -1.2884  0.0575  0.2934
  158MOL    H4538039   6.825   3.183   0.243  0.2470 -0.9094 -1.7830
  158MOL    H4638040   7.110   3.237   0.348 -0.2033  1.0302 -2.4390
  158MOL    H4738041   6.806   3.350   0.621 -0.2574  2.2677  0.4673
  158MOL    H4838042   6.907   3.495   0.621 -0.7332  0.0865 -1.3580
  158MOL    H4938043   6.923   3.367   0.746 -1.8707  1.2633  0.5436
  158MOL    C5038044   7.047   3.037   0.339  0.2118 -0.6685  0.2658
  158MOL    C5138045   6.923   2.939   0.365  0.1577  0.7925  0.6034
  158MOL    O5238046   6.935   2.817   0.302  0.5467 -0.1770  0.1642
  158MOL    C5338047   6.906   2.801   0.170 -0.9756  0.2967 -0.7252
  158MOL    C5438048   6.926   2.655   0.137 -0.2526 -0.2840 -0.1765
  158MOL    O5538049   6.865   2.889   0.088 -0.2745  0.2600 -0.2916
  158MOL    H5638050   7.103   3.016   0.248 -0.5324  0.1045 -0.3799
  158MOL    H5738051   7.118   3.007   0.416  1.2236 -2.5601 -1.3293
  158MOL    H5838052   6.849   2.999   0.313 -0.3076  0.9459  1.4330
  158MOL    H5938053   6.909   2.625   0.033 -0.8697  1.9516 -0.7508
  158MOL    H6038054   6.880   2.592   0.212  2.2805  0.7366  2.3252
  158MOL    H6138055   7.032   2.637   0.156 -0.2332  0.9810  0.9650
  158MOL    C6238056   6.887   2.917   0.511  0.4222 -0.2918  0.4973
  158MOL    C6338057   6.746   2.855   0.526  0.5657  0.2713 -0.1468
  158MOL    O6438058   6.762   2.711   0.543  0.2662 -0.2533  0.8683
  158MOL    C6538059   6.679   2.623   0.499  0.2839 -0.4856  0.2018
  158MOL    C6638060   6.716   2.482   0.551 -0.1353  0.1017  0.5622
  158MOL    O6738061   6.584   2.650   0.428 -0.5951  0.0618  0.1461
  158MOL    H6838062   6.965   2.847   0.539 -0.0991 -1.2008 -0.3007
  158MOL    H6938063   6.895   3.013   0.563  1.6086  0.9240 -1.8430
  158MOL    H7038064   6.681   2.880   0.443 -0.1171  0.0121  0.3014
  158MOL    H7138065   6.746   2.417   0.469  0.4528 -0.8615  1.5260
  158MOL    H7238066   6.630   2.431   0.595 -0.8101  2.6649  2.3538
  158MOL    H7338067   6.794   2.490   0.626  0.5696  1.8786 -0.3252
  158MOL    C7438068   6.661   2.911   0.653 -0.1061  0.1752  0.0720
  158MOL    C7538069   6.620   3.055   0.645  0.2065 -0.1338 -0.2147
  158MOL    O7638070   6.561   3.078   0.515 -0.0862 -0.0155  0.2434
  158MOL    C7738071   6.566   3.200   0.449 -0.0028  0.6117 -0.2167
  158MOL    C7838072   6.481   3.205   0.318  0.6397 -0.0663  0.0032
  158MOL    O7938073   6.618   3.303   0.493 -0.0050  0.2047  0.1646
  158MOL    H8038074   6.574   2.847   0.658  0.3724 -0.3870  1.2870
  158MOL    H8138075   6.721   2.885   0.740  3.0628 -0.2100 -2.0891
  158MOL    H8238076   6.714   3.109   0.656  0.0119  0.4290 -1.2498
  158MOL    H8338077   6.379   3.166   0.328  1.0113 -0.7235  1.4606
  158MOL    H8438078   6.537   3.144   0.247  0.8302  1.9531 -1.6125
  158MOL    H8538079   6.486   3.304   0.274  2.1082  0.2873  0.9251
  158MOL    C8638080   6.510   3.082   0.753  0.3378 -0.0087 -0.0249
  158MOL    C8738081   6.471   3.233   0.778 -0.2452 -0.1288  0.0932
  158MOL    O8838082   6.348   3.233   0.855 -0.2959 -0.7014 -0.0202
  158MOL    C8938083   6.253   3.326   0.814 -0.8112  0.7564 -0.0063
  158MOL    C9038084   6.122   3.309   0.883 -0.0132 -0.4296  0.0999
  158MOL    O9138085   6.266   3.426   0.752  0.1137 -0.1015 -0.7253
  158MOL    H9238086   6.428   3.026   0.706 -0.9206  0.5633  1.4459
  158MOL    H9338087   6.537   3.027   0.843 -0.7319  0.2319  0.4548
  158MOL    H9438088   6.451   3.273   0.678  1.7400 -1.1550 -0.7424
  158MOL    H9538089   6.090   3.205   0.880  0.6141 -0.5829 -1.4992
  158MOL    H9638090   6.050   3.368   0.827 -0.5279 -1.4052 -0.2753
  158MOL    H9738091   6.125   3.345   0.986 -0.4516  1.4587 -0.5255
  158MOL    C9838092   6.576   3.313   0.849  0.2597  0.4233  0.7026
  158MOL    C9938093   6.636   3.239   0.977 -0.7339  0.0391  0.0410
  158MOL   O10038094   6.767   3.194   0.932 -0.9279  0.0279  0.0306
  158MOL   C10138095   6.817   3.073   0.958 -0.1054 -0.2948 -0.1957
  158MOL   C10238096   6.958   3.053   0.894  0.0065 -0.4467  0.2936
  158MOL   O10338097   6.760   2.977   1.016  0.1509  0.2975 -0.2483
  158MOL   H10438098   6.640   3.341   0.765 -1.6143 -0.0637 -0.9237
  158MOL   H10538099   6.540   3.411   0.881  1.4402  1.2095 -0.3727
  158MOL   H10638100   6.570   3.155   0.995 -0.9831  0.3844  0.7270
  158MOL   H10738101   6.947   2.984   0.810  0.0503 -1.4440  1.0925
  158MOL   H10838102   7.013   2.997   0.970  2.0878  0.5669 -0.4238
  158MOL   H10938103   7.012   3.141   0.859  0.4901 -1.6745 -2.1643
  158MOL   C11038104   6.675   3.338   1.097 -0.5346 -0.0158  0.0888
  158MOL   C11138105   6.553   3.388   1.172 -0.3068 -0.2559 -0.1338
  158MOL   O11238106   6.520   3.265   1.238  0.0769  0.5409  0.0412
  158MOL   C11338107   6.391   3.220   1.241 -0.1069  0.2746 -0.4809
  158MOL   C11438108   6.362   3.095   1.321 -0.5025  0.5023 -0.1712
  158MOL   O11538109   6.300   3.286   1.196  0.7059  0.8948 -0.3415
  158MOL   H11638110   6.742   3.285   1.164 -0.2101 -0.1137 -0.3147
  158MOL   H11738111   6.729   3.425   1.062 -2.4301  0.8269 -0.8517
  158MOL   H11838112   6.481   3.435   1.106  0.3282  2.3794  0.9704
  158MOL   H11938113   6.409   3.014   1.265  1.7681  1.2557  0.5734
  158MOL   H12038114   6.255   3.084   1.340 -0.6571  0.2852 -1.1681
  158MOL   H12138115   6.420   3.100   1.414 -1.5969  0.4929  0.5178
  158MOL   C12238116   6.589   3.495   1.271  0.1841 -0.2079 -0.1286
  158MOL   C12338117   6.594   3.636   1.212  0.6677  0.4233  0.1779
  158MOL   O12438118   6.474   3.680   1.151  0.1589  0.1241  0.0355
  158MOL   C12538119   6.443   3.672   1.023  0.4361 -0.7621 -0.2517
  158MOL   C12638120   6.290   3.669   0.996  0.2911 -0.2444  0.5601
  158MOL   O12738121   6.525   3.646   0.936  0.1540 -0.4011  0.5667
  158MOL   H12838122   6.512   3.491   1.347 -0.2118  1.0218 -0.4477
  158MOL   H12938123   6.683   3.467   1.319  0.2332 -0.2136 -0.2264
  158MOL   H13038124   6.673   3.634   1.137 -0.2725  0.9526 -0.8454
  158MOL   H13138125   6.233   3.734   1.062 -0.6630 -0.3969 -0.1183
  158MOL   H13238126   6.256   3.570   1.029 -1.2834  0.2787  0.5034
  158MOL   H13338127   6.260   3.699   0.896 -4.0020 -0.4961  1.6941
  158MOL   C13438128   6.630   3.737   1.321 -0.4129  0.1438  0.4273
  158MOL   C13538129   6.627   3.883   1.280  0.2583 -0.1068  0.2589
  158MOL   O13638130   6.676   3.951   1.394 -0.3188  0.4067  0.3551
  158MOL   C13738131   6.607   4.070   1.441  0.0594  0.1838  0.0095
  158MOL   C13838132   6.671   4.136   1.556  0.2503  0.3287  0.3448
  158MOL   O13938133   6.509   4.117   1.387 -0.7181 -0.0024 -0.2931
  158MOL   H14038134   6.563   3.730   1.406 -0.0205 -0.6428  0.6775
  158MOL   H14138135   6.729   3.706   1.355 -1.4802 -1.7418  1.9482
  158MOL   H14238136   6.524   3.914   1.261  0.0935 -0.0371  1.2551
  158MOL   H14338137   6.587   4.171   1.617  1.1648  0.7467  1.3857
  158MOL   H14438138   6.717   4.231   1.529  0.1274  0.2401 -0.1818
  158MOL   H14538139   6.737   4.074   1.617  0.3059  0.9241  0.9006
  158MOL   C14638140   6.724   3.911   1.154 -0.0442 -1.0604  0.0111
  158MOL   C14738141   6.732   4.045   1.089  0.9748 -0.0188  0.2030
  158MOL   O14838142   6.828   4.119   1.163 -0.2180  0.2596  0.5029
  158MOL   C14938143   6.811   4.244   1.207 -1.0804  0.0814  0.6561
  158MOL   C15038144   6.925   4.285   1.301 -0.2985 -0.6460  0.2077
  158MOL   O15138145   6.718   4.316   1.174 -0.5353 -0.5971 -0.1076
  158MOL   H15238146   6.823   3.881   1.191 -0.1605 -1.4547  0.0111
  158MOL   H15338147   6.688   3.840   1.079  0.1587  0.6128 -1.6983
  158MOL   H15438148   6.635   4.091   1.107  1.2898  0.1501  1.5770
  158MOL   H15538149   7.016   4.325   1.257 -1.6114  2.3145  0.0369
  158MOL   H15638150   6.955   4.211   1.375 -0.4458  0.1180  1.0517
  158MOL   H15738151   6.886   4.366   1.363  0.8076 -0.3725  0.5618
  158MOL   C15838152   6.770   4.057   0.937  1.1389  0.5499 -0.4016
  158MOL   C15938153   6.903   3.984   0.898  0.1477 -0.1983 -0.1365
  158MOL   O16038154   6.866   3.846   0.866  0.5870  0.5033  0.1875
  158MOL   C16138155   6.944   3.742   0.915 -0.2985 -0.5279  0.2278
  158MOL   C16238156   6.878   3.609   0.910 -0.2535  0.1306  0.9237
  158MOL   O16338157   7.043   3.761   0.986  0.4378  0.0978 -0.2602
  158MOL   H16438158   6.696   4.014   0.869 -0.5235  2.6405  0.0259
  158MOL   H16538159   6.784   4.162   0.914  1.4302  0.7158  0.4967
  158MOL   H16638160   6.973   3.977   0.982 -0.0163  2.2644  0.2290
  158MOL   H16738161   6.898   3.532   0.983  2.4022 -1.0530 -0.9468
  158MOL   H16838162   6.911   3.560   0.818 -2.2007  1.6193 -0.6282
  158MOL   H16938163   6.771   3.624   0.897  0.0936  2.5415  0.5088
  158MOL   C17038164   6.962   4.049   0.768 -0.5884  0.0405 -0.1092
  158MOL   C17138165   6.922   3.981   0.631 -0.0121 -0.1081 -0.0551
  158MOL   O17238166   6.994   3.858   0.618  0.0560 -0.4482 -0.3806
  158MOL   C17338167   7.103   3.847   0.536 -0.2191 -0.0527  0.9701
  158MOL   C17438168   7.152   3.701   0.544  0.3436  0.1893  0.0461
  158MOL   O17538169   7.153   3.924   0.459  0.2246 -0.6791  0.0363
  158MOL   H17638170   6.943   4.156   0.755 -0.0101  0.1645  0.0774
  158MOL   H17738171   7.070   4.043   0.776 -0.2908  0.3133 -3.4174
  158MOL   H17838172   6.974   4.046   0.561 -0.9735 -0.5250 -1.1714
  158MOL   H17938173   7.077   3.632   0.505  0.4487  0.2485 -0.2654
  158MOL   H18038174   7.180   3.661   0.642  1.7801  0.4138 -0.2595
  158MOL   H18138175   7.246   3.688   0.490 -0.3872 -2.2317 -0.7157
  158MOL   C18238176   6.771   3.977   0.593  0.5479  0.6063  0.0046
  158MOL   C18338177   6.699   4.110   0.592 -0.1687  0.1683 -0.0620
  158MOL   O18438178   6.733   4.180   0.475  0.8445 -0.2550 -0.2370
  158MOL   C18538179   6.825   4.271   0.471  0.0106 -0.7083  0.6229
  158MOL   C18638180   6.813   4.340   0.330 -0.5262 -0.3752 -0.6143
  158MOL   O18738181   6.909   4.301   0.552 -0.2437  0.4484  0.0837
  158MOL   H18838182   6.766   3.944   0.489 -1.1236 -2.9510  1.1280
  158MOL   H18938183   6.716   3.905   0.655  1.9720  0.6514  1.3394
  158MOL   H19038184   6.720   4.163   0.684  1.9577 -1.5345  0.4862
  158MOL   H19138185   6.914   4.338   0.289 -0.1072 -0.8021  0.4071
  158MOL   H19238186   6.778   4.443   0.322  1.4839  0.2805 -1.4417
  158MOL   H19338187   6.752   4.274   0.268 -0.8275 -1.1805  0.5231
  158MOL   C19438188   6.547   4.084   0.582  0.0158 -0.5432  0.4715
  158MOL   C19538189   6.460   4.206   0.621  0.6544  0.0043  0.5633
  158MOL   O19638190   6.455   4.297   0.513 -0.0436  0.3099  0.1434
  158MOL   C19738191   6.513   4.420   0.521 -0.3738  0.4445 -1.1513
  158MOL   C19838192   6.473   4.504   0.404  0.8288 -0.8787 -0.4005
  158MOL   O19938193   6.580   4.460   0.620 -0.5605 -0.1792  0.4761
  158MOL   H20038194   6.522   4.046   0.482 -0.0891 -0.2887  0.4017
  158MOL   H20138195   6.506   4.004   0.644 -1.6265  0.6430  0.9387
  158MOL   H20238196   6.505   4.260   0.704  1.7987  0.8788 -0.6138
  158MOL   H20338197   6.552   4.491   0.330  1.4244  0.3545  0.0165
  158MOL   H20438198   6.458   4.605   0.440 -0.4439 -1.0541 -0.4008
  158MOL   H20538199   6.377   4.469   0.365 -1.4289  1.9512  2.3956
  158MOL   C20638200   6.311   4.170   0.649 -0.1228 -0.8724 -0.2764
  158MOL   C20738201   6.281   4.089   0.781 -0.3715 -0.2816  0.4270
  158MOL   O20838202   6.317   4.180   0.885  0.4640  0.1143 -0.2708
  158MOL   C20938203   6.380   4.132   0.987 -0.1006 -0.1100 -0.6883
  158MOL   C21038204   6.392   4.232   1.098  0.3235  0.2907 -0.7600
  158MOL   O21138205   6.415   4.016   1.015  0.7614  0.7668  0.0857
  158MOL   H21238206   6.247   4.257   0.655 -0.5635 -1.2678  0.8343
  158MOL   H21338207   6.274   4.112   0.564 -0.3990 -1.1859  0.0556
  158MOL   H21438208   6.343   3.999   0.779  0.6041  0.3821 -2.3793
  158MOL   H21538209   6.310   4.209   1.167 -0.0524 -1.8845 -1.8797
  158MOL   H21638210   6.380   4.337   1.072 -2.2338  0.1284 -0.4349
  158MOL   H21738211   6.490   4.226   1.144 -0.1131  0.2083  0.1744
  158MOL   C21838212   6.130   4.044   0.787  0.1686  0.0835  0.1347
  158MOL   C21938213   6.091   3.940   0.679  0.0168 -1.0504  0.0312
  158MOL   O22038214   6.174   3.827   0.682  0.0504  0.3755 -0.5612
  158MOL   C22138215   6.239   3.794   0.577  0.7299 -0.3020  0.2619
  158MOL   C22238216   6.354   3.703   0.610  0.4581 -0.7780 -0.0423
  158MOL   O22338217   6.216   3.838   0.463  0.3276 -0.2885  0.1845
  158MOL   H22438218   6.102   4.022   0.890  1.0804  2.0937  0.8601
  158MOL   H22538219   6.087   4.143   0.769 -2.6180 -0.8850  1.2825
  158MOL   H22638220   6.089   3.989   0.581  2.2059 -0.7788  0.0873
  158MOL   H22738221   6.439   3.734   0.550  0.0021  1.1135  0.2660
  158MOL   H22838222   6.324   3.607   0.568 -0.3680  0.2546 -1.8514
  158MOL   H22938223   6.361   3.708   0.719  0.0286  1.6247 -0.0984
  158MOL   C23038224   5.942   3.905   0.685 -0.2515 -0.4625  0.7765
  158MOL   C23138225   5.841   4.033   0.684  0.1364  0.3097 -0.4566
  158MOL   O23238226   5.711   3.984   0.697 -0.1513  0.3834 -0.4091
  158MOL   C23338227   5.646   3.994   0.818 -0.2279 -0.7161  0.1568
  158MOL   C23438228   5.527   3.896   0.831  0.6488 -0.2495 -0.6113
  158MOL   O23538229   5.688   4.059   0.914  0.1559 -0.2115  0.6082
  158MOL   H23638230   5.922   3.841   0.599 -2.8201 -2.2228  2.6042
  158MOL   H23738231   5.927   3.824   0.757 -0.3904 -1.6011 -0.5064
  158MOL   H23838232   5.843   4.089   0.591 -0.9006  0.5171 -0.3643
  158MOL   H23938233   5.443   3.941   0.884  0.1299 -2.2521  0.3356
  158MOL   H24038234   5.548   3.811   0.896 -3.9681 -1.0586 -0.0150
  158MOL   H24138235   5.505   3.854   0.732  0.4496  0.8396 -1.0351
  158MOL   H24238236   5.855   4.099   0.770  1.8866 -1.3830  0.5987
  159MOL     C138237   6.119   0.106   1.709 -0.6870 -0.0012  0.3592
  159MOL     C238238   5.989   0.140   1.781 -0.7130 -0.0418  0.1206
  159MOL     O338239   5.880   0.074   1.714  0.1122  1.0314  0.5628
  159MOL     C438240   5.761   0.136   1.681  0.1053 -0.2268 -0.5594
  159MOL     C538241   5.663   0.057   1.594 -0.2808  0.2929  0.7396
  159MOL     O638242   5.730   0.253   1.707  0.1784  0.1507  0.0935
  159MOL     H738243   6.160   0.005   1.719  2.2789  1.1193  0.0578
  159MOL     H838244   6.199   0.177   1.728 -0.8944  0.0362  1.1288
  159MOL     H938245   5.970   0.248   1.783 -0.9170 -0.1030  1.3420
  159MOL    H1038246   5.679   0.077   1.488  0.4035 -3.0350  0.1470
  159MOL    H1138247   5.560   0.085   1.615 -0.0323 -0.9566  3.8489
  159MOL    H1238248   5.673   7.971   1.611  3.3994  0.3604 -0.5647
  159MOL    H1338249   6.101   0.114   1.602  0.4555 -2.2299 -0.0398
  159MOL    C1438250   5.996   0.086   1.924 -0.1937  0.0323 -0.1057
  159MOL    C1538251   6.092   0.160   2.016 -0.9018  0.6933 -0.5141
  159MOL    O1638252   6.060   0.300   2.030 -0.1846  0.2751 -0.2628
  159MOL    C1738253   6.140   0.399   1.973  0.3540 -0.3378  0.3747
  159MOL    C1838254   6.106   0.531   2.033 -0.0596 -0.2134  0.7211
  159MOL    O1938255   6.230   0.374   1.894  0.4125 -0.2278 -0.1193
  159MOL    H2038256   5.896   0.089   1.967 -0.8206 -3.6226 -1.0876
  159MOL    H2138257   6.027   8.003   1.917  0.3546  0.1864  0.0574
  159MOL    H2238258   6.190   0.146   1.969 -1.4127 -1.0682 -1.0968
  159MOL    H2338259   6.188   0.590   2.073 -0.7524  3.0148 -2.3518
  159MOL    H2438260   6.047   0.512   2.122 -2.9305 -1.6204 -1.4191
  159MOL    H2538261   6.048   0.590   1.961 -1.6827 -1.1062  1.2676
  159MOL    C2638262   6.096   0.086   2.154 -0.0891  0.1326  0.1422
  159MOL    C2738263   6.205   0.130   2.254  0.0474 -0.0213  0.0873
  159MOL    O2838264   6.184   0.069   2.386  1.0303  0.2306  0.3196
  159MOL    C2938265   6.099   0.123   2.471 -0.4100 -0.2124  0.0279
  159MOL    C3038266   6.066   0.031   2.586 -0.1948 -0.1946  0.5531
  159MOL    O3138267   6.021   0.214   2.451 -0.4342  0.4944 -0.0862
  159MOL    H3238268   5.998   0.096   2.201  0.3203 -2.2433  1.6036
  159MOL    H3338269   6.122   8.002   2.155 -0.2162  0.0057 -3.5993
  159MOL    H3438270   6.192   0.237   2.266 -0.2871  0.1948 -2.0669
  159MOL    H3538271   6.126   7.962   2.575  0.2700  0.3876 -1.8247
  159MOL    H3638272   5.963   8.017   2.581 -0.0648 -0.5215  0.1598
  159MOL    H3738273   6.068   0.081   2.683 -1.0153 -1.5215  1.2635
  159MOL    C3838274   6.352   0.108   2.204  0.3640  0.0165 -0.1420
  159MOL    C3938275   6.426   0.230   2.148 -0.5950 -0.1434 -0.1468
  159MOL    O4038276   6.438   0.325   2.255  0.4326  0.3257 -0.1682
  159MOL    C4138277   6.462   0.452   2.234 -0.0107 -0.6979 -0.4289
  159MOL    C4238278   6.438   0.536   2.360 -0.6309 -0.1274 -0.5423
  159MOL    O4338279   6.488   0.499   2.121 -0.4192 -0.3440 -0.4769
  159MOL    H4438280   6.404   0.054   2.283  0.4210 -2.8346 -2.0853
  159MOL    H4538281   6.351   0.032   2.126  2.3519  1.2068 -1.3739
  159MOL    H4638282   6.361   0.274   2.072  0.3613 -0.1714 -0.9938
  159MOL    H4738283   6.400   0.638   2.345  0.0491  0.6069  2.4191
  159MOL    H4838284   6.528   0.567   2.413 -0.1971 -0.5516 -1.0194
  159MOL    H4938285   6.379   0.478   2.430 -1.8173 -0.4832 -1.8086
  159MOL    C5038286   6.569   0.188   2.085 -0.5593 -0.1946  0.4774
  159MOL    C5138287   6.573   0.163   1.934 -0.3456  0.3808  0.1329
  159MOL    O5238288   6.468   0.071   1.900  0.1290  0.1447  0.3241
  159MOL    C5338289   6.491   7.960   1.890 -0.5244 -0.0501 -0.1758
  159MOL    C5438290   6.360   7.876   1.888  0.4608 -0.3115 -0.4914
  159MOL    O5538291   6.604   7.908   1.888 -0.1017 -0.5951 -0.3093
  159MOL    H5638292   6.643   0.263   2.112  1.1861 -2.4522  2.2104
  159MOL    H5738293   6.605   0.098   2.134 -1.1621 -0.0511  1.2051
  159MOL    H5838294   6.673   0.132   1.903 -1.2137 -0.2286 -2.1305
  159MOL    H5938295   6.369   7.796   1.962 -0.1263 -1.5352 -1.7230
  159MOL    H6038296   6.344   7.826   1.793  0.9926 -2.0427  0.3016
  159MOL    H6138297   6.274   7.944   1.896  0.3904 -0.4353 -0.1861
  159MOL    C6238298   6.562   0.293   1.853  0.5210 -0.3149  0.2960
  159MOL    C6338299   6.556   0.272   1.696 -0.3140 -0.7690 -1.0044
  159MOL    O6438300   6.526   0.397   1.644  0.8541  0.4197  0.1323
  159MOL    C6538301   6.396   0.424   1.608  0.8326  0.1117 -0.2242
  159MOL    C6638302   6.376   0.577   1.602  0.2648  0.3647 -0.3773
  159MOL    O6738303   6.307   0.348   1.572 -0.4350 -0.0205 -0.4692
  159MOL    H6838304   6.478   0.345   1.898  1.6823  1.0554  0.8940
  159MOL    H6938305   6.647   0.357   1.875  0.4149 -0.0656 -0.0187
  159MOL    H7038306   6.479   0.198   1.676  0.7358 -2.1357 -0.0714
  159MOL    H7138307   6.474   0.617   1.573  0.3521  0.2578 -0.2296
  159MOL    H7238308   6.332   0.620   1.693  1.0631  0.9286 -0.2471
  159MOL    H7338309   6.319   0.609   1.515  1.7364 -1.6814 -2.1511
  159MOL    C7438310   6.695   0.236   1.643  0.2213 -0.0947  0.1265
  159MOL    C7538311   6.694   0.162   1.499 -0.1567  0.0612 -0.3857
  159MOL    O7638312   6.624   0.046   1.514 -0.4376  0.1921 -0.1574
  159MOL    C7738313   6.680   7.954   1.572 -0.5630 -0.2976  0.5857
  159MOL    C7838314   6.587   7.829   1.563 -0.1850 -0.4704 -0.3356
  159MOL    O7938315   6.796   7.946   1.627 -0.1422 -0.1266  0.4118
  159MOL    H8038316   6.743   0.333   1.628 -0.9295  0.6130  0.9028
  159MOL    H8138317   6.742   0.166   1.712 -1.4984 -0.9642  0.4380
  159MOL    H8238318   6.795   0.125   1.483 -0.6703 -1.2965 -0.5302
  159MOL    H8338319   6.486   7.848   1.527  0.1148  2.0509  0.0397
  159MOL    H8438320   6.561   7.778   1.655 -1.5027  0.6896 -0.0510
  159MOL    H8538321   6.644   7.759   1.502  0.9416  1.0822 -1.1180
  159MOL    C8638322   6.643   0.235   1.372 -0.8634  0.1728  0.1006
  159MOL    C8738323   6.695   0.167   1.241  0.2248 -0.3738  0.2117
  159MOL    O8838324   6.635   0.041   1.219 -0.2813  0.2225  0.6967
  159MOL    C8938325   6.708   7.958   1.194  0.1708  0.3001 -0.0856
  159MOL    C9038326   6.632   7.833   1.187  0.4693 -0.2165  0.1850
  159MOL    O9138327   6.829   7.954   1.171  0.1959 -0.5374  0.1575
  159MOL    H9238328   6.535   0.241   1.374 -1.0017 -1.2547 -1.8567
  159MOL    H9338329   6.684   0.336   1.371  2.4743 -0.9807  4.6861
  159MOL    H9438330   6.804   0.169   1.244  0.2377  3.4006 -0.8945
  159MOL    H9538331   6.529   7.867   1.174  0.6695  0.4594  0.3454
  159MOL    H9638332   6.632   7.778   1.281 -0.1797 -1.9487 -0.8068
  159MOL    H9738333   6.677   7.766   1.114  1.3784 -0.1043  0.6362
  159MOL    C9838334   6.652   0.266   1.124 -0.4725  0.0133 -0.3929
  159MOL    C9938335   6.502   0.275   1.099 -0.0741 -0.1252  0.2091
  159MOL   O10038336   6.450   0.402   1.137 -0.4189 -0.1115  0.4276
  159MOL   C10138337   6.329   0.419   1.192  0.3665 -0.8107 -0.1005
  159MOL   C10238338   6.271   0.561   1.207 -0.4128  0.4532  0.3060
  159MOL   O10338339   6.259   0.329   1.245  0.0146 -0.6908  0.9412
  159MOL   H10438340   6.700   0.363   1.137  2.2205 -1.2699 -0.4650
  159MOL   H10538341   6.700   0.223   1.037 -0.3648 -0.4825 -0.0913
  159MOL   H10638342   6.451   0.198   1.155 -0.4167  0.0822  0.1862
  159MOL   H10738343   6.163   0.570   1.217 -0.5353 -0.8425  0.2701
  159MOL   H10838344   6.289   0.616   1.115  1.4743  1.9976  1.5582
  159MOL   H10938345   6.322   0.609   1.291 -1.4771 -1.8936  2.3895
  159MOL   C11038346   6.452   0.248   0.950 -0.1907  0.0574  0.0600
  159MOL   C11138347   6.438   0.100   0.915 -0.5120  0.4800  0.3993
  159MOL   O11238348   6.565   0.034   0.901  0.4888 -0.5870  0.0017
  159MOL   C11338349   6.619   0.020   0.777 -0.6969 -0.6443 -0.2812
  159MOL   C11438350   6.761   7.981   0.791 -0.9841  0.4023 -0.4484
  159MOL   O11538351   6.561   0.034   0.671  0.2197 -0.1586  0.1486
  159MOL   H11638352   6.359   0.302   0.932  0.4155  1.3944  0.8464
  159MOL   H11738353   6.515   0.296   0.874 -1.2005  0.1666 -0.7169
  159MOL   H11838354   6.384   0.096   0.820  1.2067  1.0839 -0.6151
  159MOL   H11938355   6.804   7.987   0.891 -3.3070 -2.2630  0.7585
  159MOL   H12038356   6.833   0.002   0.721  2.0969 -0.7786  1.8463
  159MOL   H12138357   6.748   7.877   0.761 -0.4027 -0.5869  2.5532
  159MOL   C12238358   6.357   0.015   1.008  1.2092 -0.0083  0.8210
  159MOL   C12338359   6.280   7.927   0.932  0.2573 -0.2934  0.0775
  159MOL   O12438360   6.384   7.839   0.899 -0.0583  0.5608  0.0535
  159MOL   C12538361   6.388   7.763   0.786 -0.3453  0.0346 -0.2987
  159MOL   C12638362   6.519   7.688   0.769  0.2041 -0.0732 -0.3832
  159MOL   O12738363   6.303   7.767   0.695  0.7005 -0.7132 -0.5362
  159MOL   H12838364   6.408   7.991   1.093 -2.1151 -3.3961  1.1448
  159MOL   H12938365   6.276   0.075   1.051  0.7278 -0.7927  1.0221
  159MOL   H13038366   6.231   7.972   0.846 -0.7676 -1.0049  0.2795
  159MOL   H13138367   6.553   7.724   0.671  0.1408 -1.5594 -0.9651
  159MOL   H13238368   6.507   7.580   0.762 -0.3569 -0.0402  0.0673
  159MOL   H13338369   6.597   7.717   0.839 -1.1406  0.8656  0.7519
  159MOL   C13438370   6.168   7.855   1.016  0.3510 -0.1826 -0.2654
  159MOL   C13538371   6.214   7.785   1.150  0.0599  0.2383  0.2456
  159MOL   O13638372   6.272   7.871   1.246  0.1798 -0.1199 -0.3753
  159MOL   C13738373   6.198   7.956   1.326 -0.2004  0.3401 -0.0259
  159MOL   C13838374   6.288   0.025   1.395  0.5642  0.2275 -0.1484
  159MOL   O13938375   6.079   7.957   1.342 -0.1248 -0.5186  0.4147
  159MOL   H14038376   6.089   7.930   1.019  1.4178  1.0309 -2.1344
  159MOL   H14138377   6.123   7.779   0.952 -0.3157 -1.4700  1.6823
  159MOL   H14238378   6.297   7.720   1.123 -0.2435  0.1709 -0.5259
  159MOL   H14338379   6.386   0.034   1.347  0.5431 -0.9423 -0.4253
  159MOL   H14438380   6.306   0.005   1.501 -1.7173 -1.6308 -0.0771
  159MOL   H14538381   6.245   0.125   1.393 -1.7271 -0.7027  1.2061
  159MOL   C14638382   6.112   7.684   1.204 -0.5100 -0.0217 -0.6767
  159MOL   C14738383   6.158   7.588   1.319 -1.1850 -0.9199  0.2200
  159MOL   O14838384   6.104   7.640   1.440  0.0571  0.4715 -0.7810
  159MOL   C14938385   6.176   7.654   1.549  0.2532 -0.9239  0.2205
  159MOL   C15038386   6.100   7.718   1.660 -0.2321  0.1898 -0.1431
  159MOL   O15138387   6.282   7.606   1.570  0.5225  0.1524 -0.0140
  159MOL   H15238388   6.016   7.725   1.235 -0.2103 -0.6161  1.1223
  159MOL   H15338389   6.086   7.623   1.118 -2.5861 -0.4151  0.2040
  159MOL   H15438390   6.264   7.605   1.338 -1.3023  2.6544 -1.9252
  159MOL   H15538391   6.011   7.769   1.625 -1.5787  0.6576  3.6836
  159MOL   H15638392   6.161   7.786   1.719  2.1048 -1.9743  0.0411
  159MOL   H15738393   6.068   7.633   1.721 -0.8835 -0.2769 -1.1177
  159MOL   C15838394   6.127   7.436   1.298  0.2929 -0.4727  0.7020
  159MOL   C15938395   6.223   7.374   1.188  1.0438 -0.3382  0.2638
  159MOL   O16038396   6.347   7.356   1.249  0.1644 -0.2919 -0.2223
  159MOL   C16138397   6.449   7.446   1.211 -0.6433  0.2877 -0.1340
  159MOL   C16238398   6.553   7.459   1.327 -0.3916  0.0230 -0.4492
  159MOL   O16338399   6.453   7.523   1.112 -0.0026 -0.3027  0.3201
  159MOL   H16438400   6.141   7.375   1.388 -1.4892 -1.5612  0.2557
  159MOL   H16538401   6.021   7.427   1.274  0.9452  0.2913 -2.7727
  159MOL   H16638402   6.224   7.439   1.100  1.4131  1.4370  1.5570
  159MOL   H16738403   6.607   7.552   1.305  0.1361 -0.4794 -1.3030
  159MOL   H16838404   6.625   7.378   1.340  1.3465  1.0666 -3.0618
  159MOL   H16938405   6.494   7.464   1.418 -1.5565  0.6542 -1.2238
  159MOL   C17038406   6.177   7.235   1.141  0.0718  1.0596  0.1932
  159MOL   C17138407   6.069   7.238   1.030  0.3362  0.6545 -0.1111
  159MOL   O17238408   6.115   7.306   0.915 -0.0381 -0.7897 -0.1733
  159MOL   C17338409   6.072   7.421   0.867 -0.0706 -0.1730 -0.5444
  159MOL   C17438410   6.147   7.457   0.742 -0.0359 -0.6710  0.4001
  159MOL   O17538411   6.000   7.496   0.930  0.1417 -0.4310 -0.9273
  159MOL   H17638412   6.269   7.185   1.111  0.2765  1.0831  0.7777
  159MOL   H17738413   6.143   7.182   1.230  0.8342 -1.3763 -0.9279
  159MOL   H17838414   5.989   7.295   1.076 -0.3099  0.1746 -0.6414
  159MOL   H17938415   6.086   7.459   0.651 -1.1600  1.0803  1.1592
  159MOL   H18038416   6.226   7.386   0.720 -0.3432 -0.7026 -0.6375
  159MOL   H18138417   6.194   7.553   0.762 -0.6149 -0.4313  0.6045
  159MOL   C18238418   6.032   7.096   0.983 -0.1024  0.2512 -0.0019
  159MOL   C18338419   5.965   7.008   1.089 -0.2097  0.2673  0.1548
  159MOL   O18438420   5.852   7.078   1.138 -0.1635 -0.9645  0.4588
  159MOL   C18538421   5.834   7.112   1.267 -0.4690 -0.3392 -0.1041
  159MOL   C18638422   5.708   7.194   1.293 -0.5891 -0.3672 -0.2433
  159MOL   O18738423   5.917   7.098   1.356  0.0654  0.4536 -0.4744
  159MOL   H18838424   5.949   7.102   0.912  1.6476  0.1209 -2.0886
  159MOL   H18938425   6.106   7.054   0.916 -1.1251 -1.0122 -0.3643
  159MOL   H19038426   6.038   7.006   1.170  0.2094  0.3445 -0.2146
  159MOL   H19138427   5.659   7.218   1.199 -1.5239 -0.0657  0.3184
  159MOL   H19238428   5.735   7.282   1.351  2.1227  0.2637 -2.3451
  159MOL   H19338429   5.642   7.124   1.345  2.0018 -0.2227  3.4691
  159MOL   C19438430   5.937   6.863   1.050  0.4815  0.6636  0.0134
  159MOL   C19538431   6.045   6.773   0.990 -0.6176 -0.1735  0.0003
  159MOL   O19638432   6.130   6.711   1.076 -0.1656  0.0155 -0.1160
  159MOL   C19738433   6.242   6.784   1.126  0.6254  0.6140  0.6899
  159MOL   C19838434   6.312   6.724   1.252  0.3873  0.8943  0.4366
  159MOL   O19938435   6.279   6.893   1.080 -0.1624  0.6541 -0.1094
  159MOL   H20038436   5.905   6.820   1.145  2.1421 -0.3732  0.1182
  159MOL   H20138437   5.854   6.868   0.980  0.9889  0.5711 -0.6002
  159MOL   H20238438   6.112   6.830   0.924  0.4789 -0.1648  1.0977
  159MOL   H20338439   6.407   6.770   1.278 -0.0121  0.3631  3.0295
  159MOL   H20438440   6.354   6.625   1.232 -0.0077  0.7803  0.1553
  159MOL   H20538441   6.256   6.723   1.346  2.1987  0.9856  1.5395
  159MOL   C20638442   5.978   6.658   0.918 -0.6828  0.6398  0.5727
  159MOL   C20738443   6.059   6.602   0.798  0.3456  0.1342 -0.1586
  159MOL   O20838444   5.963   6.519   0.737 -0.8655  1.4037 -0.3614
  159MOL   C20938445   5.989   6.401   0.683  0.9379 -0.2050 -0.0381
  159MOL   C21038446   5.865   6.340   0.624  0.1715  0.2524  0.6221
  159MOL   O21138447   6.098   6.354   0.663  0.1659 -0.6446  0.3558
  159MOL   H21238448   5.944   6.581   0.987 -1.0475 -0.2907 -0.6177
  159MOL   H21338449   5.882   6.688   0.875 -1.0760  0.2190  1.1544
  159MOL   H21438450   6.155   6.563   0.831  2.5608  4.0772 -1.5340
  159MOL   H21538451   5.801   6.415   0.577  0.2836  0.2481  0.4616
  159MOL   H21638452   5.818   6.298   0.713  0.2961  0.0501  0.5923
  159MOL   H21738453   5.879   6.252   0.562 -1.5899 -1.1836  2.2076
  159MOL   C21838454   6.091   6.708   0.688  0.2375 -0.4546  0.0103
  159MOL   C21938455   6.148   6.663   0.555 -0.0790  0.0717 -0.4282
  159MOL   O22038456   6.157   6.766   0.452 -0.1202 -0.9076  0.0742
  159MOL   C22138457   6.049   6.801   0.379 -0.3750  0.3734  0.5554
  159MOL   C22238458   6.074   6.925   0.302 -0.0486 -0.3990 -0.5784
  159MOL   O22338459   5.931   6.755   0.384  0.0191 -0.3676 -0.3029
  159MOL   H22438460   5.997   6.763   0.675  2.0807  3.0965  1.0496
  159MOL   H22538461   6.166   6.779   0.723 -0.4614  0.4164 -0.2162
  159MOL   H22638462   6.087   6.580   0.519  1.3996 -0.6821 -1.2393
  159MOL   H22738463   5.996   7.000   0.290 -0.4050 -0.7338 -0.3639
  159MOL   H22838464   6.101   6.898   0.200  0.5732  1.7426 -1.0006
  159MOL   H22938465   6.154   6.978   0.353  0.1147 -2.0946  0.9952
  159MOL   C23038466   6.290   6.600   0.565 -0.4343 -0.1256 -0.2741
  159MOL   C23138467   6.350   6.569   0.422 -0.1491  0.0418  0.5555
  159MOL   O23238468   6.474   6.502   0.442  0.3302  0.1936 -0.4690
  159MOL   C23338469   6.590   6.561   0.462 -0.3630 -0.3549 -0.1634
  159MOL   C23438470   6.711   6.483   0.423 -0.2832  0.3046 -0.1331
  159MOL   O23538471   6.594   6.664   0.527  0.4551 -0.1763 -0.0735
  159MOL   H23638472   6.354   6.678   0.606  0.4938 -0.3854 -1.2112
  159MOL   H23738473   6.290   6.510   0.627 -1.3905 -0.5644 -0.9019
  159MOL   H23838474   6.368   6.662   0.369  0.5868 -0.7815 -0.6768
  159MOL   H23938475   6.763   6.420   0.494 -0.8250 -1.0291 -0.8915
  159MOL   H24038476   6.785   6.553   0.383  0.9196 -1.1492 -0.4892
  159MOL   H24138477   6.682   6.409   0.348 -0.0794  0.7462 -0.6502
  159MOL   H24238478   6.286   6.494   0.376 -1.0203 -0.9761  3.3038
  160MOL     C138479   4.683   5.416   3.739  0.5687  0.4239  0.1850
  160MOL     C238480   4.646   5.280   3.791 -0.5274  0.3090  0.1582
  160MOL     O338481   4.531   5.270   3.870 -0.2708  0.7100  0.1975
  160MOL     C438482   4.537   5.295   4.001  0.2814  0.1003 -0.4088
  160MOL     C538483   4.402   5.304   4.068  0.1698 -0.8030  0.3915
  160MOL     O638484   4.641   5.293   4.065 -0.2394  0.2087 -0.0502
  160MOL     H738485   4.607   5.455   3.671  0.8479  1.5588  0.5124
  160MOL     H838486   4.779   5.412   3.689  1.7019 -0.2623  2.3616
  160MOL     H938487   4.734   5.247   3.847 -1.1320  1.2137  1.6807
  160MOL    H1038488   4.420   5.363   4.159 -1.9787  0.0644  0.2909
  160MOL    H1138489   4.357   5.208   4.095 -0.6871 -0.5933 -0.2580
  160MOL    H1238490   4.325   5.358   4.013  1.4093  0.8431  0.2283
  160MOL    H1338491   4.703   5.483   3.823 -0.8154 -1.1328  1.8015
  160MOL    C1438492   4.607   5.186   3.679 -0.1003  0.5161  0.1418
  160MOL    C1538493   4.585   5.037   3.729  0.2911 -0.1347 -0.0872
  160MOL    O1638494   4.446   4.998   3.708 -0.1443 -0.4593 -0.3455
  160MOL    C1738495   4.363   4.970   3.811  0.1455  0.1835 -0.0774
  160MOL    C1838496   4.236   4.906   3.764  0.3073  0.1374 -0.2081
  160MOL    O1938497   4.397   4.994   3.925 -0.4654 -0.7922  0.5774
  160MOL    H2038498   4.517   5.224   3.632  0.2060 -0.5218 -1.3317
  160MOL    H2138499   4.689   5.196   3.608 -0.5645 -1.5304 -0.7203
  160MOL    H2238500   4.615   5.035   3.834  0.0012  1.0224  0.0259
  160MOL    H2338501   4.270   4.816   3.714  1.8663  0.4982  0.1752
  160MOL    H2438502   4.178   4.968   3.695 -0.7982 -1.0015 -0.3319
  160MOL    H2538503   4.163   4.878   3.840 -0.3932  1.6558 -0.3005
  160MOL    C2638504   4.648   4.933   3.641  0.4457 -0.2250  0.3175
  160MOL    C2738505   4.677   4.801   3.697 -0.0399  0.2491  0.2893
  160MOL    O2838506   4.735   4.817   3.821 -0.0451  0.8580 -0.8520
  160MOL    C2938507   4.856   4.792   3.850 -0.7971 -0.2763 -0.3349
  160MOL    C3038508   4.888   4.803   3.998 -0.4235  0.1422 -0.0985
  160MOL    O3138509   4.944   4.761   3.771 -0.3529 -0.7536 -0.0575
  160MOL    H3238510   4.593   4.941   3.547  1.0739 -0.4162 -0.0652
  160MOL    H3338511   4.747   4.970   3.615  0.0481  0.5302 -0.1603
  160MOL    H3438512   4.747   4.767   3.620 -0.0470 -0.2440  0.5016
  160MOL    H3538513   4.824   4.876   4.049  0.5591 -0.4675  2.0728
  160MOL    H3638514   4.989   4.841   4.010 -0.6763  0.3901  1.2868
  160MOL    H3738515   4.876   4.705   4.043 -1.4908 -0.1552 -1.0034
  160MOL    C3838516   4.561   4.711   3.690  0.5205  0.2652 -0.6829
  160MOL    C3938517   4.591   4.572   3.633 -0.2422  0.5718 -0.9236
  160MOL    O4038518   4.674   4.505   3.724 -0.6583  0.1946  0.0481
  160MOL    C4138519   4.767   4.408   3.684  0.6171 -0.2680 -0.1684
  160MOL    C4238520   4.822   4.325   3.800  0.0504  0.0315 -1.0182
  160MOL    O4338521   4.789   4.381   3.565 -0.6138  0.2081 -0.0168
  160MOL    H4438522   4.523   4.698   3.791  0.7830  0.3778 -0.5704
  160MOL    H4538523   4.482   4.758   3.630  0.7720  0.2238 -1.0459
  160MOL    H4638524   4.657   4.587   3.548  1.5132  1.9903  0.6393
  160MOL    H4738525   4.747   4.266   3.853  0.3147  2.5026  2.2705
  160MOL    H4838526   4.862   4.388   3.880  0.8215 -1.5906 -0.0858
  160MOL    H4938527   4.897   4.251   3.771 -0.6870 -0.5528 -1.4510
  160MOL    C5038528   4.457   4.493   3.613  0.3677  0.2729 -0.4424
  160MOL    C5138529   4.464   4.383   3.501  1.0390  1.2746 -0.2210
  160MOL    O5238530   4.334   4.323   3.492  0.0387 -0.3728 -0.1943
  160MOL    C5338531   4.311   4.210   3.554 -0.2256  0.0484 -0.0748
  160MOL    C5438532   4.171   4.160   3.528 -0.2706  0.0188 -0.3623
  160MOL    O5538533   4.394   4.152   3.628  0.4654 -0.1274  0.0663
  160MOL    H5638534   4.432   4.447   3.709  0.0397 -0.1629 -0.7334
  160MOL    H5738535   4.369   4.554   3.595 -2.4847 -3.2465  0.8130
  160MOL    H5838536   4.550   4.322   3.525  0.4016  0.9808  1.3947
  160MOL    H5938537   4.183   4.053   3.509  1.0249  0.5272 -2.5363
  160MOL    H6038538   4.141   4.200   3.431 -2.0181 -2.1419 -0.7711
  160MOL    H6138539   4.105   4.179   3.613 -0.8812 -0.8732 -0.6306
  160MOL    C6238540   4.494   4.425   3.352  0.1484 -0.6723 -0.6689
  160MOL    C6338541   4.405   4.544   3.299  0.0845  0.8625  0.3077
  160MOL    O6438542   4.492   4.608   3.202  0.3815 -0.3851 -0.3769
  160MOL    C6538543   4.557   4.723   3.242  0.4566 -0.8530 -0.3146
  160MOL    C6638544   4.645   4.794   3.137  0.0576  0.3299  0.2374
  160MOL    O6738545   4.564   4.759   3.356  0.0652  0.0025 -0.8789
  160MOL    H6838546   4.594   4.467   3.365 -0.6047  1.6367 -2.0092
  160MOL    H6938547   4.503   4.336   3.289  1.9059  0.2408 -1.7730
  160MOL    H7038548   4.365   4.607   3.379  0.4697  1.6968 -0.1460
  160MOL    H7138549   4.619   4.899   3.151 -0.3384 -0.0314  2.4860
  160MOL    H7238550   4.609   4.781   3.035  0.4210  0.8670  0.0383
  160MOL    H7338551   4.751   4.782   3.157  0.0438  1.6781  1.1985
  160MOL    C7438552   4.276   4.486   3.231  0.3130  0.1070  0.5440
  160MOL    C7538553   4.177   4.591   3.180  0.2082  0.1797 -0.3302
  160MOL    O7638554   4.224   4.649   3.060  0.2755  0.3680 -0.4705
  160MOL    C7738555   4.206   4.777   3.024 -0.2415  0.8236 -0.1213
  160MOL    C7838556   4.286   4.816   2.903  0.2158 -0.4174  0.2301
  160MOL    O7938557   4.143   4.857   3.090 -0.5680 -0.3170 -0.5023
  160MOL    H8038558   4.289   4.416   3.148  0.6929  1.0622 -0.2071
  160MOL    H8138559   4.222   4.434   3.310  0.2513  0.0942  0.4929
  160MOL    H8238560   4.162   4.669   3.254  1.3630  1.9372 -1.9269
  160MOL    H8338561   4.366   4.883   2.934  2.9857 -2.5785 -2.0202
  160MOL    H8438562   4.233   4.866   2.822 -1.6688 -2.4390  0.1733
  160MOL    H8538563   4.323   4.726   2.854 -1.6293 -1.8194  1.3287
  160MOL    C8638564   4.041   4.528   3.151  0.1166  0.2028  0.5562
  160MOL    C8738565   3.957   4.494   3.281  0.1986 -0.3191  0.1062
  160MOL    O8838566   3.924   4.613   3.354  0.3414 -0.0054 -0.0375
  160MOL    C8938567   3.995   4.650   3.467 -0.3296  0.2891  0.1566
  160MOL    C9038568   3.928   4.750   3.554  0.0740  0.1200 -0.7791
  160MOL    O9138569   4.098   4.590   3.504  0.1263  0.2861 -0.0191
  160MOL    H9238570   3.983   4.604   3.098 -2.2937 -1.9891 -0.0775
  160MOL    H9338571   4.052   4.437   3.091 -3.1274 -0.3834  0.7463
  160MOL    H9438572   4.027   4.434   3.339 -1.7554  0.3062  3.2554
  160MOL    H9538573   3.893   4.703   3.646 -0.6719  0.5022 -0.8631
  160MOL    H9638574   3.846   4.793   3.496  1.0904  2.1970 -0.7196
  160MOL    H9738575   4.002   4.826   3.578  0.0763  0.1952 -1.0237
  160MOL    C9838576   3.829   4.409   3.259 -0.0308 -0.4377 -0.1081
  160MOL    C9938577   3.827   4.277   3.179 -0.4686 -0.0462  0.3670
  160MOL   O10038578   3.859   4.307   3.041  0.0961  0.0075  0.4859
  160MOL   C10138579   3.764   4.291   2.947  0.1201 -0.2116 -0.3931
  160MOL   C10238580   3.823   4.307   2.810 -0.1044  0.8980  0.5319
  160MOL   O10338581   3.647   4.263   2.958  0.0214  0.0042 -0.7370
  160MOL   H10438582   3.773   4.390   3.350 -1.2060  1.1604 -0.4688
  160MOL   H10538583   3.765   4.481   3.207  1.3437  1.5321  0.8557
  160MOL   H10638584   3.726   4.235   3.179 -0.7400  0.5897 -0.1154
  160MOL   H10738585   3.748   4.356   2.747  1.2684  3.4113  0.8057
  160MOL   H10838586   3.835   4.208   2.767  1.3194  1.0247  0.6269
  160MOL   H10938587   3.910   4.371   2.797 -0.0185  0.5170 -0.9137
  160MOL   C11038588   3.929   4.179   3.233  0.4737  0.0773  0.2797
  160MOL   C11138589   3.896   4.037   3.216 -0.5072  0.7458  0.0344
  160MOL   O11238590   3.764   4.008   3.254 -0.4664 -0.3420 -0.2094
  160MOL   C11338591   3.734   3.884   3.304 -0.1786 -0.1731  0.6582
  160MOL   C11438592   3.577   3.880   3.312 -1.4694  0.3114 -0.0227
  160MOL   O11538593   3.803   3.783   3.318 -0.2713 -0.8203 -0.3375
  160MOL   H11638594   4.025   4.207   3.190 -1.1786  2.0515 -2.2689
  160MOL   H11738595   3.938   4.204   3.338 -0.5927  0.7888  0.2075
  160MOL   H11838596   3.959   3.975   3.280 -2.3253 -0.5166  0.6707
  160MOL   H11938597   3.531   3.915   3.404  0.4587  0.6953  0.8282
  160MOL   H12038598   3.549   3.774   3.309 -0.8724  0.1617 -0.4771
  160MOL   H12138599   3.538   3.933   3.225 -1.1648  2.0703  0.9018
  160MOL   C12238600   3.910   3.986   3.073  0.3381 -0.2207 -1.0919
  160MOL   C12338601   4.055   3.968   3.019 -0.1845  0.2900  1.2476
  160MOL   O12438602   4.091   4.095   2.980  0.0817  0.3584  0.2192
  160MOL   C12538603   4.128   4.118   2.852  0.9767 -0.5578  0.4408
  160MOL   C12638604   4.182   4.259   2.833 -0.1849  0.4056  0.1130
  160MOL   O12738605   4.114   4.034   2.759 -0.0291 -0.4762  0.5079
  160MOL   H12838606   3.881   3.882   3.063  1.8867 -0.7777  0.0230
  160MOL   H12938607   3.848   4.035   2.998 -1.0463  0.3183  0.3981
  160MOL   H13038608   4.053   3.893   2.940 -0.3656  0.0845  1.4458
  160MOL   H13138609   4.270   4.276   2.894  1.0376  1.1419 -1.8016
  160MOL   H13238610   4.109   4.328   2.875  0.2810  0.4399  0.8636
  160MOL   H13338611   4.191   4.294   2.730 -0.6048 -0.3574 -0.1881
  160MOL   C13438612   4.162   3.915   3.118 -0.0588  0.2383 -0.7270
  160MOL   C13538613   4.305   3.905   3.060  0.8177 -0.1934 -0.2825
  160MOL   O13638614   4.404   3.898   3.166  0.0030  0.0865  0.5633
  160MOL   C13738615   4.454   4.011   3.214 -0.1836  0.2331  0.1523
  160MOL   C13838616   4.557   3.997   3.320 -0.6078  0.2262 -0.0051
  160MOL   O13938617   4.430   4.127   3.176 -0.1368 -0.0700 -0.3797
  160MOL   H14038618   4.165   3.988   3.199 -3.5745  0.1162 -0.3839
  160MOL   H14138619   4.141   3.827   3.179 -0.0586  0.6513 -0.1351
  160MOL   H14238620   4.316   3.996   3.001 -1.0302 -0.4418 -1.0291
  160MOL   H14338621   4.646   4.047   3.282 -1.3626 -0.0377 -2.1917
  160MOL   H14438622   4.575   3.891   3.341  3.1500  0.9936  1.0284
  160MOL   H14538623   4.509   4.054   3.399  2.0021  1.4243  0.7665
  160MOL   C14638624   4.321   3.788   2.965 -0.6449 -0.4910  0.1348
  160MOL   C14738625   4.467   3.795   2.905 -0.7107  0.1703 -0.1300
  160MOL   O14838626   4.489   3.665   2.839 -0.3800  0.1400  0.1683
  160MOL   C14938627   4.609   3.605   2.843 -0.5162 -0.5376 -0.2821
  160MOL   C15038628   4.611   3.453   2.804  0.3136  0.0187 -0.0126
  160MOL   O15138629   4.713   3.659   2.877 -0.1022  0.3805  0.3360
  160MOL   H15238630   4.307   3.698   3.024  1.7351 -0.1811  1.2363
  160MOL   H15338631   4.244   3.776   2.888  0.7497 -3.0661 -0.9149
  160MOL   H15438632   4.530   3.797   2.993 -0.7235 -2.1366 -0.0444
  160MOL   H15538633   4.591   3.441   2.697 -2.1710  0.3416  0.3930
  160MOL   H15638634   4.529   3.404   2.856 -0.9768  0.1370 -1.8825
  160MOL   H15738635   4.711   3.411   2.816  0.8135  1.0721 -0.3635
  160MOL   C15838636   4.479   3.900   2.796 -0.2634 -0.1460 -0.2391
  160MOL   C15938637   4.594   4.009   2.827  0.2717  1.5740 -0.0624
  160MOL   O16038638   4.724   3.939   2.826  0.2928 -0.1144 -0.4367
  160MOL   C16138639   4.804   3.955   2.933 -0.4062  0.0321  0.1038
  160MOL   C16238640   4.939   3.897   2.920  0.0561 -0.0564 -0.1124
  160MOL   O16338641   4.768   4.013   3.033 -0.2327  0.2685  0.3456
  160MOL   H16438642   4.501   3.858   2.698  1.9018  1.4586 -0.4718
  160MOL   H16538643   4.381   3.945   2.776  0.3118  0.7512 -1.0632
  160MOL   H16638644   4.572   4.049   2.926 -2.4246 -0.7050  0.3144
  160MOL   H16738645   4.961   3.795   2.952  1.3900  0.4007  0.4562
  160MOL   H16838646   5.008   3.963   2.973  1.4100 -0.9331 -0.7724
  160MOL   H16938647   4.974   3.895   2.817  1.6358 -1.3581  0.4175
  160MOL   C17038648   4.590   4.123   2.714 -0.0685  0.3361 -0.2408
  160MOL   C17138649   4.685   4.245   2.734  0.5095 -0.1699 -0.7610
  160MOL   O17238650   4.688   4.324   2.620 -1.1353  0.3213 -0.4119
  160MOL   C17338651   4.797   4.320   2.541 -0.5134 -0.4033  0.1279
  160MOL   C17438652   4.769   4.424   2.432 -0.8313  0.3185  0.0781
  160MOL   O17538653   4.909   4.258   2.555 -0.2194 -0.2084  0.0792
  160MOL   H17638654   4.618   4.079   2.619  0.3983 -1.9972  0.9379
  160MOL   H17738655   4.487   4.154   2.697 -0.7148 -1.2524  0.6596
  160MOL   H17838656   4.783   4.198   2.742  1.6776  2.4444  0.8272
  160MOL   H17938657   4.804   4.523   2.458  0.4724  0.0321 -0.5837
  160MOL   H18038658   4.664   4.439   2.406 -1.1037 -1.5626 -0.0257
  160MOL   H18138659   4.817   4.400   2.337  2.8713  0.9209  1.7261
  160MOL   C18238660   4.666   4.332   2.864 -0.5124  0.3838 -0.9786
  160MOL   C18338661   4.793   4.341   2.955  0.2566 -0.6423  0.1305
  160MOL   O18438662   4.904   4.380   2.874 -0.0981 -0.4347 -0.3387
  160MOL   C18538663   5.023   4.322   2.893 -0.0025 -0.4615  0.4374
  160MOL   C18638664   5.122   4.382   2.797 -0.2491  0.7069  0.0566
  160MOL   O18738665   5.041   4.226   2.970 -0.3869 -0.1541 -0.2590
  160MOL   H18838666   4.639   4.433   2.835 -1.9580 -0.7819 -3.9521
  160MOL   H18938667   4.585   4.296   2.927 -0.9504 -0.3004 -1.9077
  160MOL   H19038668   4.806   4.240   2.994  4.0222  0.1475  1.1356
  160MOL   H19138669   5.094   4.359   2.694 -1.8204 -0.4811  0.7185
  160MOL   H19238670   5.216   4.328   2.807 -1.1591 -0.6355  1.5637
  160MOL   H19338671   5.134   4.487   2.823 -1.0168  0.5954  0.9062
  160MOL   C19438672   4.772   4.441   3.070  0.2852 -0.0068 -0.0514
  160MOL   C19538673   4.881   4.416   3.184  0.4986 -0.3173 -0.6584
  160MOL   O19638674   4.873   4.526   3.278 -0.1897  0.8531  0.3548
  160MOL   C19738675   4.957   4.634   3.283 -0.1835  0.1199  0.2710
  160MOL   C19838676   4.933   4.719   3.407 -0.0456  0.0765 -0.5280
  160MOL   O19938677   5.048   4.660   3.202 -0.2072  0.4523  0.3611
  160MOL   H20038678   4.760   4.546   3.042 -1.1983  0.4021  2.0534
  160MOL   H20138679   4.674   4.431   3.115 -0.6193  0.6583 -1.8266
  160MOL   H20238680   4.978   4.405   3.135  0.2253 -0.8180 -1.0998
  160MOL   H20338681   5.019   4.720   3.475  0.8307  2.5097 -1.6106
  160MOL   H20438682   4.839   4.693   3.456  0.6588  0.9038  1.3349
  160MOL   H20538683   4.931   4.824   3.378 -0.6392  0.4069  0.6619
  160MOL   C20638684   4.860   4.283   3.256 -0.7652  0.0465 -0.0976
  160MOL   C20738685   5.000   4.233   3.309  0.6895  0.7809 -0.6397
  160MOL   O20838686   5.047   4.327   3.408  0.2815 -0.6666 -0.3382
  160MOL   C20938687   5.172   4.362   3.409  0.0006 -0.5262 -0.3123
  160MOL   C21038688   5.203   4.481   3.498  0.0761 -0.2337  0.3469
  160MOL   O21138689   5.261   4.313   3.352  0.3854  0.2822 -0.1876
  160MOL   H21238690   4.784   4.304   3.332 -1.3817  0.7692 -0.9110
  160MOL   H21338691   4.829   4.206   3.186  0.6808 -0.1820 -0.4958
  160MOL   H21438692   5.066   4.220   3.223  1.4485  3.2173 -0.4662
  160MOL   H21538693   5.237   4.569   3.443 -2.5829  0.8325  0.3227
  160MOL   H21638694   5.291   4.458   3.558  0.4008 -0.9663 -0.3996
  160MOL   H21738695   5.119   4.517   3.558  1.7892  1.0302  2.0659
  160MOL   C21838696   4.987   4.093   3.365  0.5806 -0.1311  0.3231
  160MOL   C21938697   5.112   4.027   3.432 -0.3593 -0.1310  0.7529
  160MOL   O22038698   5.068   3.945   3.537  0.2238 -0.1593 -0.2118
  160MOL   C22138699   5.128   3.960   3.657 -0.0330 -0.2187 -0.9696
  160MOL   C22238700   5.034   3.931   3.779 -0.4336  0.0119  0.2625
  160MOL   O22338701   5.243   3.998   3.677 -0.8943  0.0345  0.3775
  160MOL   H22438702   4.893   4.087   3.420  0.3265 -0.5549 -0.1535
  160MOL   H22538703   4.967   4.035   3.275  1.3921 -0.1278  0.1342
  160MOL   H22638704   5.173   4.111   3.468  1.4557 -1.8736  1.8273
  160MOL   H22738705   4.938   3.893   3.745 -0.4422  0.3289 -0.0627
  160MOL   H22838706   5.021   4.023   3.835 -1.8670  0.3173 -0.5454
  160MOL   H22938707   5.078   3.862   3.852 -0.7622 -0.0079  0.4418
  160MOL   C23038708   5.208   3.948   3.336 -0.0688  0.2116 -0.0880
  160MOL   C23138709   5.235   3.997   3.190 -0.4457 -0.4500 -0.8627
  160MOL   O23238710   5.320   3.903   3.121  0.1447  0.2921  0.3872
  160MOL   C23338711   5.262   3.793   3.072  0.3200  0.5532 -0.4651
  160MOL   C23438712   5.337   3.723   2.963  0.0546 -0.7892  0.0210
  160MOL   O23538713   5.155   3.747   3.107  0.0065  0.1114  0.3319
  160MOL   H23638714   5.301   3.941   3.392  0.5313 -1.8383 -1.3049
  160MOL   H23738715   5.164   3.849   3.332 -0.4311  0.3902 -0.6227
  160MOL   H23838716   5.298   4.086   3.200 -2.6625  1.2070 -1.0720
  160MOL   H23938717   5.373   3.623   2.988  0.4608 -0.5552  0.3736
  160MOL   H24038718   5.427   3.780   2.939 -0.4501  0.2143  0.5051
  160MOL   H24138719   5.278   3.703   2.874  0.3812 -1.2622 -0.0938
  160MOL   H24238720   5.145   4.029   3.137 -0.7659  0.9698  0.4863
  161MOL     C138721   5.926   3.664   4.655 -0.1222 -0.0316 -0.0468
  161MOL     C238722   6.003   3.790   4.602 -0.2366 -0.8680  0.6135
  161MOL     O338723   5.895   3.862   4.549  0.6112 -0.2791 -0.0282
  161MOL     C438724   5.916   3.935   4.432  0.7007 -0.2957 -0.6962
  161MOL     C538725   5.785   4.001   4.382 -0.4509  0.3529  0.2876
  161MOL     O638726   6.020   3.949   4.375 -0.0353  0.1785  0.0457
  161MOL     H738727   5.850   3.680   4.732 -1.0511 -0.7106 -0.8153
  161MOL     H838728   5.994   3.587   4.691 -1.6207 -0.9542  0.8873
  161MOL     H938729   6.082   3.755   4.535  2.3861  1.0512  2.5755
  161MOL    H1038730   5.702   3.955   4.437  1.1749 -1.2454  1.4373
  161MOL    H1138731   5.771   3.988   4.275  0.7035  3.3930 -0.2829
  161MOL    H1238732   5.767   4.108   4.394 -0.9244  0.6299 -2.6724
  161MOL    H1338733   5.856   3.619   4.585 -0.4976  0.1895  0.1805
  161MOL    C1438734   6.058   3.879   4.717  0.3121 -0.2979 -0.0220
  161MOL    C1538735   6.123   4.018   4.680  0.2824 -0.0455 -0.3208
  161MOL    O1638736   6.108   4.104   4.793  0.7885  0.3352  1.1376
  161MOL    C1738737   6.004   4.182   4.802  0.6298  0.2839 -0.0879
  161MOL    C1838738   6.020   4.285   4.922  0.3550 -0.4527  0.8896
  161MOL    O1938739   5.906   4.187   4.728  0.2341 -0.7459 -0.2133
  161MOL    H2038740   5.972   3.897   4.782  1.3965 -1.4830  1.7975
  161MOL    H2138741   6.120   3.813   4.777  1.8258 -0.1675 -1.4098
  161MOL    H2238742   6.076   4.074   4.599 -2.0427  1.2825  1.8396
  161MOL    H2338743   6.052   4.382   4.883 -1.9522 -0.4303 -1.0551
  161MOL    H2438744   6.099   4.249   4.988  1.7552  1.6971  0.4402
  161MOL    H2538745   5.924   4.302   4.972 -0.3472  0.8202 -0.8153
  161MOL    C2638746   6.275   4.002   4.653 -0.2791 -0.6422 -0.1508
  161MOL    C2738747   6.338   4.121   4.569 -0.2409  0.2047 -0.4400
  161MOL    O2838748   6.344   4.241   4.653  0.2684  0.1895  0.2657
  161MOL    C2938749   6.284   4.352   4.615  0.5558 -0.3652  0.0374
  161MOL    C3038750   6.327   4.479   4.683 -0.1380  0.1274  0.0477
  161MOL    O3138751   6.194   4.356   4.529  0.0747 -0.7396 -0.2824
  161MOL    H3238752   6.337   3.996   4.742  0.2845 -1.8990 -0.6196
  161MOL    H3338753   6.281   3.920   4.581 -1.9914  0.1357 -1.2224
  161MOL    H3438754   6.269   4.130   4.485  1.7956  1.4741 -2.0352
  161MOL    H3538755   6.425   4.514   4.653 -0.3815  1.4736  0.7715
  161MOL    H3638756   6.340   4.462   4.790 -0.8823 -0.6373  0.0260
  161MOL    H3738757   6.249   4.553   4.664  0.0992  0.1791 -0.7460
  161MOL    C3838758   6.485   4.093   4.518 -0.3815  0.2200 -0.5898
  161MOL    C3938759   6.509   3.973   4.432  0.8070  0.5389 -1.1758
  161MOL    O4038760   6.423   3.985   4.314  0.1342  0.0561  0.3624
  161MOL    C4138761   6.374   3.867   4.260  0.8556 -0.4351 -0.6089
  161MOL    C4238762   6.283   3.886   4.150 -0.0238 -0.4397 -0.2567
  161MOL    O4338763   6.403   3.752   4.283  0.1865 -0.1500 -0.2011
  161MOL    H4438764   6.529   4.174   4.461  1.7279  1.2824  2.4393
  161MOL    H4538765   6.553   4.080   4.603 -1.6117 -0.7545  0.2693
  161MOL    H4638766   6.482   3.887   4.492 -0.9491  1.4846 -0.5796
  161MOL    H4738767   6.183   3.882   4.194 -1.0096  1.5858 -2.2126
  161MOL    H4838768   6.310   3.810   4.076 -1.0279  0.6052 -1.7274
  161MOL    H4938769   6.294   3.983   4.101  1.2769  0.5593  1.9571
  161MOL    C5038770   6.650   3.960   4.377 -0.2582 -0.0858  0.5050
  161MOL    C5138771   6.774   3.940   4.459  0.5617 -0.4404 -0.3314
  161MOL    O5238772   6.800   4.051   4.547  0.3917  0.0944  0.3812
  161MOL    C5338773   6.885   4.147   4.501 -0.2206 -0.9053  0.7503
  161MOL    C5438774   6.865   4.276   4.581  0.0021 -0.0090 -0.0593
  161MOL    O5538775   6.959   4.146   4.401  0.6487  0.4138  0.4209
  161MOL    H5638776   6.647   3.878   4.306  1.3761 -0.2573  0.6096
  161MOL    H5738777   6.673   4.046   4.315 -0.6813 -0.9328 -0.8458
  161MOL    H5838778   6.861   3.916   4.398  0.7068  1.7064 -1.0138
  161MOL    H5938779   6.773   4.331   4.561  0.5391  0.6057 -0.8759
  161MOL    H6038780   6.942   4.347   4.549 -1.4898  0.8009 -1.9653
  161MOL    H6138781   6.883   4.245   4.684 -0.2944 -0.5138 -0.1594
  161MOL    C6238782   6.754   3.827   4.558  0.1813  0.1700  0.1789
  161MOL    C6338783   6.739   3.684   4.502 -0.3192  0.5512 -0.2917
  161MOL    O6438784   6.866   3.653   4.447  0.1763  0.6845  0.5138
  161MOL    C6538785   6.873   3.623   4.308 -0.1986 -0.9200 -0.0168
  161MOL    C6638786   7.012   3.568   4.265  0.5499  0.5976  0.1906
  161MOL    O6738787   6.789   3.666   4.226 -0.1305 -0.1832  0.1125
  161MOL    H6838788   6.825   3.821   4.640  1.3749 -0.3326 -0.8752
  161MOL    H6938789   6.656   3.837   4.605 -0.9113 -2.1797 -1.5033
  161MOL    H7038790   6.657   3.688   4.431 -1.8170 -0.1204  1.3683
  161MOL    H7138791   7.092   3.632   4.303 -1.0045  1.6060  1.8700
  161MOL    H7238792   7.010   3.574   4.157 -0.1841 -1.1335  0.0944
  161MOL    H7338793   7.025   3.466   4.300  0.0609  0.3210 -0.4155
  161MOL    C7438794   6.705   3.573   4.602  0.3804 -0.0612 -0.6773
  161MOL    C7538795   6.673   3.437   4.537  0.1014 -0.1204  0.3222
  161MOL    O7638796   6.796   3.371   4.503 -0.4055  0.7343  0.5917
  161MOL    C7738797   6.797   3.253   4.437 -0.2694 -0.0125  0.1866
  161MOL    C7838798   6.934   3.190   4.437 -0.4157  0.0647  0.3076
  161MOL    O7938799   6.710   3.212   4.363 -0.0491  0.4097  0.2114
  161MOL    H8038800   6.786   3.571   4.674  0.8112  0.9356 -1.1308
  161MOL    H8138801   6.615   3.610   4.651 -1.3928 -6.1376  1.0444
  161MOL    H8238802   6.612   3.449   4.447 -0.7639  0.6132  0.9975
  161MOL    H8338803   6.978   3.158   4.531  0.9209 -1.3734 -0.7665
  161MOL    H8438804   6.997   3.256   4.377  0.7384 -1.1891  0.1136
  161MOL    H8538805   6.920   3.096   4.383 -1.0381  0.4472 -0.2193
  161MOL    C8638806   6.591   3.345   4.632 -0.0503  0.1217 -0.3268
  161MOL    C8738807   6.455   3.407   4.688 -0.4384 -0.2336  0.2696
  161MOL    O8838808   6.367   3.429   4.576 -0.2697 -0.0083 -0.2001
  161MOL    C8938809   6.322   3.556   4.543 -0.0681 -1.1273  0.0597
  161MOL    C9038810   6.210   3.552   4.439 -0.3457  0.3355 -0.3548
  161MOL    O9138811   6.361   3.664   4.595 -0.6391  0.7733  0.1676
  161MOL    H9238812   6.574   3.242   4.600 -0.1050  0.4993 -1.5299
  161MOL    H9338813   6.650   3.321   4.721 -2.0366 -0.1471  0.9442
  161MOL    H9438814   6.461   3.502   4.740 -1.3808  0.4678 -0.8661
  161MOL    H9538815   6.245   3.481   4.364 -0.7670  1.4568 -1.6346
  161MOL    H9638816   6.208   3.644   4.381  0.7200  0.9528  0.5916
  161MOL    H9738817   6.108   3.532   4.471 -0.4201 -0.2585 -0.9416
  161MOL    C9838818   6.381   3.307   4.783  0.3431 -0.4487  0.4882
  161MOL    C9938819   6.247   3.356   4.844  0.3528  0.6697  0.7210
  161MOL   O10038820   6.145   3.258   4.829 -0.0060  0.2414 -0.6541
  161MOL   C10138821   6.059   3.263   4.725 -0.2824  0.0146  0.1376
  161MOL   C10238822   5.981   3.136   4.720 -0.9131 -0.5652 -0.4956
  161MOL   O10338823   6.056   3.333   4.624 -0.2663  0.4009 -0.3597
  161MOL   H10438824   6.363   3.212   4.732 -1.8393 -0.4092  1.1236
  161MOL   H10538825   6.451   3.272   4.859  1.4334  1.5820  0.4389
  161MOL   H10638826   6.218   3.447   4.792  1.2284  0.4937 -0.0907
  161MOL   H10738827   5.938   3.114   4.818  1.2448  0.4566  0.7013
  161MOL   H10838828   6.046   3.052   4.693 -1.3410 -0.9444 -0.3610
  161MOL   H10938829   5.911   3.150   4.637 -1.7103  2.4988  0.6272
  161MOL   C11038830   6.266   3.392   4.991 -0.0962 -0.3822  0.9966
  161MOL   C11138831   6.170   3.499   5.047 -0.3914 -0.1394 -0.1457
  161MOL   O11238832   6.196   3.624   4.995  0.1799 -0.6701 -0.1047
  161MOL   C11338833   6.205   3.733   5.077  1.2478 -0.1280 -0.1145
  161MOL   C11438834   6.258   3.856   5.001 -0.5169 -0.2907 -0.7448
  161MOL   O11538835   6.163   3.739   5.188 -0.1206 -0.1418 -0.7569
  161MOL   H11638836   6.258   3.298   5.047  0.1227 -1.7457 -1.2052
  161MOL   H11738837   6.363   3.431   5.022 -0.8643  2.0215  0.4542
  161MOL   H11838838   6.203   3.513   5.150 -1.2031  2.2851 -0.1626
  161MOL   H11938839   6.180   3.931   4.985  1.3550  2.5120  2.6230
  161MOL   H12038840   6.305   3.839   4.904  1.7514  1.7739 -0.0645
  161MOL   H12138841   6.326   3.898   5.075 -0.2514 -1.7397 -0.1601
  161MOL   C12238842   6.025   3.472   5.044 -0.0509  0.5513 -0.3880
  161MOL   C12338843   5.972   3.352   5.121  0.0435  0.1480 -0.3306
  161MOL   O12438844   5.988   3.380   5.264 -0.5120 -0.2327  0.3150
  161MOL   C12538845   6.028   3.276   5.342 -0.2556  0.2413 -0.5989
  161MOL   C12638846   6.016   3.310   5.488  1.0036 -0.1326 -0.4650
  161MOL   O12738847   6.078   3.170   5.299  0.3468  0.5269  0.0317
  161MOL   H12838848   5.961   3.558   5.065  0.6796  1.3290 -1.3327
  161MOL   H12938849   6.000   3.465   4.937  0.0911 -0.3755 -0.3690
  161MOL   H13038850   6.030   3.264   5.093  1.8469  1.1201  0.2315
  161MOL   H13138851   5.926   3.261   5.525 -0.7142  2.2972 -1.2640
  161MOL   H13238852   6.012   3.418   5.498  0.1684 -0.2997  1.3636
  161MOL   H13338853   6.101   3.281   5.549  0.8687  2.0041  0.7930
  161MOL   C13438854   5.823   3.324   5.079 -0.9373  0.0715 -0.7649
  161MOL   C13538855   5.714   3.429   5.110  0.1308 -0.1064 -0.1263
  161MOL   O13638856   5.594   3.357   5.067  0.2934 -0.2436  0.2174
  161MOL   C13738857   5.523   3.406   4.958  0.4070 -0.2930 -0.7692
  161MOL   C13838858   5.430   3.305   4.896 -0.1109 -0.1450 -0.7439
  161MOL   O13938859   5.541   3.512   4.903  0.0093 -0.1650 -0.2509
  161MOL   H14038860   5.824   3.304   4.972  1.1497  1.4625 -1.0405
  161MOL   H14138861   5.795   3.232   5.130  1.2171 -0.2090 -0.0426
  161MOL   H14238862   5.732   3.522   5.056  0.2051  0.8726  1.5672
  161MOL   H14338863   5.478   3.210   4.917 -0.5638 -0.1489  0.3234
  161MOL   H14438864   5.419   3.315   4.788 -1.8934  0.2845 -0.5428
  161MOL   H14538865   5.337   3.317   4.952 -0.4336  0.9148 -1.4801
  161MOL   C14638866   5.695   3.446   5.267 -0.6267  0.7300  0.9424
  161MOL   C14738867   5.580   3.541   5.293  0.2687  0.1850  0.0610
  161MOL   O14838868   5.566   3.553   5.434  0.2592 -0.1768 -0.4579
  161MOL   C14938869   5.448   3.587   5.489  0.2028  0.0095 -0.4462
  161MOL   C15038870   5.452   3.583   5.643 -0.2647  0.5153  0.3055
  161MOL   O15138871   5.341   3.586   5.428 -0.0678 -0.3690 -0.4612
  161MOL   H15238872   5.676   3.350   5.315  0.2687 -0.1155 -0.3607
  161MOL   H15338873   5.786   3.487   5.310  1.2595  0.3605 -2.5208
  161MOL   H15438874   5.493   3.496   5.246 -0.6472  0.7419  1.2091
  161MOL   H15538875   5.555   3.588   5.677 -0.4436 -0.6211  1.0792
  161MOL   H15638876   5.404   3.491   5.678  1.5168  0.1051  1.7412
  161MOL   H15738877   5.385   3.661   5.679 -0.7899  0.5358 -0.6958
  161MOL   C15838878   5.602   3.687   5.232  0.4478  0.9266 -0.6727
  161MOL   C15938879   5.733   3.769   5.262  0.1189  0.6345 -0.1575
  161MOL   O16038880   5.723   3.886   5.179  0.1483 -0.0277 -0.2081
  161MOL   C16138881   5.778   3.881   5.048  0.0903 -0.4575  0.5329
  161MOL   C16238882   5.776   4.018   4.983  0.4865 -0.9619 -0.0918
  161MOL   O16338883   5.819   3.778   4.996  0.0757 -0.2816  0.0882
  161MOL   H16438884   5.598   3.670   5.125  0.8592  0.8296 -0.6742
  161MOL   H16538885   5.520   3.755   5.255  0.8918  1.1555  0.2845
  161MOL   H16638886   5.818   3.706   5.236  1.9869  1.9044  2.6052
  161MOL   H16738887   5.738   4.091   5.055  0.9289  0.7686 -1.5883
  161MOL   H16838888   5.702   4.042   4.907 -0.0927 -0.2781  0.6843
  161MOL   H16938889   5.880   4.052   4.974  1.0005 -1.7563  2.3301
  161MOL   C17038890   5.744   3.824   5.405 -0.2595 -0.1019 -0.1119
  161MOL   C17138891   5.853   3.931   5.424  0.2583  0.7012 -0.6332
  161MOL   O17238892   5.882   3.936   5.560 -0.4881  0.2145 -0.2549
  161MOL   C17338893   5.831   4.027   5.654 -0.3331 -0.2240 -0.4804
  161MOL   C17438894   5.906   4.007   5.783 -0.4587  0.0844 -0.0740
  161MOL   O17538895   5.743   4.112   5.635 -0.2296  0.1654 -0.1380
  161MOL   H17638896   5.649   3.867   5.438 -1.6281 -2.6155 -0.6356
  161MOL   H17738897   5.765   3.748   5.481  1.5150  0.6801  0.1975
  161MOL   H17838898   5.810   4.029   5.402  0.3598  0.8549 -0.1536
  161MOL   H17938899   5.897   4.091   5.851  0.5202 -0.7108  1.0792
  161MOL   H18038900   6.011   3.999   5.753 -0.8937  2.9178 -2.5195
  161MOL   H18138901   5.865   3.920   5.835 -2.6220  1.6901  0.9585
  161MOL   C18238902   5.987   3.918   5.347  0.6230  0.6344  0.0151
  161MOL   C18338903   6.097   4.025   5.371  0.2531  0.3085  0.4491
  161MOL   O18438904   6.227   3.957   5.386  0.1719 -0.6015 -0.3774
  161MOL   C18538905   6.302   3.977   5.499  0.4572 -0.2570  0.1687
  161MOL   C18638906   6.439   3.906   5.484 -0.0592 -0.2965  0.3639
  161MOL   O18738907   6.284   4.041   5.604 -0.3277 -0.3926  0.4344
  161MOL   H18838908   6.025   3.821   5.379 -1.1580  0.4496  1.6449
  161MOL   H18938909   5.973   3.903   5.240  0.2780 -0.0580  0.1567
  161MOL   H19038910   6.072   4.086   5.458  1.6027  2.2064 -0.4698
  161MOL   H19138911   6.511   3.977   5.444  1.6053 -0.9731  2.1061
  161MOL   H19238912   6.424   3.821   5.418 -2.7243  0.3830  0.0090
  161MOL   H19338913   6.473   3.882   5.584  0.0198  3.4666  1.3235
  161MOL   C19438914   6.117   4.113   5.250  0.0658 -0.4932  0.2903
  161MOL   C19538915   6.212   4.233   5.286  0.6944  0.7285  0.5862
  161MOL   O19638916   6.281   4.270   5.160 -0.6199  0.1870 -0.0537
  161MOL   C19738917   6.402   4.225   5.129 -0.3571  0.0676  0.0510
  161MOL   C19838918   6.450   4.276   4.992  0.2179 -0.4285  0.4091
  161MOL   O19938919   6.482   4.158   5.195 -0.4087  0.0430 -0.3036
  161MOL   H20038920   6.162   4.050   5.173  0.7129 -0.2728  0.4902
  161MOL   H20138921   6.018   4.137   5.211  1.4008 -0.6249 -3.3202
  161MOL   H20238922   6.283   4.221   5.368 -1.2078 -0.4805  2.0992
  161MOL   H20338923   6.389   4.221   4.920  1.4524 -1.7086  0.3048
  161MOL   H20438924   6.556   4.254   4.980  0.5565  2.0609 -1.5652
  161MOL   H20538925   6.447   4.384   4.985  0.6776 -0.5504 -1.8975
  161MOL   C20638926   6.137   4.364   5.310 -0.5826 -0.2304 -0.1752
  161MOL   C20738927   6.060   4.389   5.442  0.4947 -0.2300 -0.1314
  161MOL   O20838928   6.161   4.392   5.547 -0.3501  0.3453  0.1582
  161MOL   C20938929   6.122   4.352   5.671  0.0771 -0.0907  0.5754
  161MOL   C21038930   6.238   4.346   5.768  0.0686 -0.3915 -0.0407
  161MOL   O21138931   6.005   4.328   5.709 -0.6104  0.4384 -0.1957
  161MOL   H21238932   6.211   4.444   5.309 -0.6393 -0.1859 -1.5138
  161MOL   H21338933   6.068   4.381   5.227  0.4983 -0.5416 -1.1468
  161MOL   H21438934   5.995   4.302   5.456  0.2500 -0.0906 -0.4111
  161MOL   H21538935   6.292   4.252   5.761  2.0237  0.6979  0.1007
  161MOL   H21638936   6.208   4.346   5.873 -1.7802  1.1413 -0.5341
  161MOL   H21738937   6.311   4.425   5.749  2.0055 -1.9927  0.5772
  161MOL   C21838938   5.971   4.517   5.444 -0.1290 -0.3484 -0.1907
  161MOL   C21938939   5.848   4.519   5.355 -0.5778  0.3667  0.0605
  161MOL   O22038940   5.741   4.433   5.390  0.0389  0.0262 -0.5270
  161MOL   C22138941   5.724   4.302   5.346  0.2399 -0.1292  0.4648
  161MOL   C22238942   5.594   4.245   5.400 -0.1333  0.2847  0.3893
  161MOL   O22338943   5.804   4.240   5.273  0.1607 -0.5068 -0.1053
  161MOL   H22438944   5.939   4.544   5.545 -0.2819  0.9551 -0.5902
  161MOL   H22538945   6.036   4.591   5.397 -0.3444 -1.3712 -2.1574
  161MOL   H22638946   5.883   4.490   5.256 -0.8617 -0.8045  0.2893
  161MOL   H22738947   5.497   4.277   5.360 -0.4809  0.5371  1.4146
  161MOL   H22838948   5.582   4.245   5.508 -1.4922 -1.4877  0.2595
  161MOL   H22938949   5.598   4.137   5.386  2.7741  0.6002 -1.5646
  161MOL   C23038950   5.782   4.659   5.335 -0.0016  0.3954 -0.1546
  161MOL   C23138951   5.871   4.771   5.285  0.7037  0.0267  0.1105
  161MOL   O23238952   5.885   4.777   5.144  0.3115  0.4306  0.0230
  161MOL   C23338953   5.970   4.686   5.086 -0.3448 -0.3841 -0.2285
  161MOL   C23438954   5.975   4.714   4.935  0.0919  0.0838  0.6655
  161MOL   O23538955   6.054   4.622   5.140  0.1396 -0.1018 -0.0706
  161MOL   H23638956   5.696   4.648   5.269 -1.3453  1.4530  1.3758
  161MOL   H23738957   5.741   4.685   5.433  2.8314 -0.4327  1.3159
  161MOL   H23838958   5.974   4.764   5.318 -0.3707  3.0319  4.3758
  161MOL   H23938959   5.880   4.753   4.899  0.5549 -0.0760 -0.7518
  161MOL   H24038960   6.004   4.623   4.882  2.2082  1.6343 -0.9225
  161MOL   H24138961   6.055   4.785   4.917  0.7937 -1.0330 -0.7620
  161MOL   H24238962   5.842   4.873   5.309  0.0457 -0.0252 -0.4331
  162MOL     C138963   6.130   1.205   2.233 -0.6226 -0.4408 -0.2191
  162MOL     C238964   6.152   1.210   2.380  0.1797 -0.1597 -0.2729
  162MOL     O338965   6.202   1.334   2.413  0.1906 -0.0311  0.8319
  162MOL     C438966   6.275   1.350   2.524  0.4720  0.2605 -0.3471
  162MOL     C538967   6.324   1.500   2.551  0.0537 -1.4605  0.0583
  162MOL     O638968   6.294   1.262   2.603 -0.3113  0.3431 -0.1144
  162MOL     H738969   6.130   1.100   2.202 -1.4255 -0.3007 -0.7155
  162MOL     H838970   6.204   1.239   2.161 -0.8699  0.7710  0.0919
  162MOL     H938971   6.240   1.147   2.388  0.8292  0.4959 -1.9392
  162MOL    H1038972   6.416   1.508   2.608  0.0034 -0.6559  0.0304
  162MOL    H1138973   6.252   1.569   2.596 -0.1768 -1.0797 -0.8876
  162MOL    H1238974   6.345   1.548   2.456  1.6905 -1.3010  0.4950
  162MOL    H1338975   6.036   1.252   2.206  0.1007  1.1261 -0.0714
  162MOL    C1438976   6.025   1.179   2.458 -0.1556  0.0033  0.2603
  162MOL    C1538977   5.971   1.032   2.447 -0.5865 -0.0398 -0.7894
  162MOL    O1638978   6.074   0.941   2.500 -0.6259  0.0729 -0.6216
  162MOL    C1738979   6.084   0.818   2.462 -0.6939 -0.0810  0.0968
  162MOL    C1838980   6.183   0.745   2.543  0.8209 -0.7374  0.8624
  162MOL    O1938981   6.034   0.768   2.363 -0.0010  0.0649  0.0469
  162MOL    H2038982   6.041   1.193   2.565 -3.2417  0.5306  0.7081
  162MOL    H2138983   5.942   1.249   2.441  0.7065  1.2717  1.1810
  162MOL    H2238984   5.962   1.009   2.341  0.3393 -1.1337 -0.6561
  162MOL    H2338985   6.284   0.769   2.512  0.0831  1.8215  0.3219
  162MOL    H2438986   6.172   0.636   2.539 -1.3400 -0.4901 -1.0227
  162MOL    H2538987   6.167   0.780   2.645  3.1256  1.1082  0.6215
  162MOL    C2638988   5.851   1.006   2.540  0.2181  0.4541 -0.3926
  162MOL    C2738989   5.720   1.073   2.493 -0.6467 -0.7949  0.2635
  162MOL    O2838990   5.700   1.045   2.351 -0.0901  0.1081 -0.3271
  162MOL    C2938991   5.653   1.132   2.275 -0.1201  0.2510 -0.1984
  162MOL    C3038992   5.666   1.089   2.128 -0.4552  0.2095 -0.4301
  162MOL    O3138993   5.628   1.249   2.308  0.0852 -0.4714  0.7583
  162MOL    H3238994   5.826   0.901   2.525 -0.5320  0.6868 -0.8196
  162MOL    H3338995   5.872   1.025   2.645  2.3198 -0.1101 -0.6963
  162MOL    H3438996   5.727   1.181   2.506  0.2534 -0.7886 -0.2327
  162MOL    H3538997   5.609   1.142   2.052 -0.5409  2.5638  1.2116
  162MOL    H3638998   5.622   0.991   2.115  0.3790 -0.3629  0.9772
  162MOL    H3738999   5.769   1.085   2.093 -0.2064  1.8187  0.0416
  162MOL    C3839000   5.591   1.028   2.567 -0.0639  0.1308  0.7729
  162MOL    C3939001   5.473   1.131   2.558  0.7419 -0.6560 -0.5931
  162MOL    O4039002   5.362   1.057   2.595 -0.4704  0.1833 -0.5518
  162MOL    C4139003   5.247   1.058   2.530 -0.9579 -0.2200  0.3515
  162MOL    C4239004   5.134   0.985   2.605 -0.8612 -0.9271 -0.2816
  162MOL    O4339005   5.236   1.104   2.416 -0.4112  0.1676  0.0161
  162MOL    H4439006   5.561   0.932   2.527  3.1986 -1.1636  1.3313
  162MOL    H4539007   5.614   1.009   2.672  1.0567 -2.1881  0.1377
  162MOL    H4639008   5.466   1.165   2.455  0.5531  3.4548  0.6995
  162MOL    H4739009   5.074   0.922   2.539 -3.5077  2.2987 -1.1236
  162MOL    H4839010   5.062   1.050   2.655  2.6882  0.8757  2.6577
  162MOL    H4939011   5.176   0.915   2.676 -0.8574  0.3202  0.9607
  162MOL    C5039012   5.481   1.246   2.656 -0.9055 -1.3457  0.3813
  162MOL    C5139013   5.356   1.338   2.677 -0.3217 -0.4454  0.2410
  162MOL    O5239014   5.366   1.427   2.787 -0.1425  0.3001  0.7366
  162MOL    C5339015   5.297   1.404   2.901 -0.4344 -0.3328  0.5353
  162MOL    C5439016   5.318   1.513   3.006 -0.6135 -0.3842  0.1877
  162MOL    O5539017   5.228   1.308   2.920  0.8411  0.3598  0.2608
  162MOL    H5639018   5.503   1.201   2.753 -0.5657 -1.3193  0.3192
  162MOL    H5739019   5.566   1.310   2.630 -1.7129 -0.3833  0.0598
  162MOL    H5839020   5.271   1.271   2.691 -0.5618  0.1387  1.7792
  162MOL    H5939021   5.396   1.482   3.076 -0.8507 -0.6177  0.3512
  162MOL    H6039022   5.217   1.504   3.047 -1.1742  0.8461 -0.8984
  162MOL    H6139023   5.342   1.613   2.970  0.2913 -0.4722  0.5248
  162MOL    C6239024   5.333   1.431   2.550  0.1433  0.3363 -0.1158
  162MOL    C6339025   5.195   1.506   2.562 -0.0654  0.3665  0.6496
  162MOL    O6439026   5.214   1.636   2.499  0.3943  0.3488  0.0849
  162MOL    C6539027   5.228   1.745   2.569  0.9015  0.9660  0.7426
  162MOL    C6639028   5.248   1.867   2.476  0.0748  0.0312  0.4993
  162MOL    O6739029   5.245   1.760   2.692 -0.1559 -0.0584  0.7312
  162MOL    H6839030   5.417   1.497   2.527 -0.4100  0.4323 -1.9234
  162MOL    H6939031   5.322   1.355   2.473  0.5288 -0.6120  0.7496
  162MOL    H7039032   5.167   1.528   2.665 -0.9670 -2.2065  0.9858
  162MOL    H7139033   5.315   1.841   2.394 -0.1029 -1.0589  0.7041
  162MOL    H7239034   5.278   1.959   2.527 -1.4662  0.6042  0.4129
  162MOL    H7339035   5.149   1.890   2.436 -0.3241 -2.9882 -0.3245
  162MOL    C7439036   5.078   1.433   2.502 -0.2492  0.5406 -0.2293
  162MOL    C7539037   5.055   1.460   2.350  0.3848  0.2119  0.4469
  162MOL    O7639038   5.145   1.376   2.281  0.2901  0.2220 -0.0969
  162MOL    C7739039   5.179   1.395   2.151 -0.4044  0.0540 -0.2148
  162MOL    C7839040   5.275   1.291   2.105  0.5352  0.2189 -0.1639
  162MOL    O7939041   5.120   1.475   2.076 -0.0612 -0.1755 -0.1942
  162MOL    H8039042   5.087   1.325   2.518 -0.6474  0.5410 -0.0122
  162MOL    H8139043   4.992   1.470   2.557 -1.2312 -2.3441  0.2706
  162MOL    H8239044   5.083   1.564   2.331 -0.0370  0.5370  1.5753
  162MOL    H8339045   5.243   1.248   2.011 -1.3082  0.1432  0.4798
  162MOL    H8439046   5.292   1.219   2.185 -0.1356  0.4103  0.1543
  162MOL    H8539047   5.375   1.334   2.097 -0.2681  2.2107  0.3981
  162MOL    C8639048   4.922   1.414   2.311  1.1524 -0.1167 -0.5383
  162MOL    C8739049   4.804   1.492   2.360 -0.3045  0.1783 -0.7125
  162MOL    O8839050   4.789   1.623   2.301 -0.1854 -0.2571 -0.5550
  162MOL    C8939051   4.841   1.732   2.359 -0.1471 -0.3177 -0.4814
  162MOL    C9039052   4.798   1.855   2.277 -0.1550 -0.1689 -0.3957
  162MOL    O9139053   4.909   1.740   2.463 -0.4888 -0.1132  0.0434
  162MOL    H9239054   4.910   1.417   2.203 -0.3510 -1.5141 -0.4343
  162MOL    H9339055   4.915   1.306   2.323 -0.7762 -0.2617 -2.5702
  162MOL    H9439056   4.819   1.512   2.466 -2.0818  0.6761 -0.5408
  162MOL    H9539057   4.705   1.903   2.308 -0.9726 -0.2879 -2.5564
  162MOL    H9639058   4.784   1.823   2.174  0.6640 -1.1245 -0.2212
  162MOL    H9739059   4.887   1.918   2.280  0.6636 -1.3891  2.6190
  162MOL    C9839060   4.674   1.418   2.343  0.1281  0.6638  0.2376
  162MOL    C9939061   4.590   1.399   2.470  0.0655 -0.8188  0.9826
  162MOL   O10039062   4.456   1.365   2.432  0.1177  0.6308 -0.3547
  162MOL   C10139063   4.372   1.449   2.392  0.2605  1.1997  0.2935
  162MOL   C10239064   4.242   1.391   2.347  0.3525 -0.0554 -0.0308
  162MOL   O10339065   4.387   1.571   2.373 -0.0767 -0.3660 -0.2224
  162MOL   H10439066   4.620   1.475   2.267  3.3877  1.6311 -1.4280
  162MOL   H10539067   4.693   1.319   2.300 -0.9518  0.9211 -0.8698
  162MOL   H10639068   4.589   1.492   2.528 -0.2960 -0.2664  0.1178
  162MOL   H10739069   4.259   1.285   2.331 -1.2451 -0.1484 -1.2666
  162MOL   H10839070   4.214   1.427   2.248  1.6074  0.0778 -0.3424
  162MOL   H10939071   4.160   1.404   2.419  1.7712 -0.3731  1.6722
  162MOL   C11039072   4.656   1.293   2.562  0.3610  0.6495 -0.4792
  162MOL   C11139073   4.596   1.292   2.705  0.0310 -0.4710 -0.0068
  162MOL   O11239074   4.501   1.196   2.701  0.6347  0.1603 -0.1001
  162MOL   C11339075   4.373   1.213   2.735 -0.5157 -0.2213 -0.8476
  162MOL   C11439076   4.282   1.088   2.715  0.6589 -0.0338  0.0544
  162MOL   O11539077   4.324   1.316   2.779  0.5192 -0.2843 -0.5164
  162MOL   H11639078   4.642   1.196   2.515 -1.1790  0.5382  0.1613
  162MOL   H11739079   4.762   1.314   2.564  0.4751  0.2777 -1.8414
  162MOL   H11839080   4.545   1.386   2.728 -0.4082 -0.5226 -0.7356
  162MOL   H11939081   4.184   1.110   2.756  1.3723  0.2485  1.6218
  162MOL   H12039082   4.320   0.997   2.761  0.0884 -0.2234  0.1497
  162MOL   H12139083   4.268   1.071   2.608  0.4590  0.8918 -0.0764
  162MOL   C12239084   4.693   1.259   2.815  0.4229 -0.1708 -0.2337
  162MOL   C12339085   4.791   1.363   2.862 -0.2449  0.4987 -0.5059
  162MOL   O12439086   4.732   1.486   2.904 -0.0499 -0.5909 -0.4916
  162MOL   C12539087   4.761   1.598   2.837 -0.8357  0.7411  0.0020
  162MOL   C12639088   4.723   1.724   2.919  0.5683 -0.0881 -0.0186
  162MOL   O12739089   4.820   1.604   2.726  0.4895  0.5357 -0.9662
  162MOL   H12839090   4.642   1.221   2.903  1.0211  0.7887  0.5334
  162MOL   H12939091   4.753   1.175   2.779 -1.4520 -1.4208 -0.4832
  162MOL   H13039092   4.852   1.389   2.775  1.0835  1.4208  0.6844
  162MOL   H13139093   4.812   1.785   2.910  0.6940  0.3221  3.3816
  162MOL   H13239094   4.697   1.713   3.024 -1.3591  0.9370 -0.3526
  162MOL   H13339095   4.650   1.790   2.872 -0.4995 -0.3017  1.2967
  162MOL   C13439096   4.900   1.320   2.966  0.1560  0.7981 -0.4337
  162MOL   C13539097   4.848   1.317   3.109  0.4078  0.6278 -0.0843
  162MOL   O13639098   4.726   1.237   3.118 -0.4777 -0.0666 -0.3851
  162MOL   C13739099   4.626   1.278   3.190 -1.2219  0.8579  0.0663
  162MOL   C13839100   4.530   1.167   3.215  0.1161 -0.4442  0.8966
  162MOL   O13939101   4.598   1.394   3.225 -0.5017 -0.0398  0.0763
  162MOL   H14039102   4.924   1.219   2.933 -0.8074 -0.1754  1.7619
  162MOL   H14139103   4.983   1.389   2.951  1.6331 -1.1960 -1.8759
  162MOL   H14239104   4.827   1.423   3.126  0.7796  0.3251  2.4642
  162MOL   H14339105   4.497   1.113   3.125 -0.9055  0.1409  0.9090
  162MOL   H14439106   4.434   1.202   3.255  0.1092  0.5077  0.0759
  162MOL   H14539107   4.568   1.101   3.292  1.0562  0.7285  1.4366
  162MOL   C14639108   4.949   1.289   3.230  0.1636  0.2037 -0.1646
  162MOL   C14739109   4.997   1.145   3.266  0.8351  0.1774  0.4468
  162MOL   O14839110   5.077   1.157   3.388  0.1022  0.6080 -0.1560
  162MOL   C14939111   5.200   1.111   3.389 -0.0304 -0.0104 -0.0266
  162MOL   C15039112   5.276   1.145   3.516 -0.5062  0.3998 -0.2125
  162MOL   O15139113   5.257   1.044   3.303 -0.5853 -0.1135  0.1610
  162MOL   H15239114   5.031   1.360   3.213  1.7992 -1.9682 -1.7626
  162MOL   H15339115   4.902   1.314   3.325 -1.3847  1.4263 -1.2230
  162MOL   H15439116   5.052   1.116   3.176  0.2673 -1.5459  0.6296
  162MOL   H15539117   5.363   1.200   3.479 -0.7030  0.2479 -0.9184
  162MOL   H15639118   5.297   1.057   3.576  0.2629  1.5262  1.2024
  162MOL   H15739119   5.214   1.212   3.576 -1.2992  0.4520 -1.0793
  162MOL   C15839120   4.890   1.038   3.279  0.2014  0.0036  0.1340
  162MOL   C15939121   4.928   0.900   3.339 -0.3424  0.1360 -0.5245
  162MOL   O16039122   4.798   0.832   3.360 -0.5758 -0.5227  0.8458
  162MOL   C16139123   4.725   0.859   3.466  0.2900 -0.3382  0.4004
  162MOL   C16239124   4.609   0.758   3.467  0.1567  0.7270 -0.0819
  162MOL   O16339125   4.735   0.958   3.537  0.3827  0.5374 -0.0092
  162MOL   H16439126   4.809   1.073   3.344  0.1180 -1.9874  1.1464
  162MOL   H16539127   4.851   1.034   3.177  1.3041  0.8480 -0.3283
  162MOL   H16639128   4.973   0.927   3.434 -2.2952  1.6546  0.0156
  162MOL   H16739129   4.640   0.673   3.406 -0.5359  1.1623 -1.0550
  162MOL   H16839130   4.518   0.795   3.420 -0.5316 -1.6744 -0.7332
  162MOL   H16939131   4.594   0.735   3.573  0.0288  2.1773  0.2165
  162MOL   C17039132   5.006   0.805   3.248 -0.4039 -0.8998  0.4161
  162MOL   C17139133   5.052   0.685   3.336  0.2164 -0.4041 -0.1304
  162MOL   O17239134   4.943   0.594   3.336  0.5279  0.6857  0.5838
  162MOL   C17339135   4.900   0.554   3.457  0.4568 -0.5784  0.1236
  162MOL   C17439136   4.796   0.439   3.445 -0.1969  0.5745 -0.3774
  162MOL   O17539137   4.938   0.582   3.569 -0.1720  0.1186  0.1334
  162MOL   H17639138   4.942   0.776   3.164 -1.5541  0.9681  0.6116
  162MOL   H17739139   5.092   0.866   3.221 -1.1897  0.5002  1.0600
  162MOL   H17839140   5.075   0.721   3.436  0.8607 -0.2441 -0.3356
  162MOL   H17939141   4.844   0.357   3.391 -0.6496 -0.5378  0.8890
  162MOL   H18039142   4.709   0.468   3.386 -0.3023  0.2241 -0.3960
  162MOL   H18139143   4.764   0.407   3.544  0.0098  0.0759 -0.4702
  162MOL   C18239144   5.166   0.597   3.277  0.1705 -0.1114  0.3439
  162MOL   C18339145   5.303   0.673   3.299 -0.6775  0.0552  0.2293
  162MOL   O18439146   5.343   0.630   3.427  0.4426 -0.0183  0.5090
  162MOL   C18539147   5.350   0.723   3.528  0.6456  0.0088 -0.1497
  162MOL   C18639148   5.424   0.669   3.649  0.0635  0.3449 -0.1829
  162MOL   O18739149   5.300   0.833   3.526 -0.0758  0.5390  0.0661
  162MOL   H18839150   5.172   0.502   3.331 -0.9311  0.1262  0.8894
  162MOL   H18939151   5.154   0.574   3.171 -1.4565  0.5947  0.3755
  162MOL   H19039152   5.283   0.780   3.288 -0.4251 -0.1611 -2.5450
  162MOL   H19139153   5.423   0.749   3.723 -1.9402  0.6661 -0.5215
  162MOL   H19239154   5.516   0.624   3.609 -0.3553 -1.4348  0.8227
  162MOL   H19339155   5.365   0.592   3.697  0.6193 -0.1832 -0.3381
  162MOL   C19439156   5.408   0.619   3.204  0.6788  0.3765  0.1561
  162MOL   C19539157   5.387   0.649   3.050 -0.9501  0.1110  0.0461
  162MOL   O19639158   5.393   0.788   3.026 -0.2440  0.8024 -0.5362
  162MOL   C19739159   5.285   0.850   2.977 -0.1987  0.4014 -0.0817
  162MOL   C19839160   5.314   0.992   2.954  0.5096 -0.2636  0.9397
  162MOL   O19939161   5.177   0.798   2.961 -0.6600  0.0405  0.1317
  162MOL   H20039162   5.506   0.652   3.237  1.4289 -1.0129 -0.6928
  162MOL   H20139163   5.403   0.511   3.207  0.4970  0.3477 -0.9647
  162MOL   H20239164   5.294   0.599   3.023 -1.0801 -0.4509  1.5030
  162MOL   H20339165   5.260   1.060   3.020 -0.0588 -0.1623  0.3780
  162MOL   H20439166   5.277   1.011   2.853  0.4605 -2.4368  0.5193
  162MOL   H20539167   5.420   1.017   2.957  0.3078  0.6939  0.4524
  162MOL   C20639168   5.500   0.590   2.973  0.1003  0.1530  0.4332
  162MOL   C20739169   5.506   0.610   2.820 -0.4245  0.1365  0.1724
  162MOL   O20839170   5.633   0.564   2.773  0.5088  0.3798  0.1083
  162MOL   C20939171   5.730   0.648   2.749 -0.1371  0.3593  0.4303
  162MOL   C21039172   5.855   0.580   2.694  0.3334  0.3677  0.2352
  162MOL   O21139173   5.730   0.770   2.767 -0.2452  0.5617 -0.4729
  162MOL   H21239174   5.590   0.640   3.008  2.1346 -3.1673  0.1189
  162MOL   H21339175   5.497   0.484   2.998  0.8842  0.1644  0.5828
  162MOL   H21439176   5.493   0.715   2.792  3.1549  0.9096  1.2044
  162MOL   H21539177   5.931   0.653   2.665  0.2869  0.4783  0.3972
  162MOL   H21639178   5.824   0.512   2.615  0.1452  1.4650 -0.6437
  162MOL   H21739179   5.896   0.517   2.774  0.7497  0.6756  0.2678
  162MOL   C21839180   5.398   0.526   2.744 -0.6847 -0.2226  0.7702
  162MOL   C21939181   5.402   0.555   2.597  0.2761  0.0529  0.4504
  162MOL   O22039182   5.344   0.448   2.526  0.2697  0.2666 -0.0389
  162MOL   C22139183   5.418   0.331   2.506  0.2833  0.2271  0.6424
  162MOL   C22239184   5.345   0.225   2.435 -0.4433  0.0386  0.3745
  162MOL   O22339185   5.539   0.331   2.510 -0.0997 -0.0478  0.4591
  162MOL   H22439186   5.423   0.423   2.770  2.4888  0.2667 -0.2276
  162MOL   H22539187   5.295   0.541   2.777 -1.1886 -1.5937 -0.1242
  162MOL   H22639188   5.507   0.561   2.567 -0.2029  0.7804 -1.1408
  162MOL   H22739189   5.240   0.250   2.420 -0.3347 -1.0948 -2.6342
  162MOL   H22839190   5.347   0.127   2.482 -1.4552  0.2132  0.7896
  162MOL   H22939191   5.392   0.203   2.339 -0.5370 -1.2159  0.6117
  162MOL   C23039192   5.326   0.683   2.566 -0.1041 -0.1046  0.1245
  162MOL   C23139193   5.353   0.724   2.415  0.1945  0.1870  0.6749
  162MOL   O23239194   5.486   0.748   2.384 -0.1763 -0.3146 -0.0638
  162MOL   C23339195   5.562   0.660   2.315 -1.2293  0.0373  0.5372
  162MOL   C23439196   5.699   0.706   2.303 -0.3127  0.8717 -1.3098
  162MOL   O23539197   5.529   0.554   2.265  0.2284 -0.2667  0.2909
  162MOL   H23639198   5.218   0.670   2.577 -0.1461  0.2974  0.2211
  162MOL   H23739199   5.346   0.767   2.633  0.1035 -0.2249  0.2144
  162MOL   H23839200   5.297   0.816   2.395 -2.4820 -1.7983 -1.3552
  162MOL   H23939201   5.763   0.643   2.365 -1.7004 -1.1501 -1.8730
  162MOL   H24039202   5.706   0.809   2.339  0.6607  0.4331 -0.1799
  162MOL   H24139203   5.739   0.704   2.202 -1.0295  0.7284 -1.5916
  162MOL   H24239204   5.313   0.648   2.348  0.8166  0.6120 -0.1940
  163MOL     C139205   7.994   1.714   3.219  0.6252 -0.1232 -0.0612
  163MOL     C239206   7.907   1.783   3.327  0.1802 -0.0420  0.0202
  163MOL     O339207   7.838   1.890   3.258  0.1164 -0.1176 -0.1264
  163MOL     C439208   7.878   2.013   3.296  0.3781 -0.2996  0.1413
  163MOL     C539209   7.835   2.124   3.202 -0.0729  0.1096 -0.6173
  163MOL     O639210   7.942   2.045   3.399 -0.2416 -0.2321 -0.5642
  163MOL     H739211   0.016   1.622   3.259 -0.4326 -0.5807  0.0436
  163MOL     H839212   0.057   1.779   3.196 -0.4654  0.9563 -1.0828
  163MOL     H939213   7.965   1.816   3.413  1.4345 -0.0733 -0.8112
  163MOL    H1039214   7.817   2.081   3.103  0.8827  1.3292 -1.3410
  163MOL    H1139215   7.916   2.192   3.177 -0.3421  0.6658  0.0311
  163MOL    H1239216   7.752   2.179   3.247 -0.3851 -0.8554 -0.0064
  163MOL    H1339217   7.944   1.677   3.130  0.8094 -1.4992  0.3915
  163MOL    C1439218   7.792   1.698   3.378 -0.2341  0.4969 -0.4951
  163MOL    C1539219   7.839   1.583   3.460 -0.4010  0.1104 -0.3297
  163MOL    O1639220   7.864   1.617   3.594 -0.7559 -0.4574  0.1957
  163MOL    C1739221   7.994   1.624   3.649  0.3238 -0.1210  0.0915
  163MOL    C1839222   8.007   1.645   3.798  0.1798  0.0422  0.4036
  163MOL    O1939223   0.078   1.622   3.578  0.0813 -0.6849 -0.0047
  163MOL    H2039224   7.708   1.754   3.420 -1.3380 -0.6228 -1.1806
  163MOL    H2139225   7.741   1.651   3.294 -0.9604  0.9409 -0.3051
  163MOL    H2239226   7.932   1.539   3.425  0.1241  0.5692  0.4774
  163MOL    H2339227   7.919   1.598   3.842  0.6250 -2.6981 -1.5411
  163MOL    H2439228   8.000   1.748   3.832 -0.8771  0.0604  0.1526
  163MOL    H2539229   0.065   1.586   3.842  2.1551  1.6814 -0.8585
  163MOL    C2639230   7.740   1.461   3.461  0.3920  0.4423 -0.2655
  163MOL    C2739231   7.776   1.345   3.366  0.3772 -0.4989 -0.2192
  163MOL    O2839232   7.897   1.277   3.405  0.7572 -0.3133  0.3181
  163MOL    C2939233   8.006   1.296   3.333  0.4077  0.5872 -0.6545
  163MOL    C3039234   0.103   1.236   3.400 -0.1650 -0.0912 -0.2762
  163MOL    O3139235   8.017   1.350   3.230 -0.2749  0.2293  0.6040
  163MOL    H3239236   7.738   1.424   3.564 -1.2203 -0.4219 -0.5837
  163MOL    H3339237   7.639   1.499   3.451  0.5890  1.1526  0.4414
  163MOL    H3439238   7.785   1.375   3.262  1.7336  1.2069  0.3538
  163MOL    H3539239   0.080   1.132   3.423  0.0403  0.0768  0.6972
  163MOL    H3639240   0.127   1.276   3.498 -1.3999  0.3503 -0.1471
  163MOL    H3739241   0.188   1.252   3.333  1.8330 -0.4247  2.1315
  163MOL    C3839242   7.667   1.234   3.362  0.7814 -0.0403  0.3223
  163MOL    C3939243   7.547   1.284   3.286 -0.0518  0.0516  0.3211
  163MOL    O4039244   7.591   1.340   3.163 -0.8717  0.7213 -0.1895
  163MOL    C4139245   7.548   1.456   3.125 -0.2562 -0.3782 -0.0400
  163MOL    C4239246   7.594   1.488   2.988 -0.3663  0.1091 -0.0653
  163MOL    O4339247   7.484   1.531   3.193  0.1341 -0.6996 -0.1371
  163MOL    H4439248   7.704   1.144   3.313  0.0477 -0.3339  0.3008
  163MOL    H4539249   7.644   1.213   3.466 -1.1971  1.8891  0.3011
  163MOL    H4639250   7.503   1.367   3.342 -0.1318 -0.4737  1.0513
  163MOL    H4739251   7.702   1.492   2.975 -0.1371  1.4673  2.0973
  163MOL    H4839252   7.554   1.582   2.951 -1.5536 -0.6586 -0.7677
  163MOL    H4939253   7.555   1.404   2.931  0.0617 -0.4643  0.4816
  163MOL    C5039254   7.432   1.177   3.276 -0.7466  0.5751  0.4290
  163MOL    C5139255   7.296   1.229   3.246  0.2962  0.0749 -0.7308
  163MOL    O5239256   7.231   1.146   3.153  0.3281  0.3549  0.2415
  163MOL    C5339257   7.212   1.173   3.027 -0.2086  0.1094  0.1514
  163MOL    C5439258   7.129   1.067   2.963 -0.2495 -0.1932  0.0024
  163MOL    O5539259   7.247   1.276   2.966  0.4506  1.2663 -0.5048
  163MOL    H5639260   7.464   1.102   3.203 -0.5933 -1.6666  2.7458
  163MOL    H5739261   7.429   1.117   3.366  3.7277  2.2685  1.8491
  163MOL    H5839262   7.305   1.325   3.194 -1.1007  0.2564 -0.6697
  163MOL    H5939263   7.176   0.980   3.009  1.5610  0.7528 -0.0061
  163MOL    H6039264   7.147   1.051   2.856  3.1147 -2.6113  0.8336
  163MOL    H6139265   7.021   1.076   2.973 -0.3332 -1.2086 -0.0011
  163MOL    C6239266   7.204   1.230   3.368  0.6343 -1.0276 -0.3975
  163MOL    C6339267   7.065   1.300   3.345 -0.2121 -0.5316  0.3553
  163MOL    O6439268   6.969   1.275   3.444  0.3532  0.2538 -0.3685
  163MOL    C6539269   6.842   1.271   3.417 -0.6724  0.2062 -0.2765
  163MOL    C6639270   6.767   1.243   3.543 -0.1886 -0.0849  0.2356
  163MOL    O6739271   6.796   1.287   3.305 -0.6799 -0.2808 -0.3331
  163MOL    H6839272   7.169   1.132   3.401 -2.4036  0.0457 -0.2894
  163MOL    H6939273   7.248   1.274   3.457 -0.4135  0.2436 -0.4962
  163MOL    H7039274   7.029   1.251   3.254  1.9503 -2.1881  0.3371
  163MOL    H7139275   6.686   1.171   3.527 -1.8675  1.8981 -0.5145
  163MOL    H7239276   6.717   1.333   3.578 -0.3532 -0.7747  1.8205
  163MOL    H7339277   6.837   1.208   3.618  0.6674  1.1001  0.0055
  163MOL    C7439278   7.068   1.452   3.317 -0.0174 -0.7961  0.5398
  163MOL    C7539279   7.074   1.555   3.437  0.0177  0.1999 -0.2623
  163MOL    O7639280   7.206   1.541   3.487 -0.2187 -0.1142  0.5452
  163MOL    C7739281   7.240   1.489   3.606 -0.1466  0.0947 -0.1685
  163MOL    C7839282   7.390   1.473   3.629 -0.3150  0.3192  0.1438
  163MOL    O7939283   7.157   1.454   3.693  0.8646 -0.1408 -0.4155
  163MOL    H8039284   7.148   1.468   3.244  0.8154 -0.2050  1.5744
  163MOL    H8139285   6.973   1.468   3.264  1.7213  1.1066 -2.1457
  163MOL    H8239286   6.996   1.541   3.512  1.0383 -1.7371  0.4644
  163MOL    H8339287   7.417   1.438   3.729  3.0636  1.1610 -0.3928
  163MOL    H8439288   7.438   1.571   3.616 -2.7156  1.3080 -1.7874
  163MOL    H8539289   7.439   1.398   3.567  2.6009  0.6468  1.9373
  163MOL    C8639290   7.069   1.699   3.380 -0.1740 -0.3558 -0.6007
  163MOL    C8739291   6.932   1.737   3.324 -0.2066 -0.6396 -0.0338
  163MOL    O8839292   6.851   1.751   3.434  0.2148 -0.4237  0.0723
  163MOL    C8939293   6.731   1.680   3.438  0.2342 -0.9533  0.1632
  163MOL    C9039294   6.645   1.714   3.564 -0.2239  0.0677  0.6885
  163MOL    O9139295   6.689   1.593   3.361  0.0216  0.2035 -0.5752
  163MOL    H9239296   7.094   1.766   3.462  0.3472 -1.4633  0.1627
  163MOL    H9339297   7.141   1.711   3.299  3.6745 -0.1146  2.6807
  163MOL    H9439298   6.899   1.672   3.244  0.2650 -0.3699 -0.4483
  163MOL    H9539299   6.572   1.635   3.584 -0.9152  1.7198  5.2231
  163MOL    H9639300   6.598   1.811   3.545  1.8528  0.7032 -1.4190
  163MOL    H9739301   6.699   1.729   3.657 -1.2788  0.9814  1.1692
  163MOL    C9839302   6.944   1.885   3.261  0.1885  0.0250 -0.2126
  163MOL    C9939303   6.984   1.876   3.115 -0.5121  0.1722  0.2333
  163MOL   O10039304   6.880   1.808   3.038  0.0919 -0.4251  0.2410
  163MOL   C10139305   6.908   1.704   2.954 -0.6385 -0.4205 -0.1558
  163MOL   C10239306   6.791   1.675   2.858 -0.2174 -0.4894 -1.2064
  163MOL   O10339307   7.014   1.645   2.951 -0.2740  0.0793  0.4816
  163MOL   H10439308   6.855   1.947   3.260  1.0323  1.2730 -0.0001
  163MOL   H10539309   7.025   1.942   3.306  0.3232 -0.5474  0.2697
  163MOL   H10639310   7.073   1.815   3.098 -0.3388  0.0069  1.7275
  163MOL   H10739311   6.823   1.726   2.767 -0.2807  1.2128 -0.2990
  163MOL   H10839312   6.702   1.732   2.885 -0.2438 -0.0116 -2.2457
  163MOL   H10939313   6.775   1.568   2.853  0.3245 -0.5418 -1.7988
  163MOL   C11039314   6.997   2.022   3.048 -0.1606 -0.4053 -0.1188
  163MOL   C11139315   7.051   2.016   2.905 -0.4616  0.1688  0.0883
  163MOL   O11239316   7.038   2.143   2.837  0.0031 -0.1069 -0.5700
  163MOL   C11339317   6.955   2.155   2.739 -0.5503  1.0126 -0.1783
  163MOL   C11439318   6.949   2.299   2.681  0.6005 -0.1931 -0.0674
  163MOL   O11539319   6.898   2.066   2.678 -0.0807 -0.2582  0.3490
  163MOL   H11639320   6.899   2.069   3.043  0.0945  0.1242 -0.1716
  163MOL   H11739321   7.056   2.083   3.117 -0.9416 -0.6720  0.7976
  163MOL   H11839322   7.005   1.934   2.849 -1.1204  0.0235  0.8152
  163MOL   H11939323   6.863   2.343   2.732 -0.5555  0.4009 -2.4657
  163MOL   H12039324   6.926   2.306   2.574 -1.7968 -1.5211  0.3299
  163MOL   H12139325   7.030   2.368   2.705 -1.6672  2.5553 -0.0703
  163MOL   C12239326   7.202   1.980   2.909 -0.7907 -0.1966 -0.1628
  163MOL   C12339327   7.266   1.924   2.782  0.0792  0.0773 -0.1714
  163MOL   O12439328   7.405   1.923   2.794 -0.4767  0.2572  0.4042
  163MOL   C12539329   7.476   2.011   2.718  0.1233  0.0358 -0.9623
  163MOL   C12639330   7.627   2.005   2.746 -0.1487  0.0808 -0.0355
  163MOL   O12739331   7.435   2.086   2.634  0.6103 -0.6097  0.4972
  163MOL   H12839332   7.253   2.074   2.926  0.8840 -1.2716  0.9535
  163MOL   H12939333   7.230   1.923   2.998  3.0964  2.0440  0.1675
  163MOL   H13039334   7.234   1.991   2.702  1.7761 -0.2525 -1.1495
  163MOL   H13139335   7.645   2.001   2.853 -1.3078  0.5374  0.1829
  163MOL   H13239336   7.692   2.083   2.706 -1.3257 -0.0417 -2.3030
  163MOL   H13339337   7.660   1.910   2.705 -2.2852 -1.7160  2.2542
  163MOL   C13439338   7.224   1.783   2.751  0.0525  0.3509  0.2106
  163MOL   C13539339   7.251   1.747   2.597  0.4929 -0.7159 -0.6798
  163MOL   O13639340   7.290   1.608   2.583  0.0967  0.0395 -0.0850
  163MOL   C13739341   7.397   1.573   2.511 -0.2308  0.1505  0.1103
  163MOL   C13839342   7.409   1.427   2.486  1.0994  0.2021  0.0845
  163MOL   O13939343   7.478   1.649   2.463  0.3040 -0.3045  0.0473
  163MOL   H14039344   7.279   1.717   2.818  1.8709 -1.5916 -3.0607
  163MOL   H14139345   7.115   1.776   2.760  0.0304  0.9587  0.3748
  163MOL   H14239346   7.335   1.808   2.566  0.1395  0.1381  0.0325
  163MOL   H14339347   7.487   1.389   2.552 -0.3113 -0.6625  1.2797
  163MOL   H14439348   7.455   1.393   2.393  0.4379 -2.6254  0.7666
  163MOL   H14539349   7.312   1.378   2.492  0.0075  2.3569  0.7920
  163MOL   C14639350   7.116   1.782   2.521  0.4339 -0.0797 -0.3628
  163MOL   C14739351   7.135   1.811   2.374 -0.1389  0.6241  0.7969
  163MOL   O14839352   7.009   1.786   2.311  0.3814 -0.2428  0.5196
  163MOL   C14939353   6.975   1.667   2.257 -0.0953  0.0765 -0.0550
  163MOL   C15039354   6.839   1.658   2.195  0.3345  0.0973  0.2242
  163MOL   O15139355   7.042   1.563   2.260 -0.0719 -0.1948 -0.6635
  163MOL   H15239356   7.047   1.699   2.538 -1.9074  1.9320  0.0748
  163MOL   H15339357   7.056   1.859   2.569 -0.1370 -1.6694  1.5460
  163MOL   H15439358   7.211   1.742   2.337 -0.0105  0.8807  0.5790
  163MOL   H15539359   6.763   1.627   2.266 -3.2199  0.3130 -3.2977
  163MOL   H15639360   6.843   1.579   2.120 -3.0129 -1.1779  1.2936
  163MOL   H15739361   6.804   1.750   2.147 -0.0611 -0.1220  0.0852
  163MOL   C15839362   7.169   1.960   2.350 -0.1457  0.4153  0.1437
  163MOL   C15939363   7.193   1.991   2.205  0.4052 -0.3790 -0.1797
  163MOL   O16039364   7.211   2.130   2.193  0.2026 -0.3444  0.1419
  163MOL   C16139365   7.122   2.210   2.132 -0.1105  0.2174 -0.0286
  163MOL   C16239366   7.142   2.358   2.159  0.0206  0.1399 -0.5489
  163MOL   O16339367   7.026   2.181   2.061  0.2656  0.1541 -0.2543
  163MOL   H16439368   7.095   2.026   2.394 -1.1241 -1.0738  0.7660
  163MOL   H16539369   7.269   1.973   2.392 -0.3282 -0.0444  0.7286
  163MOL   H16639370   7.109   1.973   2.139  0.8372  0.3389 -0.9266
  163MOL   H16739371   7.057   2.422   2.135  1.6293  3.1932  1.5829
  163MOL   H16839372   7.220   2.396   2.093  0.2811  0.8506  0.1625
  163MOL   H16939373   7.160   2.366   2.266 -0.6302  2.2940 -0.5723
  163MOL   C17039374   7.318   1.915   2.146 -0.3415  0.0165 -0.5989
  163MOL   C17139375   7.287   1.790   2.065 -0.0936  0.0466 -0.0784
  163MOL   O17239376   7.252   1.836   1.932 -0.0945 -0.9420  0.4443
  163MOL   C17339377   7.126   1.858   1.894  0.3297 -0.3694  0.3149
  163MOL   C17439378   7.112   1.901   1.747  0.7254 -0.4527  0.9135
  163MOL   O17539379   7.025   1.842   1.959 -0.6046  0.2727  0.1692
  163MOL   H17639380   7.372   1.986   2.082 -0.5737  0.2015 -0.5903
  163MOL   H17739381   7.396   1.907   2.222  1.0440  0.7307 -1.9156
  163MOL   H17839382   7.199   1.740   2.105  0.2910  1.1721  2.2269
  163MOL   H17939383   7.150   1.819   1.685  1.9019 -1.0995  2.4594
  163MOL   H18039384   7.178   1.987   1.731 -1.2380  0.9967  0.3640
  163MOL   H18139385   7.010   1.920   1.715  0.8924 -0.3153  0.4576
  163MOL   C18239386   7.410   1.697   2.054 -0.0616  0.4526 -0.3215
  163MOL   C18339387   7.374   1.581   1.961 -0.0980  0.4426  0.1313
  163MOL   O18439388   7.495   1.518   1.922 -0.0743  0.3693 -0.6700
  163MOL   C18539389   7.542   1.552   1.804  0.4756  0.5871 -0.4855
  163MOL   C18639390   7.640   1.443   1.758  0.1841 -0.5388 -0.1689
  163MOL   O18739391   7.513   1.647   1.732 -0.2023 -0.2426  0.7013
  163MOL   H18839392   7.482   1.758   1.999  0.9532 -1.2948 -0.9725
  163MOL   H18939393   7.456   1.671   2.149  0.1573 -1.7183 -1.0033
  163MOL   H19039394   7.314   1.603   1.872 -1.6054  0.8045  1.2143
  163MOL   H19139395   7.735   1.442   1.812  0.2740 -3.2449 -0.3229
  163MOL   H19239396   7.666   1.467   1.655 -0.0746 -0.3968 -0.2032
  163MOL   H19339397   7.606   1.340   1.752  0.1291 -0.6691  1.8632
  163MOL   C19439398   7.293   1.475   2.035 -0.0698 -0.3462  0.3877
  163MOL   C19539399   7.245   1.369   1.931  0.5468  0.4775  0.4394
  163MOL   O19639400   7.244   1.252   2.008  0.3826 -0.3939 -0.2074
  163MOL   C19739401   7.330   1.150   1.985  0.3062  0.7362  0.4993
  163MOL   C19839402   7.328   1.039   2.094 -0.6544  0.3351 -0.7095
  163MOL   O19939403   7.407   1.145   1.890  0.1966  0.3691 -0.1131
  163MOL   H20039404   7.363   1.436   2.110 -0.6598 -1.1564  0.5164
  163MOL   H20139405   7.214   1.522   2.094  0.3873 -0.0072  0.7452
  163MOL   H20239406   7.316   1.351   1.850 -1.2079 -3.1392 -0.3693
  163MOL   H20339407   7.411   0.973   2.068 -1.8683 -0.7427 -1.8957
  163MOL   H20439408   7.232   0.987   2.095 -1.9346  2.4586  3.7095
  163MOL   H20539409   7.336   1.084   2.193 -1.2212  1.8043 -1.3188
  163MOL   C20639410   7.102   1.400   1.873  0.2281 -0.4090  0.4348
  163MOL   C20739411   7.031   1.293   1.787  0.0581  0.1914 -0.4158
  163MOL   O20839412   6.985   1.180   1.872 -0.0723 -0.1590 -0.5368
  163MOL   C20939413   6.990   1.051   1.824  0.0005 -0.6690 -0.0565
  163MOL   C21039414   6.966   0.950   1.928  0.7421  0.0325  0.5597
  163MOL   O21139415   7.012   1.022   1.705  0.0827  0.1460  0.0024
  163MOL   H21239416   7.037   1.433   1.954  0.3643 -1.3898  0.9568
  163MOL   H21339417   7.104   1.489   1.809 -2.0682 -2.5943 -2.8599
  163MOL   H21439418   7.101   1.262   1.709  1.1288  0.2470  0.5158
  163MOL   H21539419   7.041   0.955   2.007  0.8406 -3.2041  0.7271
  163MOL   H21639420   6.974   0.848   1.891 -0.5038  0.0314  0.2629
  163MOL   H21739421   6.871   0.962   1.980  0.7205 -1.7121  0.9353
  163MOL   C21839422   6.907   1.341   1.712 -0.1005 -0.7278 -0.4423
  163MOL   C21939423   6.915   1.363   1.561 -0.0987 -0.2936 -0.1297
  163MOL   O22039424   7.027   1.446   1.532  0.8512 -0.0933  0.1331
  163MOL   C22139425   7.022   1.580   1.515 -0.1043  0.1257 -0.3386
  163MOL   C22239426   7.166   1.631   1.468 -0.5234 -0.1658 -0.1713
  163MOL   O22339427   6.925   1.652   1.540 -0.7147 -0.3597 -0.1408
  163MOL   H22439428   6.827   1.272   1.739 -1.2696  1.0676  0.8078
  163MOL   H22539429   6.874   1.440   1.745  0.3635 -0.5608 -0.4779
  163MOL   H22639430   6.824   1.419   1.536  0.5494  1.7599  1.9666
  163MOL   H22739431   7.175   1.614   1.361 -0.0912 -0.7474 -0.0457
  163MOL   H22839432   7.234   1.563   1.519 -1.6069 -2.5518 -1.7753
  163MOL   H22939433   7.191   1.733   1.495  1.1015 -0.4142 -0.7252
  163MOL   C23039434   6.923   1.233   1.478  0.9048  0.2129  0.2114
  163MOL   C23139435   6.913   1.249   1.327  0.3822  0.0667 -0.2458
  163MOL   O23239436   6.904   1.124   1.250  0.0299  0.3644  0.6569
  163MOL   C23339437   6.889   1.131   1.117  0.5376 -0.5898  0.1415
  163MOL   C23439438   6.880   0.999   1.051 -0.2531 -0.1769  0.1818
  163MOL   O23539439   6.881   1.232   1.042  0.6185 -0.0724  0.4437
  163MOL   H23639440   7.016   1.176   1.493  0.8269 -0.2203 -0.9540
  163MOL   H23739441   6.841   1.173   1.517  0.1660  2.8973  3.0437
  163MOL   H23839442   7.004   1.304   1.306  0.2526  0.2511 -0.3159
  163MOL   H23939443   6.786   1.006   0.996  0.4151 -2.3057 -1.2965
  163MOL   H24039444   6.864   0.922   1.127 -2.4736  0.5631  0.5146
  163MOL   H24139445   6.972   0.984   0.994 -0.7942  0.0728 -0.7637
  163MOL   H24239446   6.833   1.318   1.301 -0.5438 -0.8612  0.0637
  164MOL     C139447   2.724   3.189   1.086 -0.6472  0.7853 -0.6318
  164MOL     C239448   2.810   3.291   1.165 -0.4303  0.4772 -0.0971
  164MOL     O339449   2.744   3.344   1.280  0.1234  0.8121  0.9770
  164MOL     C439450   2.734   3.475   1.300 -0.4702  0.6192  0.0235
  164MOL     C539451   2.625   3.499   1.405 -0.8660  0.0460 -0.4498
  164MOL     O639452   2.793   3.564   1.246 -0.1980  0.1342  1.0788
  164MOL     H739453   2.617   3.205   1.096 -0.5320  0.4703  1.4241
  164MOL     H839454   2.754   3.087   1.111 -0.0739  1.0717 -0.1206
  164MOL     H939455   2.827   3.369   1.091  1.9739 -1.5647 -1.7679
  164MOL    H1039456   2.658   3.477   1.506  0.3596  0.2364 -0.8013
  164MOL    H1139457   2.541   3.435   1.378  0.1249 -0.6083 -2.0434
  164MOL    H1239458   2.565   3.590   1.397 -1.3112 -0.1883  0.2284
  164MOL    H1339459   2.742   3.200   0.979 -1.6468 -0.9975 -1.0027
  164MOL    C1439460   2.951   3.224   1.204 -0.4104 -0.7383  0.1639
  164MOL    C1539461   3.074   3.322   1.237 -0.1123  0.2722  0.1041
  164MOL    O1639462   3.038   3.384   1.364  0.2417  0.4862  0.3543
  164MOL    C1739463   3.087   3.497   1.412 -0.5832 -0.2117  0.5603
  164MOL    C1839464   3.029   3.533   1.550 -0.0225  0.0744 -0.5451
  164MOL    O1939465   3.170   3.568   1.357  0.0261  0.3177  0.1603
  164MOL    H2039466   2.942   3.152   1.285 -0.4131 -2.3351 -1.2442
  164MOL    H2139467   2.977   3.172   1.112 -2.0540 -1.3670  0.0307
  164MOL    H2239468   3.080   3.397   1.158 -0.3895 -0.1453 -0.3172
  164MOL    H2339469   3.073   3.624   1.591  0.1624 -0.3522  0.2103
  164MOL    H2439470   3.058   3.452   1.616  0.3275 -0.7581 -1.7035
  164MOL    H2539471   2.920   3.539   1.559 -0.0261 -0.8365 -0.0614
  164MOL    C2639472   3.210   3.256   1.249 -0.1585 -0.5036 -0.5759
  164MOL    C2739473   3.268   3.176   1.127 -0.4013  0.5636  0.1500
  164MOL    O2839474   3.290   3.283   1.028  0.4458 -0.4556  0.3500
  164MOL    C2939475   3.223   3.277   0.914  0.0018 -0.0177  0.6720
  164MOL    C3039476   3.251   3.398   0.818  0.5244  0.1479 -0.1117
  164MOL    O3139477   3.129   3.201   0.883  0.0221  0.0422  0.1188
  164MOL    H3239478   3.287   3.319   1.294 -2.1889  1.2553  0.4633
  164MOL    H3339479   3.200   3.185   1.331 -2.7291  0.4174 -0.0750
  164MOL    H3439480   3.200   3.098   1.095  0.9910 -0.6816  0.1535
  164MOL    H3539481   3.356   3.410   0.792  0.7454  2.5459  1.7118
  164MOL    H3639482   3.221   3.486   0.875 -1.2121 -1.4056  1.4105
  164MOL    H3739483   3.188   3.393   0.730 -2.2842 -1.5882  1.8980
  164MOL    C3839484   3.405   3.114   1.162  0.9398 -0.5153 -0.1861
  164MOL    C3939485   3.470   3.036   1.051 -0.8391  0.0571 -0.2514
  164MOL    O4039486   3.597   3.005   1.100  0.2561  0.2710 -0.0175
  164MOL    C4139487   3.711   3.046   1.036 -0.0781  0.4982 -0.3032
  164MOL    C4239488   3.838   2.987   1.094  0.4098 -0.3577  0.6331
  164MOL    O4339489   3.717   3.110   0.931 -0.1113  0.6176  0.0546
  164MOL    H4439490   3.469   3.199   1.188 -0.6130  1.2164 -1.8645
  164MOL    H4539491   3.403   3.068   1.261 -0.5812  2.9918  1.5037
  164MOL    H4639492   3.467   3.094   0.959 -0.3157 -1.0448 -0.9821
  164MOL    H4739493   3.922   2.996   1.025 -0.0974  0.7844  0.1572
  164MOL    H4839494   3.829   2.880   1.109  1.2318 -0.4195  0.6961
  164MOL    H4939495   3.870   3.039   1.184 -1.7526  2.5685 -0.1878
  164MOL    C5039496   3.391   2.905   1.010 -0.7502  0.4161  0.6846
  164MOL    C5139497   3.411   2.850   0.863 -0.4513 -0.1943  0.4745
  164MOL    O5239498   3.555   2.832   0.842 -0.6580 -0.2484  0.0196
  164MOL    C5339499   3.599   2.861   0.712 -0.3739  0.1012  0.1611
  164MOL    C5439500   3.747   2.867   0.696 -0.0921  0.1939  0.1261
  164MOL    O5539501   3.520   2.887   0.621  0.2317 -0.0768 -0.1883
  164MOL    H5639502   3.415   2.825   1.081  0.2018 -0.4634 -0.6160
  164MOL    H5739503   3.285   2.926   1.026 -0.7982  0.6492  0.0874
  164MOL    H5839504   3.360   2.919   0.796 -1.4080 -2.1737 -0.8636
  164MOL    H5939505   3.790   2.943   0.761 -3.3667  4.1602 -2.1518
  164MOL    H6039506   3.760   2.885   0.589 -0.2009 -1.0713 -0.1098
  164MOL    H6139507   3.776   2.765   0.724  2.5477  1.0732  0.7389
  164MOL    C6239508   3.348   2.710   0.836  0.2728 -0.4798  1.1457
  164MOL    C6339509   3.193   2.707   0.846 -0.7852 -0.2143  0.3559
  164MOL    O6439510   3.136   2.819   0.777  0.5586 -0.1924 -0.1292
  164MOL    C6539511   3.023   2.879   0.823 -0.4351  0.2219  1.1660
  164MOL    C6639512   2.950   2.961   0.716 -0.0781  0.6227  0.2752
  164MOL    O6739513   2.971   2.860   0.932  0.0050 -0.6293 -0.4615
  164MOL    H6839514   3.376   2.685   0.734  0.8696 -0.2660  1.2562
  164MOL    H6939515   3.382   2.644   0.916  2.1059 -0.5421  0.3516
  164MOL    H7039516   3.165   2.712   0.951 -0.2540 -0.3824  0.5091
  164MOL    H7139517   3.019   3.034   0.672  1.0629 -0.8952 -0.5220
  164MOL    H7239518   2.863   3.001   0.768 -1.2411 -1.6122  0.1142
  164MOL    H7339519   2.920   2.897   0.633  1.1138 -1.4665  1.4071
  164MOL    C7439520   3.123   2.575   0.785 -0.2613 -0.5564 -0.0720
  164MOL    C7539521   3.204   2.449   0.784  0.1278  0.5166 -0.2196
  164MOL    O7639522   3.241   2.402   0.915 -0.5462 -0.1757  0.0927
  164MOL    C7739523   3.373   2.374   0.947  0.7467  0.6459  0.2093
  164MOL    C7839524   3.398   2.328   1.085  0.7423 -0.0448 -0.7000
  164MOL    O7939525   3.465   2.388   0.873  0.0443  0.1937  0.0457
  164MOL    H8039526   3.034   2.566   0.848  0.8524  1.9502  1.9539
  164MOL    H8139527   3.093   2.605   0.685  2.6299 -0.9722 -1.1251
  164MOL    H8239528   3.296   2.474   0.731 -0.1836  1.6735 -0.2299
  164MOL    H8339529   3.502   2.298   1.091  0.1992 -1.7567  0.6503
  164MOL    H8439530   3.346   2.236   1.112  1.3363 -0.3931 -0.7407
  164MOL    H8539531   3.377   2.402   1.162 -0.5015  1.5166 -2.4966
  164MOL    C8639532   3.146   2.339   0.689  0.1581 -0.0771 -0.1505
  164MOL    C8739533   3.229   2.199   0.691 -0.5162  0.9689  0.2620
  164MOL    O8839534   3.161   2.110   0.789  0.4164 -0.1607  0.3911
  164MOL    C8939535   3.224   2.041   0.880  0.3768  0.2236 -0.2072
  164MOL    C9039536   3.125   1.963   0.964  0.3491 -0.4458  0.7514
  164MOL    O9139537   3.345   2.037   0.895  0.4939 -0.5805 -0.1218
  164MOL    H9239538   3.043   2.317   0.720  0.3340  0.2306  0.6586
  164MOL    H9339539   3.135   2.367   0.584  2.1731  1.2535 -0.0297
  164MOL    H9439540   3.332   2.218   0.721  0.1600 -1.0352 -0.6877
  164MOL    H9539541   3.069   2.039   1.018 -0.2171 -1.1659  1.1767
  164MOL    H9639542   3.166   1.889   1.033  0.3473 -1.8779 -0.7553
  164MOL    H9739543   3.060   1.912   0.893  2.1074 -0.0376 -1.2096
  164MOL    C9839544   3.231   2.123   0.553  0.9000  0.6645 -0.7263
  164MOL    C9939545   3.356   2.030   0.527  0.2587  0.3389  0.1239
  164MOL   O10039546   3.383   1.933   0.620 -0.6551 -0.2713 -0.5144
  164MOL   C10139547   3.511   1.887   0.631  0.2361 -0.1037  0.5308
  164MOL   C10239548   3.526   1.786   0.747  0.0028 -0.2514  0.6692
  164MOL   O10339549   3.604   1.913   0.557 -0.4466  0.3805 -0.0269
  164MOL   H10439550   3.136   2.069   0.548  0.9378  0.3930  1.3104
  164MOL   H10539551   3.220   2.203   0.480 -1.8651 -0.8752 -2.0943
  164MOL   H10639552   3.440   2.099   0.526 -1.4337  2.5560  2.6470
  164MOL   H10739553   3.442   1.717   0.753 -1.4598  1.4539  0.1774
  164MOL   H10839554   3.508   1.834   0.843 -1.7414  1.0185 -0.2434
  164MOL   H10939555   3.621   1.733   0.743 -0.4626 -1.1024  0.8841
  164MOL   C11039556   3.340   1.962   0.392 -0.5011 -0.1915  0.0382
  164MOL   C11139557   3.430   2.003   0.277  0.0411 -0.1809 -0.3882
  164MOL   O11239558   3.404   1.900   0.183  0.2038 -0.5165  0.2357
  164MOL   C11339559   3.498   1.846   0.108  0.0308  0.1476 -0.7759
  164MOL   C11439560   3.450   1.728   0.016 -0.3791  0.5430  0.3644
  164MOL   O11539561   3.618   1.879   0.111  0.0275 -0.6730  0.3880
  164MOL   H11639562   3.366   1.857   0.405  0.4260  0.1478  0.9272
  164MOL   H11739563   3.234   1.955   0.366 -0.0064 -1.0516 -1.8058
  164MOL   H11839564   3.536   2.002   0.302  0.7010 -1.6758 -3.0546
  164MOL   H11939565   3.528   1.682   7.976  0.0937  1.9059 -0.0727
  164MOL   H12039566   3.370   1.764   7.974  2.1480  2.2400 -2.0021
  164MOL   H12139567   3.402   1.651   0.076  1.4975 -1.5984 -0.8075
  164MOL   C12239568   3.407   2.141   0.215 -0.3537  0.4218 -0.0494
  164MOL   C12339569   3.537   2.232   0.226  0.7795  0.0017  0.2820
  164MOL   O12439570   3.627   2.165   0.133  0.4030  0.1363 -0.1666
  164MOL   C12539571   3.767   2.168   0.162  0.5505  0.2451  0.1447
  164MOL   C12639572   3.849   2.090   0.058 -0.6408  0.3445 -0.1508
  164MOL   O12739573   3.817   2.218   0.263  0.0302 -0.0054  0.2415
  164MOL   H12839574   3.389   2.129   0.108  1.3551  0.5007 -0.3567
  164MOL   H12939575   3.314   2.184   0.253 -1.8724 -0.3104 -2.7502
  164MOL   H13039576   3.583   2.221   0.325 -0.3784 -2.5866  0.5892
  164MOL   H13139577   3.773   2.051   8.011 -0.6901  2.2157 -1.2008
  164MOL   H13239578   3.881   1.989   0.083 -0.7164 -0.5234 -3.3152
  164MOL   H13339579   3.929   2.137   0.001  1.2618  0.2393  2.3981
  164MOL   C13439580   3.521   2.381   0.191 -0.2275  0.3249 -0.4844
  164MOL   C13539581   3.466   2.465   0.309  0.2879  0.9314  0.1974
  164MOL   O13639582   3.557   2.467   0.420  0.5316  0.3252  0.4217
  164MOL   C13739583   3.532   2.416   0.540 -0.9790  0.1136 -0.4858
  164MOL   C13839584   3.637   2.464   0.641 -0.4136 -0.0066  0.8040
  164MOL   O13939585   3.437   2.348   0.564  0.2101  0.0245 -0.1029
  164MOL   H14039586   3.613   2.432   0.161  1.0385 -0.2108  2.3360
  164MOL   H14139587   3.454   2.385   0.105 -1.1345 -0.9309  0.1351
  164MOL   H14239588   3.366   2.433   0.340 -1.0368  1.7526 -3.0620
  164MOL   H14339589   3.585   2.525   0.714  1.5346  0.1173  2.1363
  164MOL   H14439590   3.723   2.525   0.611 -0.8761  1.1885  1.8885
  164MOL   H14539591   3.670   2.379   0.701  1.5267 -1.0040 -1.5598
  164MOL   C14639592   3.459   2.603   0.258  0.1973  0.1625  0.1762
  164MOL   C14739593   3.417   2.718   0.360 -0.1628 -0.2039  0.0692
  164MOL   O14839594   3.397   2.839   0.286  0.3491 -0.0755 -0.2698
  164MOL   C14939595   3.497   2.928   0.279  0.1822 -0.7476  0.0471
  164MOL   C15039596   3.455   3.057   0.213 -0.5188 -0.1768 -0.6049
  164MOL   O15139597   3.609   2.898   0.319  0.1211  0.9822  0.4985
  164MOL   H15239598   3.555   2.632   0.215  0.2349 -0.1129  0.0706
  164MOL   H15339599   3.387   2.595   0.177 -1.0705  1.1891  1.1900
  164MOL   H15439600   3.491   2.725   0.440 -1.1672  1.3671  0.8763
  164MOL   H15539601   3.547   3.093   0.168  0.5269  1.0832  2.4469
  164MOL   H15639602   3.426   3.125   0.293 -0.9057 -1.4522  0.3582
  164MOL   H15739603   3.374   3.040   0.141 -2.3371  1.1790  1.0551
  164MOL   C15839604   3.284   2.691   0.436 -0.4372 -0.9182  0.4532
  164MOL   C15939605   3.157   2.696   0.350 -0.4555  0.7576  0.7703
  164MOL   O16039606   3.106   2.561   0.358  0.4560 -0.3755 -0.0681
  164MOL   C16139607   3.060   2.494   0.256 -0.2008  0.3950  1.1774
  164MOL   C16239608   2.991   2.360   0.292  0.6149 -0.0481 -0.9810
  164MOL   O16339609   3.085   2.518   0.135  0.1487 -0.5402  0.0031
  164MOL   H16439610   3.295   2.596   0.489 -1.9101 -0.2691  1.9762
  164MOL   H16539611   3.294   2.773   0.506 -0.9564  0.5104 -1.1208
  164MOL   H16639612   3.174   2.720   0.245 -0.1637  2.1607  1.1299
  164MOL   H16739613   3.072   2.290   0.310  0.1170 -0.6529 -1.0831
  164MOL   H16839614   2.938   2.333   0.200 -0.6257 -0.8518 -0.0494
  164MOL   H16939615   2.920   2.363   0.374  0.1701 -2.0670 -1.2665
  164MOL   C17039616   3.050   2.792   0.391 -0.0049 -0.3709  0.2681
  164MOL   C17139617   3.078   2.938   0.348 -0.3149 -0.1977 -0.0614
  164MOL   O17239618   3.186   2.993   0.422  0.0516  0.4403  0.3931
  164MOL   C17339619   3.183   3.116   0.471  0.3649 -0.1323 -0.1824
  164MOL   C17439620   3.316   3.148   0.546 -0.6590 -0.2767 -0.2758
  164MOL   O17539621   3.093   3.195   0.474  0.2327 -0.2231  0.3728
  164MOL   H17639622   2.964   2.762   0.332  1.5405  0.5547 -2.5651
  164MOL   H17739623   3.018   2.785   0.495 -0.1695  0.2671  0.2657
  164MOL   H17839624   2.990   3.001   0.363  0.5583  1.0025  0.1421
  164MOL   H17939625   3.338   3.254   0.546  0.4513 -0.4999 -0.1125
  164MOL   H18039626   3.406   3.114   0.494  1.7620  2.0850  2.2240
  164MOL   H18139627   3.324   3.099   0.643 -0.3217 -0.9422 -0.6322
  164MOL   C18239628   3.086   2.960   0.193 -0.5091 -0.8664  0.2208
  164MOL   C18339629   2.967   2.912   0.106 -0.1627  0.1572  0.8015
  164MOL   O18439630   2.850   2.951   0.178  0.1056  0.0577 -0.6869
  164MOL   C18539631   2.743   2.868   0.186  0.2920 -0.1010  0.2441
  164MOL   C18639632   2.618   2.925   0.246 -0.3801  0.2373  0.0974
  164MOL   O18739633   2.750   2.754   0.142  0.4447 -0.0708  0.4331
  164MOL   H18839634   3.096   3.069   0.185 -2.0496 -0.8321 -1.4117
  164MOL   H18939635   3.177   2.917   0.152 -1.5126 -0.4585 -2.5487
  164MOL   H19039636   2.969   2.803   0.104  0.9376  0.1757 -1.7814
  164MOL   H19139637   2.623   2.914   0.355  1.4462 -1.5476 -0.1316
  164MOL   H19239638   2.533   2.871   0.206  1.6598 -0.6296 -3.2897
  164MOL   H19339639   2.619   3.032   0.225  2.4787 -0.0862 -1.7120
  164MOL   C19439640   2.970   2.974   7.989  0.4211 -0.5142  0.4884
  164MOL   C19539641   3.095   2.947   7.909 -0.4668 -0.6248  0.5364
  164MOL   O19639642   3.107   2.812   7.891  0.0565 -0.5237  0.0718
  164MOL   C19739643   3.222   2.745   7.875 -0.7875 -0.1606  0.0598
  164MOL   C19839644   3.213   2.592   7.873  0.4802  0.2024 -0.0690
  164MOL   O19939645   3.338   2.800   7.863 -0.8402  0.0287 -0.3034
  164MOL   H20039646   2.881   2.941   7.935 -0.2918  0.0086  1.3179
  164MOL   H20139647   2.949   3.081   7.997 -0.7902 -0.5150 -2.0841
  164MOL   H20239648   3.187   2.971   7.962 -0.0570 -3.3522  1.1244
  164MOL   H20339649   3.278   2.538   7.941  0.2059  0.4431  0.3822
  164MOL   H20439650   3.231   2.564   7.769 -2.0762  2.1246 -1.0779
  164MOL   H20539651   3.112   2.558   7.896  1.2419 -1.6196  0.7436
  164MOL   C20639652   3.092   3.028   7.776 -0.0498  0.2157 -0.1180
  164MOL   C20739653   3.139   3.175   7.779 -0.6031 -0.5763  1.0104
  164MOL   O20839654   3.279   3.190   7.800 -0.0654  0.4632 -0.4564
  164MOL   C20939655   3.331   3.210   7.921 -0.6349  0.0800 -0.0695
  164MOL   C21039656   3.482   3.230   7.930  0.4117  0.0257  0.1786
  164MOL   O21139657   3.267   3.204   0.004  0.4394  0.1850 -0.2221
  164MOL   H21239658   3.166   2.976   7.715  1.6038  0.9378  1.2224
  164MOL   H21339659   2.992   3.017   7.735 -0.0984  2.4434 -0.6709
  164MOL   H21439660   3.080   3.228   7.853  1.2140  0.6040  1.6296
  164MOL   H21539661   3.509   3.244   0.014  0.8984 -0.4267  0.1171
  164MOL   H21639662   3.524   3.308   7.867 -2.8577  1.3337 -0.4710
  164MOL   H21739663   3.533   3.140   7.896  0.5619  0.6576 -1.2871
  164MOL   C21839664   3.110   3.232   7.638  0.1255  0.2445  0.5353
  164MOL   C21939665   2.958   3.262   7.610  0.1032  0.0315 -0.3574
  164MOL   O22039666   2.901   3.351   7.706 -0.1712  0.2138 -0.0847
  164MOL   C22139667   2.772   3.340   7.754 -0.0880 -0.1016 -0.5513
  164MOL   C22239668   2.739   3.444   7.858  0.5306 -0.8796 -0.6171
  164MOL   O22339669   2.683   3.264   7.707 -0.1605 -0.2288  0.6764
  164MOL   H22439670   3.176   3.318   7.626  1.3954 -1.0601 -2.1045
  164MOL   H22539671   3.145   3.150   7.577 -1.1317 -0.9422  1.3836
  164MOL   H22639672   2.906   3.166   7.608 -0.6046  0.3992  0.1423
  164MOL   H22739673   2.806   3.529   7.871  0.7222 -1.0697 -0.3591
  164MOL   H22839674   2.715   3.392   7.950  0.5643  1.2204  0.6281
  164MOL   H22939675   2.645   3.495   7.836  0.0959 -1.6190 -0.4631
  164MOL   C23039676   2.950   3.335   7.478  0.1633  0.0220 -0.2922
  164MOL   C23139677   2.980   3.253   7.348 -0.1272  0.8515  0.2814
  164MOL   O23239678   2.981   3.341   7.240  0.7774 -0.3002  0.0335
  164MOL   C23339679   3.084   3.417   7.221  0.8348 -0.0167  0.2938
  164MOL   C23439680   3.046   3.537   7.137  0.0421 -0.4914  0.1242
  164MOL   O23539681   3.195   3.398   7.266  0.1717 -0.0154  0.5846
  164MOL   H23639682   2.854   3.386   7.476  0.2409  0.2032  0.4277
  164MOL   H23739683   3.026   3.412   7.489 -2.0357  1.9251  2.6289
  164MOL   H23839684   2.903   3.180   7.321  1.1761 -0.2382 -0.5536
  164MOL   H23939685   2.986   3.603   7.199 -1.1583 -0.0120 -1.4976
  164MOL   H24039686   3.001   3.505   7.043 -1.3635 -0.9336  0.9356
  164MOL   H24139687   3.136   3.593   7.110 -1.2493  2.2206  1.2201
  164MOL   H24239688   3.065   3.188   7.369 -1.1071 -0.5296  0.0798
  165MOL     C139689   4.673   2.747   2.292  0.4004  0.3365  0.1446
  165MOL     C239690   4.723   2.731   2.431  0.1113  0.2817 -0.1254
  165MOL     O339691   4.730   2.862   2.484  0.4549  0.1947  0.4586
  165MOL     C439692   4.827   2.893   2.573  0.3329  0.6679  0.3521
  165MOL     C539693   4.807   3.020   2.646 -0.0394 -0.5903 -0.2509
  165MOL     O639694   4.932   2.835   2.595 -0.0559 -0.6138  1.1346
  165MOL     H739695   4.571   2.782   2.279  0.3686  0.6863  1.3098
  165MOL     H839696   4.665   2.643   2.259 -1.6060  0.4474  0.2325
  165MOL     H939697   4.822   2.687   2.426  0.4276  1.1271 -1.5764
  165MOL    H1039698   4.700   3.040   2.644 -0.0722 -0.7369 -0.0053
  165MOL    H1139699   4.865   3.101   2.603 -0.0638 -0.4533 -0.0250
  165MOL    H1239700   4.813   3.009   2.754 -0.5703 -1.3822 -0.2986
  165MOL    H1339701   4.745   2.807   2.236 -0.3677  1.3399  0.2206
  165MOL    C1439702   4.648   2.628   2.518  0.3244  0.5993  0.1618
  165MOL    C1539703   4.747   2.556   2.615 -0.0224 -0.1269 -0.2874
  165MOL    O1639704   4.692   2.527   2.747  0.0724 -0.5242  0.2813
  165MOL    C1739705   4.690   2.629   2.837 -0.3189  0.2678 -0.0388
  165MOL    C1839706   4.611   2.577   2.956 -0.0175  1.2145  0.3158
  165MOL    O1939707   4.744   2.736   2.826  0.2143 -0.0956 -0.3017
  165MOL    H2039708   4.578   2.694   2.569 -1.0222  0.4780 -1.5005
  165MOL    H2139709   4.584   2.556   2.468 -0.9686  3.7099 -2.8984
  165MOL    H2239710   4.834   2.621   2.623  1.9259 -2.5063 -1.3212
  165MOL    H2339711   4.682   2.527   3.022  0.2747  0.8464 -0.2686
  165MOL    H2439712   4.528   2.516   2.919  2.2332 -0.6807 -1.8253
  165MOL    H2539713   4.564   2.658   3.011 -0.0195  3.0357 -2.2913
  165MOL    C2639714   4.797   2.416   2.568  0.9496 -0.1134  0.4229
  165MOL    C2739715   4.921   2.357   2.644 -0.4265 -0.1251  0.0013
  165MOL    O2839716   4.920   2.217   2.622 -0.4649  0.1264 -0.1003
  165MOL    C2939717   4.840   2.138   2.698  0.4200  0.3736 -0.8279
  165MOL    C3039718   4.854   1.989   2.660 -0.4026  0.0788  0.1052
  165MOL    O3139719   4.763   2.171   2.788 -0.0137  0.2616  0.0649
  165MOL    H3239720   4.716   2.343   2.562 -0.9384  1.8194  1.3450
  165MOL    H3339721   4.823   2.430   2.464 -0.5127 -0.0389  0.0532
  165MOL    H3439722   4.912   2.368   2.752 -1.1005 -0.7616  0.0226
  165MOL    H3539723   4.815   1.971   2.560  3.0329 -0.9617 -1.1308
  165MOL    H3639724   4.804   1.930   2.737  2.1924  0.6800  2.3484
  165MOL    H3739725   4.959   1.961   2.649 -0.5469 -0.0988 -0.8308
  165MOL    C3839726   5.065   2.405   2.598  0.0201 -0.4745 -0.2585
  165MOL    C3939727   5.119   2.515   2.690  0.4705 -0.5693 -0.5491
  165MOL    O4039728   5.141   2.446   2.814 -0.2962  0.0044  0.0676
  165MOL    C4139729   5.096   2.503   2.934  0.8978  0.0770 -0.1712
  165MOL    C4239730   5.153   2.432   3.057  1.1913 -0.2047 -0.2803
  165MOL    O4339731   5.029   2.605   2.937  0.7108  0.6892  0.1877
  165MOL    H4439732   5.131   2.318   2.588  0.3975  0.0368 -2.3549
  165MOL    H4539733   5.056   2.446   2.498 -0.6393  0.9303  0.3645
  165MOL    H4639734   5.040   2.590   2.694  0.3713 -0.7050  0.2329
  165MOL    H4739735   5.150   2.494   3.146 -1.8189 -0.8156  0.0812
  165MOL    H4839736   5.261   2.426   3.043  1.2986  0.9630  0.0626
  165MOL    H4939737   5.100   2.338   3.072 -0.4604  0.3134 -2.5919
  165MOL    C5039738   5.246   2.574   2.635 -0.0712 -0.5451  0.3979
  165MOL    C5139739   5.310   2.677   2.735  0.2241  0.6723  0.0067
  165MOL    O5239740   5.452   2.680   2.709  0.3405  0.4791  0.7109
  165MOL    C5339741   5.537   2.594   2.772  0.1597  0.9280 -0.6603
  165MOL    C5439742   5.678   2.640   2.784  0.0570 -0.3161 -0.2647
  165MOL    O5539743   5.505   2.485   2.822 -0.6295 -0.3933  0.2970
  165MOL    H5639744   5.319   2.492   2.636  2.3452  1.5353  0.9504
  165MOL    H5739745   5.244   2.604   2.531 -1.5551 -1.9974 -0.0143
  165MOL    H5839746   5.303   2.658   2.842 -0.8339 -3.5137 -0.7273
  165MOL    H5939747   5.684   2.710   2.701 -1.2876  0.5685  0.3513
  165MOL    H6039748   5.748   2.557   2.782 -1.4651 -1.6180 -0.3633
  165MOL    H6139749   5.687   2.683   2.884 -0.4120 -2.7163  0.8349
  165MOL    C6239750   5.252   2.821   2.721 -0.2459  0.0210 -0.2748
  165MOL    C6339751   5.315   2.922   2.822 -0.1710  0.0610  0.7766
  165MOL    O6439752   5.452   2.945   2.789  0.2611 -0.5955 -0.1001
  165MOL    C6539753   5.544   2.973   2.881  0.6846  0.0249  0.7067
  165MOL    C6639754   5.683   3.004   2.822  0.0310  0.0770 -1.2110
  165MOL    O6739755   5.521   2.971   3.003  0.2415  0.3030 -0.2768
  165MOL    H6839756   5.282   2.857   2.623  3.4157 -0.8903  0.4253
  165MOL    H6939757   5.143   2.820   2.725 -0.3331  2.3425 -1.3708
  165MOL    H7039758   5.302   2.872   2.918 -0.3173 -3.0706 -0.7814
  165MOL    H7139759   5.714   2.923   2.756 -2.3123 -1.1410 -0.8689
  165MOL    H7239760   5.764   3.029   2.891 -0.8649  0.4146 -0.2648
  165MOL    H7339761   5.683   3.098   2.766 -0.2797 -0.2506 -1.7670
  165MOL    C7439762   5.235   3.054   2.821  0.0154 -0.1451  0.4649
  165MOL    C7539763   5.150   3.085   2.943 -0.2514  0.1309  0.1856
  165MOL    O7639764   5.119   3.222   2.925 -0.5321  0.7520 -0.3153
  165MOL    C7739765   5.189   3.313   2.999  0.7644 -0.0394  0.2255
  165MOL    C7839766   5.122   3.451   2.998 -0.2847 -0.2703 -0.0799
  165MOL    O7939767   5.290   3.299   3.065  0.5058  0.1469 -0.3949
  165MOL    H8039768   5.298   3.143   2.809 -2.2040  1.8108  2.7871
  165MOL    H8139769   5.177   3.066   2.730 -0.2966  1.1525  0.8293
  165MOL    H8239770   5.196   3.072   3.041  1.5536 -0.8785 -0.7619
  165MOL    H8339771   5.149   3.507   2.908 -1.0780 -0.2242 -0.2920
  165MOL    H8439772   5.138   3.506   3.091  1.0151  0.3163 -0.6443
  165MOL    H8539773   5.014   3.441   3.010 -0.1691  1.5263  3.0256
  165MOL    C8639774   5.011   3.013   2.965 -0.2499 -0.9008  0.3689
  165MOL    C8739775   4.979   2.993   3.117  0.4637  0.1134  0.6657
  165MOL    O8839776   4.927   3.118   3.170  0.2491  0.4680  0.0457
  165MOL    C8939777   4.961   3.152   3.291  0.1522 -0.0566  0.2207
  165MOL    C9039778   4.905   3.282   3.344 -0.7820  0.3182  0.0156
  165MOL    O9139779   5.025   3.082   3.372 -0.0932 -0.2645 -0.2210
  165MOL    H9239780   4.927   3.060   2.913 -0.3224 -0.6005  0.7571
  165MOL    H9339781   5.023   2.916   2.917  1.7376 -1.0168  1.0718
  165MOL    H9439782   5.068   2.953   3.165 -0.4059 -1.5763  0.9147
  165MOL    H9539783   4.910   3.366   3.275 -1.7681 -0.8948 -1.5883
  165MOL    H9639784   4.964   3.290   3.435 -0.1706 -0.2877 -0.3259
  165MOL    H9739785   4.802   3.270   3.377 -1.0732 -0.2686 -1.0594
  165MOL    C9839786   4.874   2.884   3.128  0.0249  0.2939  0.6504
  165MOL    C9939787   4.866   2.814   3.266  0.0398 -0.3527  0.2348
  165MOL   O10039788   4.742   2.740   3.277  0.4716 -0.3291 -0.2120
  165MOL   C10139789   4.629   2.794   3.302 -0.2756 -0.6425 -0.2213
  165MOL   C10239790   4.520   2.686   3.318  0.0156 -0.9094 -0.0449
  165MOL   O10339791   4.614   2.913   3.314  0.5302  0.4426 -0.4813
  165MOL   H10439792   4.774   2.924   3.112 -0.4882 -0.6058  1.6134
  165MOL   H10539793   4.878   2.811   3.046 -0.3345  0.0991  0.8085
  165MOL   H10639794   4.864   2.891   3.343  0.2301 -0.2080  0.0957
  165MOL   H10739795   4.451   2.706   3.399  0.6485 -0.3697  0.3618
  165MOL   H10839796   4.570   2.591   3.338 -0.2707 -0.9897  0.2861
  165MOL   H10939797   4.474   2.681   3.219  1.7189 -1.0779 -0.8451
  165MOL   C11039798   4.978   2.715   3.292 -0.0964 -0.2783 -0.0194
  165MOL   C11139799   4.977   2.635   3.422 -0.1116 -0.5580 -0.0478
  165MOL   O11239800   5.039   2.507   3.412 -0.0532 -0.3781 -0.1554
  165MOL   C11339801   4.970   2.392   3.406  0.6072  0.3288  0.0526
  165MOL   C11439802   5.061   2.269   3.404  0.2249  0.0461  0.1568
  165MOL   O11539803   4.848   2.381   3.403  0.5550 -0.3003 -0.0122
  165MOL   H11639804   4.998   2.654   3.204  2.3687  0.5808 -0.1097
  165MOL   H11739805   5.065   2.781   3.293  1.1466 -1.8701 -0.6097
  165MOL   H11839806   4.872   2.630   3.453 -0.1590 -0.7740 -0.2494
  165MOL   H11939807   5.011   2.184   3.360 -3.0608  2.7489 -1.5654
  165MOL   H12039808   5.074   2.240   3.508 -1.0748  1.8300  0.8380
  165MOL   H12139809   5.148   2.285   3.340  0.0651  1.1955  0.2116
  165MOL   C12239810   5.045   2.721   3.533 -0.3323 -0.7130  0.4620
  165MOL   C12339811   5.021   2.685   3.677 -0.2250  0.5425  0.5096
  165MOL   O12439812   4.897   2.623   3.690 -0.0560  0.3503 -0.2599
  165MOL   C12539813   4.792   2.697   3.710 -0.7194  1.0475  0.5082
  165MOL   C12639814   4.666   2.615   3.711 -0.2928 -0.7689  0.2410
  165MOL   O12739815   4.780   2.821   3.720 -0.4255 -0.2670 -0.4076
  165MOL   H12839816   5.149   2.742   3.506 -0.2891 -2.5287 -0.8622
  165MOL   H12939817   4.993   2.815   3.521  0.0886 -0.4608  0.5896
  165MOL   H13039818   5.014   2.773   3.741 -1.4799  0.1282  0.9557
  165MOL   H13139819   4.625   2.595   3.612 -1.2324  0.3936  0.3847
  165MOL   H13239820   4.583   2.654   3.770  0.4700  0.7808  0.3071
  165MOL   H13339821   4.680   2.523   3.767 -0.7261  0.2082  1.9661
  165MOL   C13439822   5.117   2.587   3.742 -0.3617  0.1913  1.0864
  165MOL   C13539823   5.274   2.610   3.724 -0.1487 -0.6819  0.2580
  165MOL   O13639824   5.325   2.584   3.597 -0.0738  0.2661 -0.0097
  165MOL   C13739825   5.396   2.475   3.573 -0.4982  0.2228 -0.1227
  165MOL   C13839826   5.426   2.467   3.429  0.0810 -0.1125 -0.4725
  165MOL   O13939827   5.439   2.393   3.650  0.2991  0.3141  0.7803
  165MOL   H14039828   5.100   2.587   3.849  0.5130 -3.0749  1.2607
  165MOL   H14139829   5.102   2.486   3.705  1.6392  0.6783 -1.2115
  165MOL   H14239830   5.323   2.541   3.793 -1.1014 -1.2731  0.3582
  165MOL   H14339831   5.359   2.531   3.371 -2.0411 -1.4052  0.4700
  165MOL   H14439832   5.404   2.363   3.403  1.6011 -1.0759  1.9876
  165MOL   H14539833   5.533   2.478   3.417  0.4203 -2.2440  0.3298
  165MOL   C14639834   5.317   2.752   3.757 -0.9013  0.0194 -0.1763
  165MOL   C14739835   5.461   2.774   3.790 -0.0304 -0.3306 -1.6981
  165MOL   O14839836   5.521   2.793   3.666  0.1944  0.2575 -0.6493
  165MOL   C14939837   5.638   2.732   3.642 -0.6322 -0.8652 -0.0549
  165MOL   C15039838   5.708   2.778   3.518  0.1677 -0.1540  0.3652
  165MOL   O15139839   5.698   2.654   3.721 -0.6586  0.1406 -0.3840
  165MOL   H15239840   5.277   2.811   3.675 -2.0246 -0.9126 -0.3035
  165MOL   H15339841   5.262   2.775   3.848 -0.3508  1.8455 -0.2749
  165MOL   H15439842   5.495   2.682   3.837 -1.0690  0.4817  0.6976
  165MOL   H15539843   5.815   2.787   3.535 -0.0594 -0.6472  2.1864
  165MOL   H15639844   5.672   2.876   3.488  1.7637 -0.1428 -1.5388
  165MOL   H15739845   5.686   2.702   3.443  2.2116 -0.7903  0.3977
  165MOL   C15839846   5.482   2.896   3.883  0.0650 -0.3215  0.0649
  165MOL   C15939847   5.500   2.848   4.023 -0.2770  0.5681 -0.0840
  165MOL   O16039848   5.575   2.943   4.090  0.2312 -0.1990  0.5071
  165MOL   C16139849   5.679   2.908   4.169  0.4701 -0.1078  0.2680
  165MOL   C16239850   5.756   3.028   4.221 -0.0640 -0.7048  0.1010
  165MOL   O16339851   5.698   2.787   4.205  0.5511  0.1301  0.1043
  165MOL   H16439852   5.576   2.941   3.851 -1.2517  1.1879 -1.7873
  165MOL   H16539853   5.406   2.972   3.867  1.5890  0.7707 -2.2425
  165MOL   H16639854   5.554   2.754   4.024 -1.1625 -0.0196 -2.9207
  165MOL   H16739855   5.685   3.109   4.207  1.5999  0.6745 -0.5156
  165MOL   H16839856   5.849   3.037   4.165  1.9936 -2.2330  3.1089
  165MOL   H16939857   5.782   3.024   4.327 -0.1495  0.2994  0.1609
  165MOL   C17039858   5.371   2.841   4.105  0.6756 -0.4752 -0.0682
  165MOL   C17139859   5.268   2.951   4.085  0.5576 -0.4810  0.6832
  165MOL   O17239860   5.152   2.922   4.153  0.7767 -0.3473  0.3521
  165MOL   C17339861   5.050   2.861   4.088  0.1874  0.2072  0.3830
  165MOL   C17439862   4.926   2.844   4.167 -0.1133  0.9078  0.6116
  165MOL   O17539863   5.052   2.810   3.975  0.0574 -0.3693  0.2483
  165MOL   H17639864   5.324   2.746   4.078 -0.8674 -0.4510  2.4082
  165MOL   H17739865   5.393   2.834   4.212  0.1974  1.5104  0.1814
  165MOL   H17839866   5.249   2.963   3.979  0.0038  3.0654  1.1260
  165MOL   H17939867   4.915   2.738   4.186 -2.1470  1.2146  1.2596
  165MOL   H18039868   4.840   2.889   4.118 -0.4508 -1.0124 -0.6222
  165MOL   H18139869   4.937   2.880   4.269  0.1957  0.6259  0.6785
  165MOL   C18239870   5.302   3.096   4.134 -0.2900 -0.4835 -0.2264
  165MOL   C18339871   5.195   3.202   4.103  0.2385  0.3902  0.6375
  165MOL   O18439872   5.193   3.290   4.211 -0.5478  0.3309 -0.4381
  165MOL   C18539873   5.094   3.294   4.295  0.2802 -0.2195  0.0892
  165MOL   C18639874   5.124   3.379   4.418  0.2132 -0.0198  0.3613
  165MOL   O18739875   4.982   3.250   4.274 -0.3761 -0.0785  0.6202
  165MOL   H18839876   5.316   3.082   4.241  0.4991  0.9596 -0.1402
  165MOL   H18939877   5.397   3.137   4.099 -0.6922  0.1400 -0.5874
  165MOL   H19039878   5.104   3.148   4.078 -0.0404  1.7011 -1.3343
  165MOL   H19139879   5.154   3.482   4.396  1.6787 -0.5238 -0.0619
  165MOL   H19239880   5.216   3.336   4.458  1.5716 -0.0050 -2.5789
  165MOL   H19339881   5.040   3.379   4.487  0.7072  0.0334  0.9689
  165MOL   C19439882   5.237   3.282   3.981  0.5141 -0.8404 -0.2324
  165MOL   C19539883   5.220   3.218   3.840 -0.2447 -0.4089  0.5736
  165MOL   O19639884   5.087   3.183   3.804  0.1086 -0.0735 -0.2042
  165MOL   C19739885   5.061   3.094   3.702 -0.3056 -0.5939 -0.4474
  165MOL   C19839886   4.914   3.094   3.674  0.2197  0.1755  0.1218
  165MOL   O19939887   5.143   3.025   3.641 -0.0212 -0.1866 -0.2246
  165MOL   H20039888   5.178   3.373   3.973  4.2848  1.7339  0.3263
  165MOL   H20139889   5.339   3.318   3.994  0.1513  0.2472 -0.3837
  165MOL   H20239890   5.276   3.125   3.851 -0.5144 -0.4176  2.0252
  165MOL   H20339891   4.864   3.077   3.769 -1.5462 -2.2736 -1.1939
  165MOL   H20439892   4.902   3.003   3.615 -0.0139  1.3856 -1.7325
  165MOL   H20539893   4.874   3.188   3.637  0.2362 -0.5477 -1.7781
  165MOL   C20639894   5.283   3.296   3.723 -0.4313 -0.2273 -0.5070
  165MOL   C20739895   5.436   3.265   3.692  0.4757 -0.8906  0.5144
  165MOL   O20839896   5.502   3.236   3.810  0.8168 -0.9677  0.7731
  165MOL   C20939897   5.618   3.276   3.829 -0.3775 -0.3114 -0.4230
  165MOL   C21039898   5.670   3.240   3.961 -0.2496 -0.4685 -0.6681
  165MOL   O21139899   5.682   3.352   3.751  0.4800  0.0939 -0.1027
  165MOL   H21239900   5.222   3.278   3.635 -0.0173 -0.6503 -0.7049
  165MOL   H21339901   5.275   3.405   3.729  0.2103 -0.2615  1.5077
  165MOL   H21439902   5.477   3.348   3.634 -1.8862 -1.4778 -2.1493
  165MOL   H21539903   5.730   3.325   3.994 -2.1534  0.3473  0.7237
  165MOL   H21639904   5.736   3.155   3.947  0.6861 -0.2315  2.0245
  165MOL   H21739905   5.582   3.204   4.013 -0.0194 -3.1597 -2.0589
  165MOL   C21839906   5.458   3.141   3.600 -0.6477 -0.2223 -0.1309
  165MOL   C21939907   5.386   3.160   3.456  0.1537  1.0296 -0.1096
  165MOL   O22039908   5.430   3.287   3.401 -0.5050  0.8674  0.7314
  165MOL   C22139909   5.342   3.385   3.379 -0.5160 -0.1391 -0.2745
  165MOL   C22239910   5.416   3.504   3.314 -0.2973  0.3621 -0.5111
  165MOL   O22339911   5.222   3.377   3.386  0.7177 -0.4700  0.1077
  165MOL   H22439912   5.566   3.146   3.587 -0.5548  1.3767  1.1558
  165MOL   H22539913   5.435   3.050   3.657  1.3550 -0.1404  0.8875
  165MOL   H22639914   5.279   3.156   3.473  0.2365  2.5996  0.8940
  165MOL   H22739915   5.382   3.600   3.353 -1.5795  0.0758 -0.8874
  165MOL   H22839916   5.412   3.493   3.205  2.2669 -0.8124 -0.5277
  165MOL   H22939917   5.523   3.498   3.334 -0.0534  0.2538 -1.7859
  165MOL   C23039918   5.423   3.052   3.350 -0.1748 -0.0038  0.2322
  165MOL   C23139919   5.369   2.915   3.390  0.3260 -0.9775 -0.1326
  165MOL   O23239920   5.431   2.810   3.318  0.0107  0.2197  0.2854
  165MOL   C23339921   5.386   2.759   3.196  0.0526 -0.6753  0.3268
  165MOL   C23439922   5.482   2.670   3.118 -0.2680 -0.1393  0.1951
  165MOL   O23539923   5.279   2.793   3.140 -0.3329  0.8020 -0.3326
  165MOL   H23639924   5.379   3.077   3.253 -0.4212 -0.3781  0.2472
  165MOL   H23739925   5.531   3.051   3.332 -0.2325  0.6595 -0.1719
  165MOL   H23839926   5.261   2.925   3.382  0.5725  3.0009  0.4555
  165MOL   H23939927   5.431   2.580   3.084 -0.9851  0.1619  0.4565
  165MOL   H24039928   5.565   2.646   3.184  0.5419  0.4989 -0.5936
  165MOL   H24139929   5.508   2.743   3.043  1.0456  1.5939  2.2869
  165MOL   H24239930   5.391   2.891   3.494  0.1938 -0.6639 -0.0327
  166MOL     C139931   7.737   2.327   3.836  0.0612 -0.6985 -0.1870
  166MOL     C239932   7.846   2.305   3.735  0.0137 -0.4554  0.2506
  166MOL     O339933   7.904   2.177   3.756 -0.7891 -0.4400 -0.2881
  166MOL     C439934   0.007   2.150   3.712 -0.4513 -0.4454 -0.0713
  166MOL     C539935   0.065   2.009   3.756  0.1730  0.9120 -0.1037
  166MOL     O639936   0.079   2.232   3.648 -0.2391  0.4554 -0.6324
  166MOL     H739937   7.788   2.321   3.932  0.4473 -0.7692 -0.3965
  166MOL     H839938   7.662   2.248   3.837 -0.1186 -0.5247  1.5474
  166MOL     H939939   7.920   2.385   3.742  1.0806 -1.0664 -3.0206
  166MOL    H1039940   0.019   2.002   3.854 -1.6582 -0.9707 -1.0448
  166MOL    H1139941   0.172   2.007   3.776  0.3526  1.1335 -0.9862
  166MOL    H1239942   0.031   1.929   3.690  2.3842 -1.0368  1.0574
  166MOL    H1339943   7.682   2.420   3.820  0.5613 -0.6883 -1.9509
  166MOL    C1439944   7.773   2.300   3.596 -0.0935 -0.6143  0.1035
  166MOL    C1539945   7.723   2.434   3.538  0.2366  0.3468  0.1497
  166MOL    O1639946   7.836   2.495   3.471  0.2210 -0.1162 -0.2799
  166MOL    C1739947   7.846   2.626   3.474  0.5549  0.0909  0.2259
  166MOL    C1839948   7.958   2.679   3.390 -0.3290 -0.0425  0.4728
  166MOL    O1939949   7.778   2.703   3.548 -0.6175  0.3632  0.5114
  166MOL    H2039950   7.836   2.255   3.519 -1.3282  0.8714 -1.8299
  166MOL    H2139951   7.687   2.233   3.609 -0.0154 -1.4384 -3.1030
  166MOL    H2239952   7.685   2.482   3.628  1.9757 -2.3171  2.3865
  166MOL    H2339953   0.027   2.696   3.448 -0.6447  3.0126  0.1818
  166MOL    H2439954   7.938   2.779   3.350 -0.2737 -0.6196 -1.0402
  166MOL    H2539955   7.990   2.615   3.308 -0.0728  1.3650 -0.5569
  166MOL    C2639956   7.617   2.424   3.431 -0.3594  0.2439  0.4341
  166MOL    C2739957   7.476   2.388   3.485  0.0318  0.2867  0.0532
  166MOL    O2839958   7.439   2.487   3.573 -0.2196  0.5806 -0.0641
  166MOL    C2939959   7.417   2.461   3.702  0.2278 -0.2652 -0.1787
  166MOL    C3039960   7.376   2.580   3.787  0.6940  0.5015  0.7401
  166MOL    O3139961   7.426   2.351   3.756 -0.3204 -0.0016  0.3442
  166MOL    H3239962   7.608   2.520   3.379 -0.1943 -0.0148 -0.0665
  166MOL    H3339963   7.645   2.347   3.360 -0.1044  0.3561  0.4130
  166MOL    H3439964   7.480   2.288   3.529 -5.1519  0.4289  1.0906
  166MOL    H3539965   7.384   2.555   3.892  0.3478 -1.0504  0.4020
  166MOL    H3639966   7.275   2.606   3.755  0.3758 -0.5809  0.8656
  166MOL    H3739967   7.433   2.672   3.772  1.3854 -0.1547 -0.7880
  166MOL    C3839968   7.356   2.368   3.390  0.4680  0.7183  0.1606
  166MOL    C3939969   7.394   2.274   3.275 -0.5982  0.0885  0.2884
  166MOL    O4039970   7.379   2.135   3.313 -0.2905  0.6173 -0.6858
  166MOL    C4139971   7.446   2.045   3.235 -0.2922  0.1772 -0.2052
  166MOL    C4239972   7.386   1.912   3.250  0.1534  0.3236  0.3405
  166MOL    O4339973   7.543   2.065   3.164 -0.2462 -0.3665 -0.5622
  166MOL    H4439974   7.272   2.333   3.451  0.1211 -0.8892 -1.1921
  166MOL    H4539975   7.331   2.462   3.341  1.3033  0.1883 -1.3286
  166MOL    H4639976   7.495   2.301   3.243  0.7544 -3.2836  1.4546
  166MOL    H4739977   7.419   1.858   3.339  0.9495  1.1779  0.5762
  166MOL    H4839978   7.403   1.860   3.155 -1.3833 -0.4991  0.4952
  166MOL    H4939979   7.278   1.919   3.261  0.0730 -0.3015 -0.0287
  166MOL    C5039980   7.286   2.299   3.158  0.3352 -0.6694  0.1200
  166MOL    C5139981   7.337   2.412   3.064  0.2438  0.4249 -0.3925
  166MOL    O5239982   7.448   2.357   3.005 -0.0457  0.3208 -0.1286
  166MOL    C5339983   7.561   2.426   3.002  0.3524 -0.6452  0.5265
  166MOL    C5439984   7.674   2.347   2.936  0.8294  0.0337 -0.4993
  166MOL    O5539985   7.563   2.544   3.026 -0.1751 -0.5811 -0.2524
  166MOL    H5639986   7.263   2.213   3.095 -2.1525  0.8574 -1.1080
  166MOL    H5739987   7.198   2.350   3.196  0.4146  1.0264 -1.8666
  166MOL    H5839988   7.360   2.495   3.131  0.4250 -1.0412  1.3882
  166MOL    H5939989   7.747   2.403   2.878 -0.5564  1.3896 -0.9648
  166MOL    H6039990   7.635   2.274   2.865 -1.5129  1.1214 -0.3847
  166MOL    H6139991   7.718   2.297   3.022  1.2456  0.4465 -0.4743
  166MOL    C6239992   7.232   2.456   2.959  0.3304  0.1222  0.0185
  166MOL    C6339993   7.278   2.573   2.868  0.4697 -0.4633 -0.0851
  166MOL    O6439994   7.249   2.538   2.731  0.6188 -0.2037  0.2570
  166MOL    C6539995   7.338   2.462   2.657 -0.1084 -0.0396 -0.1156
  166MOL    C6639996   7.284   2.426   2.526  0.0672  0.3546  0.3252
  166MOL    O6739997   7.455   2.433   2.696  0.1472  0.3165 -0.1972
  166MOL    H6839998   7.186   2.374   2.905 -0.6047  0.9939 -0.5313
  166MOL    H6939999   7.144   2.493   3.013  1.4296 -0.8666  2.5649
  166MOL    H7040000   7.384   2.591   2.883  0.6078 -0.2988 -1.2083
  166MOL    H7140001   7.353   2.347   2.494 -0.6623 -0.2170  0.1615
  166MOL    H7240002   7.281   2.513   2.460 -0.5221  1.8810  2.3098
  166MOL    H7340003   7.189   2.376   2.510  0.6909 -0.2676 -1.5436
  166MOL    C7440004   7.212   2.711   2.912  0.3268 -0.2515 -0.0463
  166MOL    C7540005   7.239   2.754   3.059 -0.3394 -0.1049  0.1697
  166MOL    O7640006   7.365   2.828   3.042 -0.3041 -0.1005  0.1626
  166MOL    C7740007   7.467   2.823   3.134 -0.3603 -0.0225  0.5402
  166MOL    C7840008   7.591   2.903   3.096 -0.5473  0.0083  0.0603
  166MOL    O7940009   7.467   2.753   3.234 -0.0073  0.3369 -0.8431
  166MOL    H8040010   7.249   2.788   2.844 -0.9496 -0.5558 -1.0974
  166MOL    H8140011   7.105   2.702   2.894  0.1610  0.9770  0.2684
  166MOL    H8240012   7.263   2.672   3.127  2.0176  1.7457  1.6568
  166MOL    H8340013   7.587   3.007   3.131  1.9175  0.1175  0.0994
  166MOL    H8440014   7.619   2.900   2.991 -0.6538  1.1045 -0.0107
  166MOL    H8540015   7.678   2.849   3.133 -0.2873 -0.9091 -1.8455
  166MOL    C8640016   7.126   2.849   3.108  0.1864  0.0945 -0.0158
  166MOL    C8740017   7.000   2.793   3.165  0.0095 -0.4383 -0.3165
  166MOL    O8840018   7.023   2.757   3.296 -0.0542  0.2358 -0.2795
  166MOL    C8940019   7.024   2.620   3.319  0.4940  0.2044 -0.0634
  166MOL    C9040020   7.056   2.579   3.458 -0.7593  0.0231  0.4421
  166MOL    O9140021   7.007   2.526   3.240  0.0924 -0.1044 -0.0424
  166MOL    H9240022   7.172   2.922   3.176  0.0513 -0.5898  0.8221
  166MOL    H9340023   7.090   2.899   3.018 -0.8632 -0.6074  0.0085
  166MOL    H9440024   6.987   2.704   3.104  2.6213 -1.1105  0.0114
  166MOL    H9540025   7.093   2.668   3.508  1.4373  0.1198 -1.2726
  166MOL    H9640026   7.137   2.507   3.471  0.5748  1.4789  0.2946
  166MOL    H9740027   6.955   2.547   3.483 -1.1604 -0.5490 -1.8126
  166MOL    C9840028   6.887   2.898   3.168  0.0607 -0.1200  0.3574
  166MOL    C9940029   6.749   2.834   3.178  0.6303  0.1139  0.4042
  166MOL   O10040030   6.655   2.937   3.190 -0.0059  0.0480  0.1030
  166MOL   C10140031   6.607   2.973   3.310 -0.0570 -0.1070  0.1170
  166MOL   C10240032   6.504   3.090   3.309 -0.3512 -0.1466  0.5129
  166MOL   O10340033   6.652   2.929   3.419  0.2205  0.1703  0.0349
  166MOL   H10440034   6.900   2.972   3.248 -0.9557  1.4921 -0.9392
  166MOL   H10540035   6.889   2.965   3.082 -3.1623  0.6240  0.7651
  166MOL   H10640036   6.740   2.759   3.257  0.5702  0.0197  0.3084
  166MOL   H10740037   6.547   3.183   3.349  1.9451 -1.3809  1.0189
  166MOL   H10840038   6.424   3.063   3.378  0.0457 -1.1365  0.5904
  166MOL   H10940039   6.466   3.092   3.207 -0.0335 -2.4463  0.3272
  166MOL   C11040040   6.715   2.754   3.051  0.0984 -0.3983 -0.1788
  166MOL   C11140041   6.565   2.700   3.045 -0.2416  0.1286  0.5972
  166MOL   O11240042   6.482   2.815   3.033  0.2464  0.2575  0.1607
  166MOL   C11340043   6.354   2.801   3.070 -0.6033  0.4947  0.2915
  166MOL   C11440044   6.279   2.926   3.039  0.6111 -0.1246 -0.0696
  166MOL   O11540045   6.300   2.701   3.111 -0.5987 -0.2773  0.7787
  166MOL   H11640046   6.731   2.816   2.963  1.6050  0.8761  0.9648
  166MOL   H11740047   6.772   2.661   3.057 -0.5217 -0.7584  0.3002
  166MOL   H11840048   6.541   2.631   3.125  0.4172 -0.7000  0.0901
  166MOL   H11940049   6.323   3.014   3.087 -1.5828  1.6020 -1.1077
  166MOL   H12040050   6.180   2.903   3.077 -0.1022  1.0078 -1.1847
  166MOL   H12140051   6.281   2.934   2.930 -3.4419  0.1764 -0.2023
  166MOL   C12240052   6.543   2.616   2.921  0.0003  0.1621  0.6181
  166MOL   C12340053   6.643   2.501   2.895  0.4638 -0.1075  0.1454
  166MOL   O12440054   6.650   2.416   3.015 -0.5107  0.2217 -0.0482
  166MOL   C12540055   6.773   2.366   3.060  0.3524  0.0739 -0.2059
  166MOL   C12640056   6.769   2.320   3.207  0.1993 -0.5298  0.8450
  166MOL   O12740057   6.877   2.375   2.998 -0.0460  0.3012  0.3490
  166MOL   H12840058   6.442   2.575   2.922 -0.1055  0.4136  0.5845
  166MOL   H12940059   6.545   2.689   2.840 -1.4754  0.0868  0.4925
  166MOL   H13040060   6.740   2.548   2.880  0.8299 -0.5349  1.1234
  166MOL   H13140061   6.758   2.401   3.279 -3.3501 -1.6295  1.6624
  166MOL   H13240062   6.856   2.257   3.224  0.0224 -1.1518 -0.4387
  166MOL   H13340063   6.683   2.254   3.224 -1.9623  1.7718 -0.7006
  166MOL   C13440064   6.598   2.416   2.779 -0.0653  0.2745 -0.0925
  166MOL   C13540065   6.591   2.486   2.639  0.5731  0.3325  0.6558
  166MOL   O13640066   6.722   2.540   2.621  0.3435 -0.3533 -0.5360
  166MOL   C13740067   6.744   2.663   2.584 -0.1682 -0.3379 -0.7043
  166MOL   C13840068   6.894   2.698   2.575 -0.3578  0.4694  0.2185
  166MOL   O13940069   6.653   2.742   2.568  0.4979  0.0811 -0.0052
  166MOL   H14040070   6.673   2.337   2.774 -1.1781 -0.9970  2.5007
  166MOL   H14140071   6.502   2.372   2.806 -0.9456  1.3363 -1.4608
  166MOL   H14240072   6.520   2.569   2.635 -0.3259 -0.4856 -0.7137
  166MOL   H14340073   6.942   2.668   2.668  1.4407 -2.4175 -1.5571
  166MOL   H14440074   6.905   2.806   2.570  0.7888  0.4165  1.4686
  166MOL   H14540075   6.950   2.658   2.491  0.2576  0.7397  0.5039
  166MOL   C14640076   6.559   2.381   2.529  0.9914 -0.5215 -0.4016
  166MOL   C14740077   6.507   2.444   2.396 -0.2177  0.4822  0.2267
  166MOL   O14840078   6.561   2.351   2.294  0.7295 -0.1105  0.1671
  166MOL   C14940079   6.581   2.389   2.167  0.6755 -0.6766 -0.3010
  166MOL   C15040080   6.634   2.275   2.089 -0.1653  0.4460 -0.1362
  166MOL   O15140081   6.544   2.499   2.122  0.2466 -0.6483  0.4626
  166MOL   H15240082   6.658   2.339   2.510  2.1800  1.6824  0.6683
  166MOL   H15340083   6.503   2.296   2.567 -1.1186 -0.3741 -3.0817
  166MOL   H15440084   6.545   2.545   2.380  2.4413 -0.6861 -1.1454
  166MOL   H15540085   6.668   2.299   1.988  1.5678 -0.2588  0.2506
  166MOL   H15640086   6.555   2.203   2.072 -1.5639  2.5124 -2.6648
  166MOL   H15740087   6.713   2.230   2.150 -0.2915  0.2464 -0.1174
  166MOL   C15840088   6.351   2.438   2.394 -0.3986  0.1965 -0.4565
  166MOL   C15940089   6.265   2.508   2.509 -0.4942  0.7698  0.3832
  166MOL   O16040090   6.287   2.652   2.508 -0.0378  0.0382 -0.6181
  166MOL   C16140091   6.293   2.719   2.627  0.4995  0.2120 -0.5279
  166MOL   C16240092   6.305   2.869   2.608  0.0345 -0.1392 -0.4879
  166MOL   O16340093   6.293   2.668   2.738 -1.0180 -0.2013 -0.5762
  166MOL   H16440094   6.320   2.479   2.298 -0.3444  1.7427  0.1734
  166MOL   H16540095   6.331   2.331   2.389  1.7387 -0.1601 -2.3943
  166MOL   H16640096   6.298   2.478   2.608  1.5988 -1.7026 -0.9859
  166MOL   H16740097   6.220   2.909   2.553 -0.4638 -0.3386  0.1243
  166MOL   H16840098   6.390   2.900   2.548 -0.3447  1.2666 -0.3075
  166MOL   H16940099   6.310   2.908   2.710 -1.8496  0.7107 -0.7074
  166MOL   C17040100   6.112   2.479   2.500 -0.6736 -0.3330  0.0322
  166MOL   C17140101   6.063   2.336   2.553  0.1017 -0.4130 -0.0199
  166MOL   O17240102   6.074   2.327   2.696 -0.4205  0.5248  1.0949
  166MOL   C17340103   6.180   2.277   2.758 -0.4129  0.0093  0.5677
  166MOL   C17440104   6.158   2.268   2.907  0.0696 -1.0121  0.0999
  166MOL   O17540105   6.280   2.233   2.704  0.4380 -0.0730  0.2425
  166MOL   H17640106   6.051   2.551   2.554 -0.1059 -1.0475  1.6652
  166MOL   H17740107   6.077   2.497   2.399  1.3971  2.1665 -0.2900
  166MOL   H17840108   6.115   2.249   2.514  0.4592 -1.1241  1.9598
  166MOL   H17940109   6.214   2.184   2.949 -0.6369 -0.0760  3.0253
  166MOL   H18040110   6.055   2.256   2.939  0.1817 -0.9237  0.4981
  166MOL   H18140111   6.182   2.363   2.955 -0.5154 -0.0093 -1.5678
  166MOL   C18240112   5.904   2.308   2.531 -0.9533  0.1892  0.0487
  166MOL   C18340113   5.839   2.174   2.580 -0.2189  0.5229  0.7909
  166MOL   O18440114   5.699   2.196   2.590  0.3959  0.1155  0.4194
  166MOL   C18540115   5.621   2.163   2.697  0.0350 -0.1312 -0.1910
  166MOL   C18640116   5.476   2.209   2.687  0.0351 -0.1676  0.2576
  166MOL   O18740117   5.664   2.124   2.801 -0.6167  0.1735 -0.5294
  166MOL   H18840118   5.848   2.384   2.584 -0.8374 -0.7519  1.5427
  166MOL   H18940119   5.876   2.325   2.427  0.9250 -2.8643 -1.0152
  166MOL   H19040120   5.876   2.158   2.682  0.0402 -0.1140  0.5994
  166MOL   H19140121   5.475   2.301   2.629  0.2187 -0.3107  0.0294
  166MOL   H19240122   5.426   2.237   2.781  0.2168 -1.4253  0.7334
  166MOL   H19340123   5.428   2.126   2.637  0.2105  0.2428 -0.6083
  166MOL   C19440124   5.875   2.050   2.488  0.4112  0.1900 -0.4189
  166MOL   C19540125   5.883   1.907   2.547  0.1991 -0.0268 -0.0023
  166MOL   O19640126   5.749   1.877   2.584 -0.0941 -0.4142  0.2593
  166MOL   C19740127   5.728   1.784   2.673  0.1617 -0.0653 -0.2622
  166MOL   C19840128   5.588   1.760   2.713  0.0585  0.3796 -0.4575
  166MOL   O19940129   5.815   1.717   2.726  0.2737  0.0914 -0.1682
  166MOL   H20040130   5.803   2.056   2.407  0.8693  0.5955 -0.7985
  166MOL   H20140131   5.974   2.072   2.447 -0.2183  3.6741 -0.2159
  166MOL   H20240132   5.949   1.907   2.634  0.8773  3.6218 -0.4445
  166MOL   H20340133   5.521   1.708   2.644  0.3481 -1.0075  0.2886
  166MOL   H20440134   5.543   1.856   2.738 -0.5261  0.6541 -2.4887
  166MOL   H20540135   5.591   1.703   2.806 -0.3174 -0.1226 -0.7480
  166MOL   C20640136   5.939   1.799   2.446 -0.1330  0.4571  0.3431
  166MOL   C20740137   6.086   1.801   2.409  0.7422  0.6995  0.7062
  166MOL   O20840138   6.158   1.797   2.532 -0.5157 -0.5778  0.1165
  166MOL   C20940139   6.225   1.911   2.572 -0.2653 -0.5413  0.3121
  166MOL   C21040140   6.334   1.882   2.680  0.5152  0.5294 -0.1011
  166MOL   O21140141   6.216   2.017   2.520  0.3489 -0.0072  0.1945
  166MOL   H21240142   5.906   1.701   2.479 -0.8631 -0.3686 -2.6866
  166MOL   H21340143   5.879   1.805   2.356 -0.1008 -0.4716  0.2561
  166MOL   H21440144   6.125   1.891   2.361 -0.7709  1.2486  0.5022
  166MOL   H21540145   6.287   1.885   2.778  0.7910  0.0712  0.0498
  166MOL   H21640146   6.417   1.953   2.683 -1.5580  2.9731  0.8123
  166MOL   H21740147   6.376   1.783   2.664  1.1878  0.2799  2.8880
  166MOL   C21840148   6.134   1.686   2.322  0.1174  0.0411 -0.3683
  166MOL   C21940149   6.093   1.684   2.174  0.3527 -0.5231 -0.3782
  166MOL   O22040150   6.150   1.788   2.087  0.4018 -0.4773 -0.2385
  166MOL   C22140151   6.103   1.914   2.084 -0.6268 -0.5050  0.2281
  166MOL   C22240152   6.184   2.003   1.994  0.2813 -0.2621 -0.0064
  166MOL   O22340153   6.007   1.956   2.149  1.0263  0.1217  0.1838
  166MOL   H22440154   6.242   1.681   2.334  0.0217 -0.7818  0.2263
  166MOL   H22540155   6.097   1.594   2.367  1.5102  0.4311  1.6107
  166MOL   H22640156   5.986   1.703   2.168  0.3438  0.0776  1.2822
  166MOL   H22740157   6.285   2.021   2.029  0.6704 -3.9780  1.0291
  166MOL   H22840158   6.130   2.097   1.997  2.2169  0.8179  1.1542
  166MOL   H22940159   6.185   1.965   1.892  0.7770 -0.2662  0.0003
  166MOL   C23040160   6.121   1.551   2.103 -0.0028  0.1864 -0.5620
  166MOL   C23140161   6.048   1.535   1.970 -0.9593  0.4490 -0.2676
  166MOL   O23240162   6.086   1.423   1.896 -0.8833  0.1913 -0.0071
  166MOL   C23340163   6.208   1.415   1.836 -0.2267  0.2390 -0.8849
  166MOL   C23440164   6.239   1.280   1.784 -0.7450  0.6452 -0.4820
  166MOL   O23540165   6.292   1.500   1.836  0.1463  0.6128 -0.1362
  166MOL   H23640166   6.227   1.528   2.093 -0.4526 -0.9542 -3.1199
  166MOL   H23740167   6.086   1.468   2.164  1.9427  0.8142  1.4749
  166MOL   H23840168   6.069   1.623   1.910  1.0340  0.1915 -0.0080
  166MOL   H23940169   6.316   1.275   1.707  0.1351 -1.0717  0.4811
  166MOL   H24040170   6.139   1.267   1.745 -1.3562  0.7182  1.0145
  166MOL   H24140171   6.257   1.206   1.862 -0.5042  0.6165 -0.5653
  166MOL   H24240172   5.941   1.531   1.989 -1.0263  1.8338 -0.3403
  167MOL     C140173   0.592   1.405   0.753  0.4884 -0.2623 -0.0961
  167MOL     C240174   0.477   1.418   0.855 -0.1342 -0.6627 -0.2861
  167MOL     O340175   0.457   1.299   0.932  0.1204 -0.1986 -0.3169
  167MOL     C440176   0.394   1.191   0.886  0.3062 -0.9479  0.6857
  167MOL     C540177   0.420   1.078   0.981  0.5337  0.0851  0.5780
  167MOL     O640178   0.317   1.181   0.791  0.8218  0.3125  0.1037
  167MOL     H740179   0.675   1.350   0.797 -0.9881 -2.0127  0.5595
  167MOL     H840180   0.636   1.498   0.717 -3.0549  1.3407 -0.4771
  167MOL     H940181   0.381   1.434   0.805 -0.6491 -1.7870  0.3288
  167MOL    H1040182   0.442   1.121   1.079 -1.8340 -0.2889  1.3252
  167MOL    H1140183   0.508   1.026   0.946 -1.1012 -3.0039  0.8944
  167MOL    H1240184   0.328   1.020   0.989  2.2368 -2.5727  1.6445
  167MOL    H1340185   0.563   1.346   0.666 -0.4858  0.0571  0.0074
  167MOL    C1440186   0.511   1.530   0.961 -0.2438  0.3578 -0.0933
  167MOL    C1540187   0.466   1.675   0.919  0.4476  0.0943  0.3593
  167MOL    O1640188   0.379   1.721   1.020 -0.7022  0.6783 -0.1520
  167MOL    C1740189   0.245   1.684   1.018  0.0754  0.1482 -0.3758
  167MOL    C1840190   0.164   1.743   1.137 -0.0206 -0.4718 -0.1596
  167MOL    O1940191   0.198   1.611   0.931 -0.0732  0.4892  0.2868
  167MOL    H2040192   0.465   1.508   1.058 -2.0026  0.6881 -0.8355
  167MOL    H2140193   0.617   1.541   0.982 -0.4800 -1.7026  2.4554
  167MOL    H2240194   0.413   1.663   0.825 -0.8709  0.8152  0.9875
  167MOL    H2340195   0.201   1.707   1.233 -0.2419 -0.5040 -0.0867
  167MOL    H2440196   0.056   1.724   1.135 -0.1271  0.2909 -1.9646
  167MOL    H2540197   0.176   1.851   1.141 -2.9683 -0.0092 -2.2187
  167MOL    C2640198   0.575   1.776   0.880  0.0077 -0.7669  0.3740
  167MOL    C2740199   0.521   1.912   0.831  0.3371 -0.5501  0.3216
  167MOL    O2840200   0.616   2.018   0.837 -0.6270  0.3362  0.1884
  167MOL    C2940201   0.589   2.131   0.906  0.0687 -0.1698  0.2745
  167MOL    C3040202   0.707   2.220   0.921 -0.1406 -0.2550  0.0702
  167MOL    O3140203   0.478   2.159   0.953 -0.2139  0.4629 -0.2492
  167MOL    H3240204   0.640   1.787   0.967 -0.9719  0.3151  0.9865
  167MOL    H3340205   0.646   1.745   0.803 -1.0677 -1.6525 -0.2706
  167MOL    H3440206   0.443   1.941   0.902  1.7478  1.2689  1.1920
  167MOL    H3540207   0.758   2.235   0.825  2.6388 -0.7852  1.4062
  167MOL    H3640208   0.785   2.184   0.988  0.2486  1.3468  0.4872
  167MOL    H3740209   0.673   2.318   0.954  1.6503  0.7559 -0.9691
  167MOL    C3840210   0.463   1.922   0.684 -0.6230  0.4770 -0.1369
  167MOL    C3940211   0.309   1.902   0.681  0.3109  0.1732 -0.1950
  167MOL    O4040212   0.265   2.024   0.736 -0.0105 -0.3649 -0.5708
  167MOL    C4140213   0.172   2.015   0.828  0.6262 -0.1819 -0.2921
  167MOL    C4240214   0.133   2.147   0.888  0.2346  0.6377  0.0665
  167MOL    O4340215   0.118   1.914   0.865 -0.1995 -0.0173  0.1939
  167MOL    H4440216   0.478   2.024   0.648 -1.0745  0.7859  0.5400
  167MOL    H4540217   0.516   1.863   0.610 -0.5658 -0.2783  0.5029
  167MOL    H4640218   0.290   1.815   0.745 -1.2209  0.5222 -0.1488
  167MOL    H4740219   0.070   2.133   0.975  1.4523  0.2639  0.9025
  167MOL    H4840220   0.069   2.197   0.815  0.5373 -2.5747 -2.5003
  167MOL    H4940221   0.218   2.211   0.913 -0.5431  2.0180 -0.7674
  167MOL    C5040222   0.252   1.871   0.539  0.3305 -0.8076 -0.1855
  167MOL    C5140223   0.259   1.726   0.483  0.4143 -0.0840 -0.2690
  167MOL    O5240224   0.390   1.685   0.475  0.6214 -0.6922 -0.2582
  167MOL    C5340225   0.484   1.731   0.385  0.1631  0.4095  0.2408
  167MOL    C5440226   0.611   1.655   0.397  0.4295 -0.6197 -0.1971
  167MOL    O5540227   0.471   1.821   0.300 -0.0690  0.3166  0.4264
  167MOL    H5640228   0.149   1.905   0.548  0.4264  0.4246 -2.9587
  167MOL    H5740229   0.309   1.932   0.468  0.0288 -0.0972  0.1801
  167MOL    H5840230   0.209   1.723   0.386 -1.4274  0.8516  0.6294
  167MOL    H5940231   0.652   1.619   0.303  0.0427  0.3785 -0.7554
  167MOL    H6040232   0.580   1.567   0.453 -0.9288 -0.7571 -1.1486
  167MOL    H6140233   0.692   1.699   0.455  0.2605  0.0223 -0.4412
  167MOL    C6240234   0.203   1.613   0.584 -0.0784 -0.6301  0.0421
  167MOL    C6340235   0.192   1.476   0.518  0.7891 -0.0608 -0.2496
  167MOL    O6440236   0.318   1.403   0.504 -0.5878  0.0763 -0.1270
  167MOL    C6540237   0.360   1.370   0.385 -0.1809 -0.8384 -0.4274
  167MOL    C6640238   0.502   1.311   0.393  0.1105  0.2261  0.2206
  167MOL    O6740239   0.302   1.378   0.277  0.2726 -0.0485 -0.2473
  167MOL    H6840240   0.261   1.606   0.676  0.9557  0.1553 -0.5514
  167MOL    H6940241   0.103   1.642   0.616 -0.2177 -0.9983 -0.0514
  167MOL    H7040242   0.141   1.489   0.422 -0.2622  1.3664  0.4720
  167MOL    H7140243   0.539   1.261   0.303  1.3197  2.3584 -0.4988
  167MOL    H7240244   0.503   1.238   0.474 -1.0621 -0.6622 -0.5445
  167MOL    H7340245   0.574   1.391   0.410 -1.5493  2.0091 -0.9750
  167MOL    C7440246   0.102   1.376   0.609 -0.3381 -0.1127  0.3990
  167MOL    C7540247   7.970   1.382   0.576  0.5624 -0.7363  0.3303
  167MOL    O7640248   7.961   1.355   0.436 -0.1444  0.2045 -0.0895
  167MOL    C7740249   7.892   1.430   0.343  0.0526 -0.7808  0.4601
  167MOL    C7840250   7.889   1.367   0.197 -0.5837 -0.0043  0.0978
  167MOL    O7940251   7.826   1.530   0.373  0.5018 -0.3505  0.2770
  167MOL    H8040252   0.139   1.274   0.598 -0.2538 -0.0053 -0.3376
  167MOL    H8140253   0.103   1.397   0.716  1.9048 -0.9194  0.5653
  167MOL    H8240254   7.929   1.479   0.602 -0.8847 -0.9176 -1.1789
  167MOL    H8340255   7.828   1.277   0.193 -2.4995  1.2610  0.2050
  167MOL    H8440256   7.987   1.327   0.173 -0.8744 -1.7398  1.6423
  167MOL    H8540257   7.857   1.449   0.133 -1.6427 -1.7278 -1.6190
  167MOL    C8640258   7.900   1.264   0.647  0.0136 -0.3876  0.5177
  167MOL    C8740259   7.882   1.282   0.796 -0.1572  0.0191  0.5938
  167MOL    O8840260   7.791   1.387   0.814 -0.3212  0.2264  0.4975
  167MOL    C8940261   7.822   1.489   0.898 -0.1086 -0.6659 -0.0753
  167MOL    C9040262   7.717   1.595   0.883 -0.3155  0.3277  0.7408
  167MOL    O9140263   7.934   1.503   0.949  0.2848 -0.8927  0.1334
  167MOL    H9240264   7.797   1.247   0.614 -0.0536 -0.2539  0.6614
  167MOL    H9340265   7.953   1.173   0.622  0.3565  0.0692 -0.4381
  167MOL    H9440266   7.982   1.316   0.821  0.7634 -1.9586 -0.3006
  167MOL    H9540267   7.716   1.665   0.967  0.7309  0.2787  0.8031
  167MOL    H9640268   7.626   1.546   0.849 -0.1025  1.5372 -1.6264
  167MOL    H9740269   7.744   1.656   0.797  0.0749  0.5360  1.0031
  167MOL    C9840270   7.842   1.161   0.872 -0.5400 -0.2590 -0.0516
  167MOL    C9940271   7.858   1.171   1.027 -0.4055 -0.1559 -0.1816
  167MOL   O10040272   7.786   1.073   1.094  0.1009 -0.1539  0.6254
  167MOL   C10140273   7.649   1.066   1.093  0.1186  0.5230 -0.2177
  167MOL   C10240274   7.596   0.937   1.146  0.7533  0.5125 -0.2281
  167MOL   O10340275   7.574   1.155   1.049 -0.0386 -0.0978 -0.0382
  167MOL   H10440276   7.741   1.139   0.837 -0.4455 -0.2098 -0.3594
  167MOL   H10540277   7.907   1.082   0.833 -2.5390 -1.3765 -1.2040
  167MOL   H10640278   7.813   1.261   1.067 -0.2027  1.1831 -2.8352
  167MOL   H10740279   7.574   0.857   1.075 -2.6409 -1.2583  2.6749
  167MOL   H10840280   7.509   0.948   1.210  1.1429 -2.3876  0.8804
  167MOL   H10940281   7.669   0.895   1.216  0.6910  1.8758  0.6735
  167MOL   C11040282   8.009   1.177   1.073 -0.2441  0.5016  0.2330
  167MOL   C11140283   8.008   1.202   1.232  0.4069 -0.3130 -0.1141
  167MOL   O11240284   0.126   1.218   1.262  0.1875 -0.4606 -0.3176
  167MOL   C11340285   0.197   1.119   1.318 -0.0445  0.2473  0.1542
  167MOL   C11440286   0.341   1.161   1.320 -0.4354 -0.6747  0.7711
  167MOL   O11540287   0.157   1.008   1.356 -0.4050  0.2761  0.0356
  167MOL   H11640288   0.048   1.089   1.052 -0.2819  0.7976 -1.1581
  167MOL   H11740289   0.031   1.263   1.021  1.7359 -0.6165 -0.0101
  167MOL   H11840290   7.964   1.114   1.279  2.7296 -1.1001  0.6802
  167MOL   H11940291   0.379   1.189   1.418  2.7033 -2.3108  0.0763
  167MOL   H12040292   0.355   1.242   1.248  0.7265 -3.3106 -2.0594
  167MOL   H12140293   0.392   1.073   1.282 -0.4908  1.2160 -4.0330
  167MOL   C12240294   7.948   1.328   1.285  0.4072 -0.2481  0.0758
  167MOL   C12340295   7.807   1.310   1.347  0.2639  0.0890 -0.6085
  167MOL   O12440296   7.816   1.237   1.470 -0.4293 -0.2031  0.9894
  167MOL   C12540297   7.754   1.123   1.498 -0.6783  0.0372  0.3164
  167MOL   C12640298   7.784   1.076   1.639  0.5722 -0.5430 -0.1518
  167MOL   O12740299   7.673   1.065   1.426  0.4370 -0.2928  0.0753
  167MOL   H12840300   8.019   1.376   1.353 -0.3727 -1.7942  2.0383
  167MOL   H12940301   7.951   1.404   1.207 -0.7358  0.3082  0.5641
  167MOL   H13040302   7.742   1.269   1.270  0.4839  0.8483 -1.2063
  167MOL   H13140303   7.732   0.985   1.667 -0.2891  0.5601  1.9810
  167MOL   H13240304   7.766   1.150   1.717  2.6302  0.4338 -0.5505
  167MOL   H13340305   7.892   1.076   1.654  0.4537  0.0289  0.7465
  167MOL   C13440306   7.742   1.439   1.386 -0.4713  0.0049  0.2706
  167MOL   C13540307   7.589   1.448   1.369  0.0874  0.2271 -0.6918
  167MOL   O13640308   7.543   1.351   1.458  0.0858 -0.9088  0.2508
  167MOL   C13740309   7.417   1.293   1.440  0.5304  0.0167 -0.0282
  167MOL   C13840310   7.380   1.188   1.553 -0.5527 -0.3513  0.5490
  167MOL   O13940311   7.330   1.312   1.354 -0.3489 -0.2927 -0.3739
  167MOL   H14040312   7.779   1.461   1.486 -1.7518 -0.9723  0.9835
  167MOL   H14140313   7.788   1.515   1.322 -2.6343  1.8185  0.8019
  167MOL   H14240314   7.564   1.414   1.269 -0.0220 -1.9264  0.0460
  167MOL   H14340315   7.465   1.146   1.607 -0.9006 -0.5947  0.9084
  167MOL   H14440316   7.331   1.104   1.505 -0.7271 -0.0193  0.1494
  167MOL   H14540317   7.315   1.228   1.631 -1.0801 -0.9529  0.4130
  167MOL   C14640318   7.542   1.594   1.387 -0.3472  0.4283  0.5879
  167MOL   C14740319   7.498   1.668   1.260  0.2924  0.3904  0.2563
  167MOL   O14840320   7.374   1.616   1.210  0.1837  0.2896  0.0051
  167MOL   C14940321   7.380   1.541   1.102  0.0483  0.4919  0.8017
  167MOL   C15040322   7.243   1.525   1.038 -0.5499 -0.1935  0.1172
  167MOL   O15140323   7.478   1.495   1.051 -0.1119  0.0442 -0.7072
  167MOL   H15240324   7.463   1.592   1.462 -1.5179  0.2831 -0.6118
  167MOL   H15340325   7.618   1.653   1.438  0.7820 -0.5827  0.1082
  167MOL   H15440326   7.582   1.670   1.190  0.8448 -0.6923  0.8833
  167MOL   H15540327   7.178   1.612   1.046  0.1425  0.2355  1.2288
  167MOL   H15640328   7.182   1.457   1.098 -1.3131  0.2467 -0.1582
  167MOL   H15740329   7.246   1.491   0.934 -0.6386  0.7641 -0.2030
  167MOL   C15840330   7.457   1.819   1.291  0.2772  0.7975  0.7897
  167MOL   C15940331   7.566   1.911   1.350 -0.4953  0.2605  0.1647
  167MOL   O16040332   7.663   1.917   1.249 -0.5246 -0.3231  0.2719
  167MOL   C16140333   7.794   1.925   1.291  0.7636  0.2799  0.2171
  167MOL   C16240334   7.882   1.932   1.165 -0.7533  0.3108  0.1154
  167MOL   O16340335   7.833   1.933   1.410  0.5204 -0.3292  0.0946
  167MOL   H16440336   7.431   1.868   1.197 -3.9644  1.0027  1.9537
  167MOL   H16540337   7.362   1.826   1.344 -1.1106 -0.8355 -1.4374
  167MOL   H16640338   7.599   1.883   1.449 -0.9164  0.5268  0.3819
  167MOL   H16740339   7.865   1.840   1.110 -1.3072  0.7770 -0.5011
  167MOL   H16840340   7.981   1.927   1.209 -0.0302  1.0537 -1.3852
  167MOL   H16940341   7.870   2.027   1.113  0.6524 -0.3086 -1.3608
  167MOL   C17040342   7.522   2.064   1.369  0.0444 -0.1758 -0.1075
  167MOL   C17140343   7.456   2.103   1.499 -0.7218  0.0190  0.0280
  167MOL   O17240344   7.553   2.076   1.607 -0.5229 -0.0681  0.1926
  167MOL   C17340345   7.522   2.049   1.738 -0.0508  0.0113  0.2218
  167MOL   C17440346   7.645   2.018   1.822  0.3608  0.3419 -0.4278
  167MOL   O17540347   7.410   2.047   1.788 -0.0264  0.1373 -0.1132
  167MOL   H17640348   7.607   2.130   1.352  0.9767 -1.6660 -1.4612
  167MOL   H17740349   7.448   2.086   1.292 -0.1505  0.5564  0.2874
  167MOL   H17840350   7.373   2.038   1.526 -1.0009 -0.1595 -1.2550
  167MOL   H17940351   7.717   1.953   1.774 -0.5647  2.3905 -4.7876
  167MOL   H18040352   7.595   1.987   1.914 -0.1027 -0.1259 -0.8375
  167MOL   H18140353   7.705   2.107   1.844 -0.2375  0.9016 -1.0519
  167MOL   C18240354   7.404   2.248   1.506  1.0510  0.5713 -0.0505
  167MOL   C18340355   7.501   2.363   1.472 -0.0547 -0.1414 -0.2957
  167MOL   O18440356   7.445   2.492   1.457 -0.4928  0.2658 -0.9708
  167MOL   C18540357   7.369   2.522   1.348  0.2665 -0.1244 -0.9020
  167MOL   C18640358   7.323   2.670   1.337 -0.2696 -0.8558 -0.5270
  167MOL   O18740359   7.340   2.445   1.258  0.6210  0.6389 -0.6561
  167MOL   H18840360   7.320   2.263   1.439 -0.9480 -0.6969  2.1221
  167MOL   H18940361   7.352   2.266   1.599 -0.2901 -0.2079 -0.6400
  167MOL   H19040362   7.541   2.343   1.372 -0.1476  2.3602 -0.8606
  167MOL   H19140363   7.217   2.682   1.314 -0.0191  1.3618 -0.6275
  167MOL   H19240364   7.387   2.703   1.255 -2.1698  1.7754 -1.0369
  167MOL   H19340365   7.343   2.729   1.426  0.9685  0.6636 -1.7819
  167MOL   C19440366   7.612   2.376   1.575 -0.3017  0.1046  0.0084
  167MOL   C19540367   7.682   2.520   1.580  0.1179  0.2134 -0.2071
  167MOL   O19640368   7.780   2.512   1.684 -0.0360  0.4877 -0.2003
  167MOL   C19740369   7.780   2.589   1.796 -0.2670  0.5115 -0.8619
  167MOL   C19840370   7.880   2.546   1.907  0.2563  0.3310  0.6998
  167MOL   O19940371   7.710   2.691   1.811  0.3076  0.4891 -0.4646
  167MOL   H20040372   7.581   2.343   1.674 -0.7587  1.7805  0.4476
  167MOL   H20140373   7.688   2.301   1.554  0.0194 -0.0633  1.7628
  167MOL   H20240374   7.613   2.601   1.605 -1.5718 -0.2032 -3.3049
  167MOL   H20340375   7.879   2.611   1.995 -0.9961  0.3389  0.6872
  167MOL   H20440376   7.976   2.541   1.857 -0.4881 -2.2968 -0.5336
  167MOL   H20540377   7.848   2.445   1.931  0.8948  0.3638  1.7337
  167MOL   C20640378   7.750   2.572   1.453  0.2114 -0.0371  0.1569
  167MOL   C20740379   7.803   2.714   1.463  0.0166 -0.1316  0.4175
  167MOL   O20840380   7.900   2.738   1.358  0.0104 -0.1994  0.6000
  167MOL   C20940381   0.010   2.747   1.381  0.3329 -0.5633  0.8940
  167MOL   C21040382   0.081   2.808   1.264 -0.0967 -0.0496  0.0054
  167MOL   O21140383   0.069   2.715   1.485  0.2060 -0.3699  0.1853
  167MOL   H21240384   7.826   2.496   1.440  0.8268  0.1985  2.1383
  167MOL   H21340385   7.681   2.559   1.369 -0.4106 -0.6671  0.7567
  167MOL   H21440386   7.855   2.723   1.558 -1.8081  1.7162  1.2883
  167MOL   H21540387   0.049   2.775   1.166  0.9728 -0.0298 -0.3613
  167MOL   H21640388   0.188   2.786   1.271  0.0145  0.4288 -0.1706
  167MOL   H21740389   0.076   2.916   1.273 -1.9183 -0.0889 -0.4080
  167MOL   C21840390   7.680   2.806   1.455  0.5547 -0.3069 -0.4935
  167MOL   C21940391   7.714   2.946   1.511  0.3273 -0.1383  0.5436
  167MOL   O22040392   7.813   2.991   1.430  0.2825  0.4714 -0.3145
  167MOL   C22140393   7.909   3.068   1.480 -0.5562  0.0678  0.0717
  167MOL   C22240394   7.984   3.140   1.372 -0.0032 -0.2779 -0.2288
  167MOL   O22340395   7.935   3.098   1.595  0.8017  0.5322  0.0021
  167MOL   H22440396   7.634   2.803   1.356 -1.4947 -2.6313  0.4701
  167MOL   H22540397   7.595   2.771   1.514  0.5632 -0.1376 -0.3795
  167MOL   H22640398   7.733   2.937   1.618  2.1208  1.0819  0.3351
  167MOL   H22740399   7.959   3.094   1.276 -0.8300 -1.8066  0.7008
  167MOL   H22840400   0.072   3.142   1.375 -0.0124  1.0971 -0.5917
  167MOL   H22940401   7.948   3.242   1.379 -0.2732 -0.2978 -1.1585
  167MOL   C23040402   7.588   3.041   1.496 -0.0087  0.1691  1.1841
  167MOL   C23140403   7.453   2.998   1.568  0.1728 -0.3518  0.0560
  167MOL   O23240404   7.477   2.949   1.702  0.3755  0.0974  0.0747
  167MOL   C23340405   7.377   2.858   1.749  0.1757 -0.4424  0.2369
  167MOL   C23440406   7.399   2.806   1.888 -0.4003 -0.3356  0.3503
  167MOL   O23540407   7.287   2.807   1.678 -0.0868 -0.5586  0.3491
  167MOL   H23640408   7.601   3.148   1.513  1.7493  0.2451 -0.4810
  167MOL   H23740409   7.562   3.042   1.390 -0.8338 -1.7531  1.3422
  167MOL   H23840410   7.394   2.928   1.509  1.3742 -0.7165 -0.7285
  167MOL   H23940411   7.445   2.707   1.878  0.8797  0.2857  0.0208
  167MOL   H24040412   7.300   2.798   1.933 -0.1896  0.8855  1.0471
  167MOL   H24140413   7.472   2.865   1.943 -0.0624  0.2365 -0.7247
  167MOL   H24240414   7.390   3.084   1.592  0.0388 -0.4183 -0.0554
  168MOL     C140415   5.858   2.147   5.522 -0.0169  0.6541 -0.0514
  168MOL     C240416   5.972   2.213   5.451 -0.1532 -0.6915 -0.6475
  168MOL     O340417   6.069   2.262   5.537 -0.0329  0.4976  0.3418
  168MOL     C440418   6.088   2.394   5.558  0.6739 -0.7084 -0.1510
  168MOL     C540419   6.211   2.423   5.644  0.3584  0.3388  0.3040
  168MOL     O640420   6.012   2.484   5.518 -0.0485  0.2220  0.7893
  168MOL     H740421   5.777   2.107   5.462  0.0539  0.8063 -0.2509
  168MOL     H840422   5.800   2.211   5.588  0.4270 -1.3814  2.3536
  168MOL     H940423   5.930   2.296   5.392  0.7826  1.0622  1.1048
  168MOL    H1040424   6.187   2.410   5.750  0.9609 -0.7548  0.3163
  168MOL    H1140425   6.261   2.517   5.622  1.1610 -0.3090 -0.6478
  168MOL    H1240426   6.280   2.341   5.622 -0.0786  0.0121  0.1438
  168MOL    H1340427   5.898   2.064   5.580  1.2713  0.1041 -1.6839
  168MOL    C1440428   6.041   2.111   5.363 -0.2658 -0.9765 -0.3109
  168MOL    C1540429   6.166   2.157   5.293 -0.3307  0.4832 -0.2323
  168MOL    O1640430   6.281   2.161   5.376 -0.3776  0.3831 -0.7535
  168MOL    C1740431   6.368   2.265   5.362 -0.4767  0.2675 -0.2424
  168MOL    C1840432   6.482   2.250   5.464  0.3230 -0.7168  0.5325
  168MOL    O1940433   6.360   2.354   5.276  0.0268  0.3704  0.2759
  168MOL    H2040434   6.040   2.005   5.391 -3.0567 -0.4831  1.5639
  168MOL    H2140435   5.970   2.103   5.281 -2.8533  1.9634  1.5424
  168MOL    H2240436   6.147   2.262   5.275  2.9349  1.4429  1.4052
  168MOL    H2340437   6.513   2.348   5.502  1.0950 -1.0921  0.8751
  168MOL    H2440438   6.568   2.206   5.413 -0.3800 -1.7814  0.2485
  168MOL    H2540439   6.459   2.171   5.535  0.8739 -1.1972  0.1833
  168MOL    C2640440   6.192   2.086   5.154 -0.2335 -1.1366  0.2137
  168MOL    C2740441   6.183   1.932   5.162 -0.6364  0.1541 -0.0781
  168MOL    O2840442   6.148   1.884   5.035 -0.2223 -0.3664  0.7489
  168MOL    C2940443   6.017   1.886   4.999  0.0221  0.0342  0.0062
  168MOL    C3040444   5.987   1.804   4.875 -1.2425  0.1197 -0.5346
  168MOL    O3140445   5.921   1.935   5.062 -0.4010 -0.1816 -0.4595
  168MOL    H3240446   6.114   2.121   5.086  0.5559 -2.5218 -1.4612
  168MOL    H3340447   6.290   2.114   5.118  0.7222 -0.1792  3.4493
  168MOL    H3440448   6.112   1.898   5.237 -1.0513  1.7843  0.2713
  168MOL    H3540449   5.882   1.816   4.847 -1.5003  0.7301  0.6901
  168MOL    H3640450   6.006   1.700   4.899 -1.4734  0.5319  1.5478
  168MOL    H3740451   6.039   1.838   4.785 -2.0408 -0.9686 -1.4306
  168MOL    C3840452   6.320   1.857   5.197  0.0693  0.2486  0.2732
  168MOL    C3940453   6.305   1.705   5.238 -0.9539 -0.1454  0.0090
  168MOL    O4040454   6.229   1.628   5.148  0.2027  1.0092  0.4332
  168MOL    C4140455   6.129   1.553   5.197  0.0629  0.5392 -0.2759
  168MOL    C4240456   6.034   1.502   5.090 -0.1131  0.0033  0.0348
  168MOL    O4340457   6.101   1.533   5.315  0.4681 -0.1768 -0.4996
  168MOL    H4440458   6.387   1.845   5.112  0.4903 -0.9869  0.7684
  168MOL    H4540459   6.354   1.924   5.276  0.7774  1.1442 -0.7762
  168MOL    H4640460   6.257   1.704   5.336  0.6958 -0.6114  0.8338
  168MOL    H4740461   5.978   1.414   5.120  0.9810 -1.2006 -1.3665
  168MOL    H4840462   6.094   1.484   5.001 -0.0442  0.2331  0.0362
  168MOL    H4940463   5.964   1.579   5.061 -0.2532  0.0977  0.6213
  168MOL    C5040464   6.440   1.634   5.253  0.4252  0.0285 -0.4652
  168MOL    C5140465   6.534   1.673   5.364 -0.2961  0.3911  0.7217
  168MOL    O5240466   6.457   1.716   5.473  0.2994  0.1849  0.0112
  168MOL    C5340467   6.463   1.844   5.521 -0.0034 -0.6273 -0.5513
  168MOL    C5440468   6.345   1.870   5.616 -0.3001 -0.1411  0.6039
  168MOL    O5540469   6.555   1.932   5.516  0.0032 -0.2514  0.0688
  168MOL    H5640470   6.429   1.525   5.260  0.5685  0.1325  1.5869
  168MOL    H5740471   6.498   1.632   5.160  1.0696 -0.4951 -0.0598
  168MOL    H5840472   6.583   1.756   5.313  0.9446 -1.0789 -0.5640
  168MOL    H5940473   6.367   1.956   5.679  2.1406 -1.1608  1.2160
  168MOL    H6040474   6.332   1.782   5.679 -1.2379  0.0026  0.6091
  168MOL    H6140475   6.255   1.886   5.557 -0.2146  0.1423  0.5532
  168MOL    C6240476   6.619   1.557   5.412  0.0096 -0.0344 -0.0296
  168MOL    C6340477   6.764   1.579   5.439 -0.0317  1.0478  0.0480
  168MOL    O6440478   6.820   1.611   5.312  0.1352  0.5833  0.1649
  168MOL    C6540479   6.940   1.579   5.270  0.1772  0.0198  0.8597
  168MOL    C6640480   6.976   1.626   5.126 -0.9817  0.3273 -0.5582
  168MOL    O6740481   7.021   1.526   5.337  0.7121  0.4187 -1.0097
  168MOL    H6840482   6.563   1.518   5.497  0.7731  0.0354  0.5011
  168MOL    H6940483   6.620   1.478   5.336 -1.8757  2.6145 -2.9312
  168MOL    H7040484   6.800   1.484   5.478 -1.9834  0.1206 -0.3715
  168MOL    H7140485   7.083   1.646   5.117 -1.0285  1.4126  1.1922
  168MOL    H7240486   6.915   1.713   5.103  0.0549  0.5218 -2.7998
  168MOL    H7340487   6.959   1.548   5.051  0.9350 -0.5317 -0.1433
  168MOL    C7440488   6.800   1.681   5.551  0.0836 -0.3629 -0.2663
  168MOL    C7540489   6.777   1.638   5.697 -0.2358  0.6453 -0.3351
  168MOL    O7640490   6.875   1.540   5.739 -0.0668 -0.1238 -0.1111
  168MOL    C7740491   6.846   1.408   5.742  0.1695 -0.2667 -0.2962
  168MOL    C7840492   6.970   1.315   5.765  0.4420  0.8919  0.6264
  168MOL    O7940493   6.738   1.358   5.728  0.2296  0.8646  0.5761
  168MOL    H8040494   6.899   1.726   5.548 -1.0193  2.1505 -0.6056
  168MOL    H8140495   6.734   1.766   5.533 -0.9107 -0.6112  2.0942
  168MOL    H8240496   6.679   1.597   5.719  0.0835 -0.3183 -0.6844
  168MOL    H8340497   7.020   1.357   5.852 -0.6709 -0.0077  1.7171
  168MOL    H8440498   7.034   1.307   5.678  0.7822  0.5161  0.9118
  168MOL    H8540499   6.937   1.215   5.795  1.3031  1.2209  2.7542
  168MOL    C8640500   6.792   1.756   5.800  0.0147 -0.0221  0.0809
  168MOL    C8740501   6.715   1.731   5.933  0.4659  0.8720  0.1916
  168MOL    O8840502   6.755   1.611   5.999 -0.1343  0.1672  0.3453
  168MOL    C8940503   6.663   1.532   6.056  0.6210  0.4360 -0.0491
  168MOL    C9040504   6.717   1.410   6.129 -0.4824  0.3100  0.1891
  168MOL    O9140505   6.541   1.559   6.060 -0.4900  0.2162 -0.1912
  168MOL    H9240506   6.898   1.779   5.811 -0.4513  1.6270  1.3685
  168MOL    H9340507   6.746   1.844   5.753 -2.4293 -1.1146  0.3356
  168MOL    H9440508   6.608   1.735   5.914  0.8482  0.9708 -2.0283
  168MOL    H9540509   6.706   1.319   6.069  0.8126  0.6573 -0.5911
  168MOL    H9640510   6.666   1.411   6.225 -0.8077 -2.4616  0.0897
  168MOL    H9740511   6.824   1.423   6.146 -0.4397  1.8450 -1.1232
  168MOL    C9840512   6.755   1.842   6.029 -0.7506 -0.2092  0.2725
  168MOL    C9940513   6.650   1.959   6.041  0.0941  0.1283  0.0425
  168MOL   O10040514   6.555   1.906   6.132  0.4828  0.4680 -0.2022
  168MOL   C10140515   6.428   1.947   6.116  0.3761  0.4148 -0.5338
  168MOL   C10240516   6.339   1.837   6.174  0.6569  0.0241  0.4282
  168MOL   O10340517   6.385   2.029   6.042  0.2667 -0.2000  0.0587
  168MOL   H10440518   6.776   1.813   6.132 -0.8301 -1.1564  0.0191
  168MOL   H10540519   6.856   1.874   6.002  0.1449 -1.4402  2.0539
  168MOL   H10640520   6.600   1.980   5.946 -0.2520 -0.3781  0.1078
  168MOL   H10740521   6.380   1.738   6.153 -0.6128  0.1497 -3.1226
  168MOL   H10840522   6.241   1.827   6.127  0.2640 -1.3490  1.5233
  168MOL   H10940523   6.310   1.856   6.277  1.8085  2.9137  0.2575
  168MOL   C11040524   6.717   2.086   6.099 -0.3063  0.0391 -0.7313
  168MOL   C11140525   6.782   2.175   5.996 -0.2210 -0.7141  0.3101
  168MOL   O11240526   6.680   2.205   5.900  0.0225  0.1103 -0.2552
  168MOL   C11340527   6.579   2.283   5.930  0.0947 -0.4830  0.4700
  168MOL   C11440528   6.499   2.283   5.803 -0.1829 -0.7549 -0.5790
  168MOL   O11540529   6.556   2.339   6.040 -0.1311  0.6711  0.3550
  168MOL   H11640530   6.644   2.124   6.171  2.6510  0.7591  2.0306
  168MOL   H11740531   6.786   2.062   6.180 -2.0699 -1.2835  0.3989
  168MOL   H11840532   6.846   2.107   5.941  1.4470 -0.3136  1.6919
  168MOL   H11940533   6.431   2.197   5.797 -0.1662 -0.8133  0.0919
  168MOL   H12040534   6.568   2.279   5.719  3.5786  1.5226  2.2517
  168MOL   H12140535   6.437   2.373   5.807 -0.3820 -0.8987 -0.4251
  168MOL   C12240536   6.869   2.288   6.056 -0.1851 -0.1621  0.0006
  168MOL   C12340537   6.976   2.341   5.971 -0.1418  0.7501  0.4604
  168MOL   O12440538   7.070   2.240   5.940  0.0296  0.0246 -0.0164
  168MOL   C12540539   7.200   2.256   5.940  0.2800 -0.1198 -0.9711
  168MOL   C12640540   7.279   2.136   5.914  0.3957 -0.2203  0.5211
  168MOL   O12740541   7.262   2.361   5.964 -0.0512  0.6994 -0.6495
  168MOL   H12840542   6.807   2.375   6.076 -1.7511 -0.9912 -1.1210
  168MOL   H12940543   6.918   2.251   6.146 -0.8991 -0.3545  0.3197
  168MOL   H13040544   7.029   2.415   6.031  0.8435  0.1444  0.3437
  168MOL   H13140545   7.322   2.121   5.815 -1.9603  0.3679 -0.6525
  168MOL   H13240546   7.211   2.052   5.931  0.5750 -0.2336  1.1965
  168MOL   H13340547   7.357   2.127   5.989  1.7556  4.0145 -0.2298
  168MOL   C13440548   6.925   2.409   5.848 -0.1941 -0.3892 -0.4311
  168MOL   C13540549   7.030   2.493   5.775  0.3639  0.2198  0.1472
  168MOL   O13640550   6.980   2.501   5.645 -0.0846  0.0007 -0.0377
  168MOL   C13740551   7.054   2.469   5.532  0.4645  0.1952 -0.0890
  168MOL   C13840552   6.982   2.519   5.409  0.2208 -0.5476 -0.1608
  168MOL   O13940553   7.164   2.415   5.516 -0.5462 -0.2969  0.4020
  168MOL   H14040554   6.896   2.322   5.790  3.3684 -2.2557  0.4550
  168MOL   H14140555   6.839   2.470   5.877 -1.1799 -2.0743  0.2243
  168MOL   H14240556   7.126   2.442   5.776 -0.4995 -1.4331  0.6876
  168MOL   H14340557   6.877   2.488   5.415  0.4394 -1.5881 -1.6559
  168MOL   H14440558   7.027   2.471   5.323  0.7016  0.7630 -0.6567
  168MOL   H14540559   6.988   2.628   5.404  0.4692 -0.6136 -1.4184
  168MOL   C14640560   7.036   2.645   5.834  0.0932  0.2290 -0.1983
  168MOL   C14740561   7.135   2.740   5.766  0.3765  0.2025  0.2110
  168MOL   O14840562   7.110   2.876   5.791  0.0245  0.0961  0.4073
  168MOL   C14940563   7.054   2.951   5.698 -0.5328 -0.6436  0.0719
  168MOL   C15040564   7.031   3.083   5.758 -0.0394 -0.0747 -0.6459
  168MOL   O15140565   7.010   2.911   5.591  0.9067 -0.3172  0.5687
  168MOL   H15240566   6.942   2.699   5.835 -0.1836 -0.2265 -1.0897
  168MOL   H15340567   7.058   2.658   5.940  0.9734 -0.2575 -0.3122
  168MOL   H15440568   7.125   2.726   5.658  1.0278 -2.0535  0.4151
  168MOL   H15540569   6.961   3.077   5.842  1.0381 -1.1352  0.1845
  168MOL   H15640570   7.011   3.160   5.683  0.6872  0.4858 -0.2751
  168MOL   H15740571   7.122   3.122   5.802 -0.7189  0.3225  0.4228
  168MOL   C15840572   7.278   2.710   5.814 -0.4258  0.4655  0.0638
  168MOL   C15940573   7.388   2.798   5.752  0.2984  0.6128  0.4281
  168MOL   O16040574   7.493   2.814   5.843 -0.1940 -0.2024  0.0463
  168MOL   C16140575   7.547   2.934   5.879  0.6494  0.6439  0.9448
  168MOL   C16240576   7.651   2.908   5.991  0.1263 -0.5525  0.1261
  168MOL   O16340577   7.528   3.045   5.841 -0.4127  0.2757  0.5487
  168MOL   H16440578   7.286   2.726   5.922 -1.6075  2.4498 -0.1194
  168MOL   H16540579   7.308   2.605   5.819  0.2916  0.6306 -0.6678
  168MOL   H16640580   7.343   2.896   5.733 -3.3516 -0.8565  1.0377
  168MOL   H16740581   7.755   2.925   5.963  0.8228 -1.7478  1.8792
  168MOL   H16840582   7.635   2.810   6.035 -0.9968  0.6411  2.4678
  168MOL   H16940583   7.634   2.980   6.072 -1.3284  0.2031 -0.8401
  168MOL   C17040584   7.437   2.740   5.615 -0.5740  0.2058  0.8243
  168MOL   C17140585   7.511   2.612   5.608  0.4803  0.4922  0.2013
  168MOL   O17240586   7.493   2.556   5.479  0.3534 -0.1647 -0.7626
  168MOL   C17340587   7.469   2.430   5.461 -0.7241 -0.1682  0.3873
  168MOL   C17440588   7.412   2.406   5.320  0.2722  0.8256 -0.7058
  168MOL   O17540589   7.489   2.332   5.533  0.5898  0.7711  0.2159
  168MOL   H17640590   7.344   2.715   5.563  0.4335 -1.9062 -0.0148
  168MOL   H17740591   7.481   2.819   5.555  1.1817 -1.3592  0.0191
  168MOL   H17840592   7.470   2.547   5.685 -1.0581  0.9501 -0.2130
  168MOL   H17940593   7.460   2.474   5.250 -1.6907  1.8764 -1.0736
  168MOL   H18040594   7.310   2.444   5.323 -0.2417 -0.5658  0.7961
  168MOL   H18140595   7.416   2.303   5.282  1.6297  0.5443  0.1847
  168MOL   C18240596   7.664   2.632   5.640 -0.3057  0.7806  0.0671
  168MOL   C18340597   7.726   2.519   5.723  0.4297 -0.4713  0.1690
  168MOL   O18440598   7.871   2.519   5.692  0.0641  0.7648 -0.9221
  168MOL   C18540599   7.926   2.459   5.589 -0.1980 -0.3201  0.1024
  168MOL   C18640600   0.056   2.465   5.578 -0.0508 -0.0112  0.0516
  168MOL   O18740601   7.867   2.397   5.503  0.5948  0.1631 -0.3529
  168MOL   H18840602   7.703   2.632   5.538  1.5503 -1.6992  0.7179
  168MOL   H18940603   7.684   2.730   5.683  0.9253 -0.0183  1.3531
  168MOL   H19040604   7.681   2.429   5.681  0.9643 -0.9577  0.6330
  168MOL   H19140605   0.098   2.562   5.607  2.1444  0.0572 -3.1416
  168MOL   H19240606   0.066   2.453   5.470  0.3649 -0.4873  0.1395
  168MOL   H19340607   0.095   2.380   5.634 -0.8811 -0.1289  0.4515
  168MOL   C19440608   7.711   2.540   5.877  0.3477 -0.5270 -0.5743
  168MOL   C19540609   7.678   2.403   5.941 -0.3768 -0.2171  0.7926
  168MOL   O19640610   7.794   2.321   5.931  0.4650 -0.1942  0.1189
  168MOL   C19740611   7.799   2.220   5.842  0.2247  0.1525 -0.4662
  168MOL   C19840612   7.931   2.142   5.845  0.3068  0.0930 -0.0262
  168MOL   O19940613   7.707   2.170   5.773  0.1204 -0.0059 -0.0829
  168MOL   H20040614   7.799   2.584   5.924 -0.9065 -1.4630  2.7960
  168MOL   H20140615   7.621   2.597   5.898  0.8981  0.9171 -2.0607
  168MOL   H20240616   7.594   2.360   5.885 -1.0528 -0.3054  1.8712
  168MOL   H20340617   7.907   2.066   5.920 -1.0987  0.6769  0.1460
  168MOL   H20440618   8.011   2.207   5.878 -0.2954  0.8337 -0.0009
  168MOL   H20540619   7.947   2.103   5.744 -3.4906  2.0401 -1.4962
  168MOL   C20640620   7.626   2.415   6.082 -0.7823 -0.2043 -0.3840
  168MOL   C20740621   7.732   2.429   6.193 -0.1986 -0.8281 -0.0440
  168MOL   O20840622   7.684   2.513   6.307 -0.2694  0.0786 -0.7164
  168MOL   C20940623   7.711   2.644   6.311  0.4560  0.8642 -0.3365
  168MOL   C21040624   7.642   2.717   6.417  0.7653  0.2047  0.7741
  168MOL   O21140625   7.784   2.700   6.221 -0.7756  1.0516 -0.2816
  168MOL   H21240626   7.564   2.503   6.095 -1.0684 -0.4430 -0.1194
  168MOL   H21340627   7.556   2.336   6.107 -0.3174 -0.5989 -0.3280
  168MOL   H21440628   7.824   2.473   6.154 -1.1531  1.3030  0.0323
  168MOL   H21540629   7.684   2.817   6.431  0.4623  0.6012 -0.9727
  168MOL   H21640630   7.626   2.672   6.514  0.6981 -1.1917  0.1201
  168MOL   H21740631   7.551   2.759   6.374  0.5822  0.1769  1.1413
  168MOL   C21840632   7.771   2.282   6.249 -1.0060  0.2326  0.1504
  168MOL   C21940633   7.875   2.269   6.367 -0.2129 -0.4269  0.3751
  168MOL   O22040634   7.856   2.131   6.412  0.4590 -0.3148  0.9787
  168MOL   C22140635   7.874   2.105   6.540 -0.2386 -0.1111 -0.6600
  168MOL   C22240636   7.866   1.957   6.572  0.4801  0.0933  0.5862
  168MOL   O22340637   7.909   2.189   6.629  0.0521 -0.2510  0.1229
  168MOL   H22440638   7.687   2.224   6.289  0.7293 -2.1454  0.4725
  168MOL   H22540639   7.800   2.222   6.162 -0.8280  2.4971 -1.3866
  168MOL   H22640640   7.851   2.341   6.446  0.1190 -2.4631  2.3926
  168MOL   H22740641   7.931   1.890   6.517  1.4478  1.0057  0.5952
  168MOL   H22840642   7.765   1.920   6.556  1.3811 -2.2332  0.1567
  168MOL   H22940643   7.882   1.946   6.679  0.0944  1.1283  0.7612
  168MOL   C23040644   0.003   2.285   6.328  0.1357 -0.1751 -0.7408
  168MOL   C23140645   0.057   2.423   6.350 -0.0549 -0.3155 -0.3409
  168MOL   O23240646   0.091   2.447   6.480  0.3846 -0.1580  0.3278
  168MOL   C23340647   0.014   2.511   6.565 -0.3454  0.1884 -0.2572
  168MOL   C23440648   0.069   2.519   6.706  0.1584 -0.1685  0.2179
  168MOL   O23540649   7.927   2.560   6.533  1.3584  0.2046 -0.6709
  168MOL   H23640650   0.064   2.211   6.380 -1.6133 -0.9742  0.2238
  168MOL   H23740651   0.011   2.274   6.220 -0.5703  2.7957 -1.1605
  168MOL   H23840652   8.016   2.502   6.306 -0.3962 -1.0850 -1.2544
  168MOL   H23940653   0.152   2.451   6.723  1.2819  0.7018 -1.5923
  168MOL   H24040654   8.016   2.490   6.779  1.8677 -0.0432  2.0683
  168MOL   H24140655   0.114   2.618   6.721 -0.5666  0.1101  0.5529
  168MOL   H24240656   0.153   2.438   6.301  1.1505 -1.9262  1.5231
  169MOL     C140657   4.302   3.249   2.054  0.0369  0.4851  0.4661
  169MOL     C240658   4.270   3.276   2.203 -0.0397  0.2050 -0.3491
  169MOL     O340659   4.345   3.390   2.246  0.2782 -0.3872 -0.3346
  169MOL     C440660   4.433   3.371   2.350 -0.6550 -0.5014  0.2495
  169MOL     C540661   4.475   3.499   2.411  0.5536  1.1595  0.8205
  169MOL     O640662   4.464   3.267   2.397  0.1041  0.0923  0.3286
  169MOL     H740663   4.411   3.243   2.045  0.0144 -0.8385  1.0018
  169MOL     H840664   4.266   3.323   1.983  1.1147 -0.0947 -0.7203
  169MOL     H940665   4.285   3.180   2.253  1.8521 -0.0744 -1.4207
  169MOL    H1040666   4.416   3.578   2.365 -0.8013  0.8917  2.0377
  169MOL    H1140667   4.583   3.514   2.412  0.7757 -0.2040 -0.4945
  169MOL    H1240668   4.426   3.490   2.509 -3.1798  1.2582 -0.9588
  169MOL    H1340669   4.261   3.154   2.019 -1.8835  1.3154  0.4304
  169MOL    C1440670   4.125   3.313   2.239  1.2000  0.2997 -0.1558
  169MOL    C1540671   4.015   3.211   2.188 -0.2783  0.4088 -0.2181
  169MOL    O1640672   4.010   3.096   2.273  0.4180  0.6025 -0.2084
  169MOL    C1740673   3.997   2.974   2.226 -0.0591  0.2934  0.5731
  169MOL    C1840674   3.983   2.866   2.325  0.0384 -0.0119 -0.2973
  169MOL    O1940675   4.013   2.942   2.106 -0.2957 -0.2672 -0.5136
  169MOL    H2040676   4.120   3.319   2.348 -0.1036 -0.8311 -0.1449
  169MOL    H2140677   4.111   3.407   2.187 -4.1226 -1.2047 -1.7760
  169MOL    H2240678   4.044   3.179   2.088 -0.5874  0.0624 -0.1981
  169MOL    H2340679   4.037   2.773   2.305 -1.2230 -0.5166 -1.4562
  169MOL    H2440680   3.877   2.847   2.342  0.3247 -0.8603  0.5660
  169MOL    H2540681   4.026   2.904   2.418 -0.5256 -1.1070  0.4262
  169MOL    C2640682   3.868   3.257   2.187 -0.1731 -0.2146 -0.2227
  169MOL    C2740683   3.819   3.299   2.049 -0.3950 -0.5980 -0.5259
  169MOL    O2840684   3.795   3.180   1.981  0.1233  0.3186 -0.2373
  169MOL    C2940685   3.868   3.156   1.874  0.0206 -0.5857  0.1424
  169MOL    C3040686   3.828   3.025   1.812 -0.2487 -0.3608 -0.4781
  169MOL    O3140687   3.965   3.221   1.831 -0.0560  0.4869  0.0069
  169MOL    H3240688   3.808   3.180   2.235  0.0744  1.7189  3.4282
  169MOL    H3340689   3.869   3.347   2.249 -2.0186 -0.3442  0.0286
  169MOL    H3440690   3.895   3.364   2.006 -1.1678  0.3255 -0.5094
  169MOL    H3540691   3.878   3.000   1.719  0.1581  1.7705 -0.8392
  169MOL    H3640692   3.719   3.034   1.804 -0.2640 -0.2981 -0.2194
  169MOL    H3740693   3.840   2.949   1.890 -0.2571  0.1261 -0.0009
  169MOL    C3840694   3.692   3.388   2.055  0.0904 -0.4830  0.2548
  169MOL    C3940695   3.709   3.538   2.075  0.2423 -0.5628  0.2008
  169MOL    O4040696   3.759   3.581   1.948 -0.4400  0.1312 -0.0197
  169MOL    C4140697   3.863   3.671   1.943 -0.1635 -0.7688 -0.5604
  169MOL    C4240698   3.921   3.678   1.795 -0.3105  0.3434 -0.4156
  169MOL    O4340699   3.894   3.754   2.033 -0.0998  0.3778  0.2924
  169MOL    H4440700   3.630   3.371   1.967 -0.8379 -0.0296  0.8104
  169MOL    H4540701   3.621   3.349   2.128 -0.9549  0.3604 -0.2950
  169MOL    H4640702   3.780   3.561   2.154  0.4220  0.0896 -0.1549
  169MOL    H4740703   3.878   3.762   1.739 -1.9430 -0.6080 -0.6381
  169MOL    H4840704   3.896   3.577   1.762 -0.3873  0.7452 -1.6121
  169MOL    H4940705   4.029   3.691   1.800 -0.2760 -0.2407  0.2671
  169MOL    C5040706   3.573   3.612   2.111  0.1401 -0.2031  0.1193
  169MOL    C5140707   3.520   3.594   2.255 -0.3830  0.2807 -1.6047
  169MOL    O5240708   3.436   3.480   2.257 -0.3809  0.0101 -0.0666
  169MOL    C5340709   3.305   3.488   2.285 -0.2694 -1.1213  0.0196
  169MOL    C5440710   3.243   3.354   2.309 -0.1975 -0.5714 -0.3358
  169MOL    O5540711   3.252   3.598   2.285  0.0784 -0.2141  0.2596
  169MOL    H5640712   3.607   3.716   2.107  2.1101 -0.8992 -2.3086
  169MOL    H5740713   3.498   3.597   2.034  0.3943  0.3858 -0.2445
  169MOL    H5840714   3.461   3.681   2.282 -1.2575 -1.4130  2.3363
  169MOL    H5940715   3.303   3.303   2.385 -2.3253  0.0917  1.8571
  169MOL    H6040716   3.253   3.297   2.217  2.6673 -2.6014  1.1564
  169MOL    H6140717   3.138   3.351   2.339 -0.4269  0.8702 -0.9318
  169MOL    C6240718   3.636   3.570   2.358  0.0560  0.5170  0.5636
  169MOL    C6340719   3.602   3.586   2.515  0.5719  0.0865 -0.6203
  169MOL    O6440720   3.506   3.488   2.541  0.9280  0.4929 -0.7979
  169MOL    C6540721   3.410   3.503   2.631  1.1743 -0.4751 -0.9083
  169MOL    C6640722   3.308   3.389   2.646  0.5014  0.2483  0.3457
  169MOL    O6740723   3.386   3.602   2.697 -0.2786 -0.1677  0.2444
  169MOL    H6840724   3.699   3.482   2.345  0.9572  1.3286 -0.7193
  169MOL    H6940725   3.701   3.649   2.319 -1.3173 -0.1528 -3.2452
  169MOL    H7040726   3.560   3.685   2.525  0.5964  0.1097 -0.7389
  169MOL    H7140727   3.352   3.290   2.634 -1.3348 -0.4476 -0.9102
  169MOL    H7240728   3.225   3.389   2.576 -0.7755  0.0298  1.8255
  169MOL    H7340729   3.251   3.394   2.739 -1.6176 -1.9403 -0.7737
  169MOL    C7440730   3.724   3.585   2.611 -0.0926  0.1767  0.9599
  169MOL    C7540731   3.813   3.709   2.596 -0.3910 -0.2369  0.1497
  169MOL    O7640732   3.744   3.819   2.656 -0.2678  0.4402 -0.0712
  169MOL    C7740733   3.703   3.920   2.584  0.2439  0.4233 -0.3888
  169MOL    C7840734   3.609   4.008   2.657 -1.0302 -0.8903 -0.0747
  169MOL    O7940735   3.739   3.951   2.471 -0.0850 -0.4017 -0.0799
  169MOL    H8040736   3.694   3.563   2.714  0.9668  1.5437  1.5786
  169MOL    H8140737   3.785   3.496   2.597 -0.6558 -0.4331  2.2850
  169MOL    H8240738   3.830   3.734   2.492  0.6165 -1.2657  0.0525
  169MOL    H8340739   3.587   3.968   2.756 -1.8594 -0.7261 -0.1872
  169MOL    H8440740   3.516   4.018   2.600 -0.5198  0.0106 -0.7595
  169MOL    H8540741   3.643   4.109   2.680  1.4204 -0.8127 -3.7614
  169MOL    C8640742   3.955   3.678   2.659 -0.1015  0.0420 -0.3685
  169MOL    C8740743   4.047   3.577   2.578  0.4808 -0.2250  0.2834
  169MOL    O8840744   4.121   3.654   2.476 -0.1707 -0.1702 -0.2061
  169MOL    C8940745   4.073   3.662   2.346 -0.0666  0.6257 -0.2898
  169MOL    C9040746   4.171   3.727   2.248  0.3438  0.0437 -0.3888
  169MOL    O9140747   3.979   3.606   2.299  0.3236 -0.5010  0.2987
  169MOL    H9240748   4.016   3.768   2.662  2.1621 -1.4747  1.9721
  169MOL    H9340749   3.942   3.656   2.765  1.5579  2.2567  0.3416
  169MOL    H9440750   3.985   3.508   2.521 -2.3613  0.3803  2.5073
  169MOL    H9540751   4.274   3.697   2.267 -0.0432 -2.0820 -1.5810
  169MOL    H9640752   4.158   3.835   2.240 -3.3671 -0.2354  0.6461
  169MOL    H9740753   4.145   3.689   2.150  0.3985  1.1616 -0.8488
  169MOL    C9840754   4.142   3.485   2.651  0.4058  0.5774  0.0859
  169MOL    C9940755   4.092   3.396   2.768  0.0028 -0.2872 -0.0497
  169MOL   O10040756   3.973   3.317   2.734 -0.4078  0.1188  0.0824
  169MOL   C10140757   3.975   3.209   2.655  0.0568  0.6933 -0.3472
  169MOL   C10240758   3.841   3.134   2.648  0.3815  0.1362  0.5608
  169MOL   O10340759   4.069   3.181   2.582 -0.3961 -0.1352  0.6369
  169MOL   H10440760   4.192   3.430   2.571  0.2646 -0.0185  0.4075
  169MOL   H10540761   4.218   3.552   2.691  0.8927  0.8110 -1.1900
  169MOL   H10640762   4.059   3.471   2.840 -0.5101 -0.3435 -0.2305
  169MOL   H10740763   3.784   3.205   2.588  1.4951  1.3672  0.9353
  169MOL   H10840764   3.794   3.123   2.746 -1.0761 -1.2175 -0.2639
  169MOL   H10940765   3.836   3.043   2.588  1.8808 -0.9327  2.0042
  169MOL   C11040766   4.214   3.310   2.817  0.5846  0.4865 -0.2901
  169MOL   C11140767   4.185   3.208   2.925  0.5325  0.0222 -0.2085
  169MOL   O11240768   4.314   3.155   2.962 -0.0566  0.4985  0.2274
  169MOL   C11340769   4.328   3.039   3.022  0.7653  0.4701  0.3835
  169MOL   C11440770   4.468   3.018   3.066  0.4575  0.0154 -0.3397
  169MOL   O11540771   4.239   2.963   3.056 -0.0854  0.3596  0.1698
  169MOL   H11640772   4.265   3.261   2.734  1.1466 -0.0540  0.3730
  169MOL   H11740773   4.284   3.383   2.857  0.3117  0.7171 -0.2295
  169MOL   H11840774   4.120   3.128   2.888  1.2126 -0.6206 -0.0138
  169MOL   H11940775   4.467   3.000   3.174 -3.0110  1.2443 -0.1075
  169MOL   H12040776   4.536   3.098   3.037 -0.9929  1.6047  0.5252
  169MOL   H12140777   4.508   2.931   3.013 -0.6319 -1.0945  0.6146
  169MOL   C12240778   4.126   3.280   3.046  0.1603 -0.2962 -0.0732
  169MOL   C12340779   3.977   3.251   3.077  0.0571  0.1003  0.3804
  169MOL   O12440780   3.958   3.105   3.067  0.1285  0.2089 -0.2777
  169MOL   C12540781   3.842   3.047   3.012  0.7437  0.0601  0.2337
  169MOL   C12640782   3.845   2.901   2.978  0.2723  0.2777  0.6780
  169MOL   O12740783   3.742   3.115   2.979  0.2086  0.9735 -0.3007
  169MOL   H12840784   4.190   3.263   3.133 -0.4540 -1.7050  0.1231
  169MOL   H12940785   4.145   3.387   3.041 -0.9276 -0.1102 -0.3849
  169MOL   H13040786   3.914   3.308   3.009 -2.2373 -0.6840  1.7971
  169MOL   H13140787   3.749   2.850   2.986  1.0211 -1.2139  0.2933
  169MOL   H13240788   3.921   2.831   3.015  0.4467 -0.0921 -0.3524
  169MOL   H13340789   3.852   2.899   2.870 -0.2920 -0.1444  0.6442
  169MOL   C13440790   3.917   3.281   3.215  0.4997 -0.2757 -0.2712
  169MOL   C13540791   3.913   3.430   3.244 -0.0389 -0.2921 -0.0913
  169MOL   O13640792   3.811   3.510   3.169  0.1732  0.2323  0.6699
  169MOL   C13740793   3.849   3.591   3.071 -0.8776 -0.8103 -0.1363
  169MOL   C13840794   3.729   3.639   2.989  0.0259 -0.0152 -0.0770
  169MOL   O13940795   3.959   3.625   3.044 -0.0297  0.4305 -0.0883
  169MOL   H14040796   3.824   3.225   3.212  0.0126  0.5823 -1.5141
  169MOL   H14140797   3.984   3.240   3.291 -0.4989 -0.6406  0.4166
  169MOL   H14240798   4.012   3.474   3.226  0.6262 -1.0874  1.4865
  169MOL   H14340799   3.687   3.712   3.059  1.7012  1.0240 -0.1040
  169MOL   H14440800   3.655   3.560   2.976  2.2072 -1.6463 -3.1261
  169MOL   H14540801   3.766   3.695   2.903  0.1172  1.1032  0.6865
  169MOL   C14640802   3.885   3.461   3.398  0.6506 -0.0153 -0.1319
  169MOL   C14740803   4.005   3.518   3.476  0.0582 -0.3304  0.0035
  169MOL   O14840804   3.973   3.572   3.608  0.5678  0.5384 -0.4658
  169MOL   C14940805   3.930   3.498   3.708  0.7978 -0.5689 -0.1308
  169MOL   C15040806   3.916   3.586   3.834 -0.6790  0.4409  0.4509
  169MOL   O15140807   3.899   3.381   3.708 -0.0460 -0.3491  0.0399
  169MOL   H15240808   3.804   3.533   3.401  2.5493  2.3314 -2.7363
  169MOL   H15340809   3.840   3.377   3.450  0.2198  1.0992  1.3316
  169MOL   H15440810   4.032   3.605   3.417 -1.4350  1.5026  1.9628
  169MOL   H15540811   3.827   3.648   3.824  1.0253  2.6416 -1.7458
  169MOL   H15640812   4.014   3.634   3.837 -0.3752  0.0693 -1.8644
  169MOL   H15740813   3.918   3.524   3.923  1.5011 -1.0050 -0.5531
  169MOL   C15840814   4.132   3.431   3.475 -0.2976 -0.5850 -0.2165
  169MOL   C15940815   4.266   3.510   3.492 -0.2956  0.2078 -0.2826
  169MOL   O16040816   4.263   3.604   3.599 -0.1021 -0.3106 -0.2321
  169MOL   C16140817   4.264   3.733   3.572 -0.3310 -0.8725 -0.1713
  169MOL   C16240818   4.264   3.817   3.698 -1.0037 -0.9854 -0.4707
  169MOL   O16340819   4.255   3.789   3.461 -0.3026  0.7963 -1.0026
  169MOL   H16440820   4.128   3.356   3.553  1.2883  0.1508  0.6011
  169MOL   H16540821   4.138   3.385   3.376  0.0181 -1.3708  0.1678
  169MOL   H16640822   4.298   3.555   3.399 -1.0370  1.4107  0.0328
  169MOL   H16740823   4.271   3.924   3.677  0.7816 -0.8949  0.4053
  169MOL   H16840824   4.351   3.790   3.759  0.4465 -1.9212 -2.8902
  169MOL   H16940825   4.171   3.795   3.751 -0.4357 -0.8158  0.6337
  169MOL   C17040826   4.390   3.421   3.532  0.5385 -0.1584 -0.5370
  169MOL   C17140827   4.454   3.324   3.423  0.8122 -0.2838 -0.0260
  169MOL   O17240828   4.549   3.401   3.352 -0.0524  0.7413 -0.2333
  169MOL   C17340829   4.506   3.475   3.249 -0.7770 -0.5830 -0.1782
  169MOL   C17440830   4.599   3.588   3.207 -0.6719 -0.3965  0.2052
  169MOL   O17540831   4.405   3.457   3.189  0.2489  0.5137  0.2207
  169MOL   H17640832   4.472   3.483   3.569 -0.3806 -0.4676  2.0822
  169MOL   H17740833   4.367   3.378   3.629  1.0439  1.8995  0.5217
  169MOL   H17840834   4.383   3.288   3.348  0.6630  2.2722 -1.1457
  169MOL   H17940835   4.572   3.683   3.253  0.3307  0.9061 -1.8562
  169MOL   H18040836   4.586   3.606   3.101  1.2459  0.7129  0.1338
  169MOL   H18140837   4.699   3.559   3.241 -0.7444  1.1816  1.8332
  169MOL   C18240838   4.528   3.200   3.471  0.0680  0.0127 -0.2956
  169MOL   C18340839   4.452   3.115   3.567 -0.7260 -0.5018  0.1718
  169MOL   O18440840   4.381   3.015   3.501 -0.5624  0.5537 -0.2960
  169MOL   C18540841   4.255   3.031   3.439  0.4593 -0.5022 -0.4758
  169MOL   C18640842   4.198   2.905   3.379 -0.2353  0.1065  0.4058
  169MOL   O18740843   4.192   3.135   3.439 -0.2392 -0.2870 -0.2768
  169MOL   H18840844   4.555   3.136   3.387 -2.1442 -1.2192 -0.1069
  169MOL   H18940845   4.618   3.246   3.511 -0.5336 -0.0855  1.1993
  169MOL   H19040846   4.372   3.167   3.620 -0.1913  0.3987  0.0965
  169MOL   H19140847   4.283   2.864   3.323 -0.0073  1.8540 -0.5828
  169MOL   H19240848   4.119   2.917   3.305 -3.5726 -0.4810  3.7446
  169MOL   H19340849   4.173   2.827   3.450 -2.7005  2.5836  2.3637
  169MOL   C19440850   4.542   3.038   3.669 -0.0998 -0.3155  0.5042
  169MOL   C19540851   4.475   3.027   3.809 -0.1975 -0.3319 -0.1848
  169MOL   O19640852   4.433   2.899   3.843  0.5142 -0.2149  0.0721
  169MOL   C19740853   4.305   2.869   3.807  0.5374  0.6855  0.5832
  169MOL   C19840854   4.274   2.717   3.792  0.7481  0.5033 -0.0254
  169MOL   O19940855   4.212   2.949   3.793 -0.2170 -0.0424  0.1931
  169MOL   H20040856   4.562   2.938   3.629 -0.5146 -0.2893  0.2259
  169MOL   H20140857   4.635   3.093   3.678  0.6355 -1.5959  0.8460
  169MOL   H20240858   4.394   3.100   3.816 -0.4658 -0.5836 -0.6671
  169MOL   H20340859   4.273   2.683   3.895  0.3354  0.6785  0.0303
  169MOL   H20440860   4.353   2.665   3.738  0.0815 -1.6877  1.0566
  169MOL   H20540861   4.180   2.711   3.738  0.2286  1.9933  0.6695
  169MOL   C20640862   4.580   3.066   3.915  0.4103  0.5361  0.2385
  169MOL   C20740863   4.604   3.216   3.949 -0.0110 -0.4465  0.0781
  169MOL   O20840864   4.503   3.270   4.033 -0.4195  1.0286 -0.0327
  169MOL   C20940865   4.395   3.336   3.980 -0.0293  0.0537 -0.0866
  169MOL   C21040866   4.298   3.362   4.089 -0.7361  0.3622 -0.6725
  169MOL   O21140867   4.374   3.357   3.859  0.2567 -0.7909  0.5422
  169MOL   H21240868   4.549   3.013   4.005 -0.8390 -0.3935 -0.7146
  169MOL   H21340869   4.668   3.009   3.881  1.5297  1.9468  0.7273
  169MOL   H21440870   4.608   3.267   3.853 -0.0931  1.7306  1.2087
  169MOL   H21540871   4.339   3.427   4.167  2.8865 -1.1301 -1.2218
  169MOL   H21640872   4.239   3.280   4.131 -0.1277  0.2043 -0.1076
  169MOL   H21740873   4.231   3.434   4.043  0.8295  0.2641 -3.1828
  169MOL   C21840874   4.744   3.232   4.014 -0.9152  0.0842  0.4524
  169MOL   C21940875   4.801   3.374   4.011  0.5912  0.4849 -0.3461
  169MOL   O22040876   4.829   3.411   3.879 -0.3024  0.1759  0.4208
  169MOL   C22140877   4.930   3.506   3.855 -0.2671  0.6016  0.4830
  169MOL   C22240878   4.959   3.520   3.698  0.2890  0.3705  0.1399
  169MOL   O22340879   4.989   3.571   3.937  0.0451 -0.2602  0.0508
  169MOL   H22440880   4.728   3.191   4.113  0.7290 -0.5651  0.4647
  169MOL   H22540881   4.809   3.175   3.947 -2.7823 -1.1560 -0.3403
  169MOL   H22640882   4.897   3.359   4.060 -0.4721 -3.1916  0.7132
  169MOL   H22740883   4.869   3.527   3.637  1.5453  1.0668 -1.6913
  169MOL   H22840884   5.006   3.428   3.661  1.4463  1.5751 -1.4628
  169MOL   H22940885   5.023   3.604   3.673 -0.9533  0.7287 -1.9277
  169MOL   C23040886   4.729   3.484   4.096 -0.0316 -0.1943  0.1523
  169MOL   C23140887   4.733   3.447   4.248 -0.3727  0.0448  0.2836
  169MOL   O23240888   4.623   3.514   4.320  0.1012 -0.4845 -0.4828
  169MOL   C23340889   4.560   3.444   4.415  0.3938 -0.4841  1.1909
  169MOL   C23440890   4.470   3.532   4.499 -0.3973 -0.6600 -0.3290
  169MOL   O23540891   4.555   3.328   4.431 -0.0874  0.4229  1.1539
  169MOL   H23640892   4.781   3.580   4.097 -1.0561  0.3614  0.6740
  169MOL   H23740893   4.624   3.497   4.072 -0.4015 -2.3398  0.4751
  169MOL   H23840894   4.823   3.488   4.293 -1.1018  1.9440  0.0592
  169MOL   H23940895   4.392   3.581   4.441  1.4088  0.1576 -2.1661
  169MOL   H24040896   4.527   3.607   4.554 -0.4283 -1.1066  0.3147
  169MOL   H24140897   4.418   3.472   4.573  2.0071 -0.0922  1.9071
  169MOL   H24240898   4.742   3.340   4.267 -0.5591 -0.0833 -0.3551
  170MOL     C140899   5.698   5.416   1.489 -0.0890 -0.4750 -0.0930
  170MOL     C240900   5.717   5.362   1.628 -0.5572 -0.4235  0.1673
  170MOL     O340901   5.849   5.322   1.638  0.4490  0.2310 -0.4506
  170MOL     C440902   5.890   5.210   1.692 -0.2504 -0.1823  0.1788
  170MOL     C540903   6.043   5.204   1.683  0.3409  0.8257  0.6543
  170MOL     O640904   5.816   5.127   1.750  0.6904  0.8178  0.0992
  170MOL     H740905   5.603   5.464   1.465  0.1574  0.6360  1.1193
  170MOL     H840906   5.705   5.331   1.421  0.1683 -0.8647  0.4117
  170MOL     H940907   5.639   5.290   1.650 -3.1594  1.0482 -3.6489
  170MOL    H1040908   6.068   5.202   1.577  2.0481  4.1225  0.9210
  170MOL    H1140909   6.092   5.124   1.739  2.6709 -0.0911 -2.5823
  170MOL    H1240910   6.087   5.295   1.723  1.5717  0.6845 -0.3330
  170MOL    H1340911   5.773   5.485   1.452  0.5417 -1.5286 -0.8299
  170MOL    C1440912   5.709   5.470   1.731 -0.4077 -0.2688 -0.2057
  170MOL    C1540913   5.569   5.537   1.740  0.0794  1.2447  0.6689
  170MOL    O1640914   5.484   5.432   1.782  0.0944  0.0328  0.0552
  170MOL    C1740915   5.345   5.447   1.779 -0.0409 -0.6031 -0.0626
  170MOL    C1840916   5.259   5.349   1.857  0.1270 -0.0420  0.4058
  170MOL    O1940917   5.304   5.551   1.729  0.5257 -0.1356  0.4858
  170MOL    H2040918   5.713   5.413   1.824  2.4760 -0.2429 -0.2699
  170MOL    H2140919   5.795   5.536   1.721 -0.5642 -0.0879 -0.3561
  170MOL    H2240920   5.543   5.578   1.642  1.3674 -0.7949 -0.5622
  170MOL    H2340921   5.167   5.329   1.802  1.1312  0.2165 -1.3932
  170MOL    H2440922   5.243   5.400   1.952 -1.2785  0.6438 -0.1908
  170MOL    H2540923   5.316   5.256   1.867 -0.3793 -0.3711  0.2615
  170MOL    C2640924   5.569   5.647   1.850 -0.5935  0.2046  0.5010
  170MOL    C2740925   5.613   5.783   1.792 -0.5918 -0.7490  0.6466
  170MOL    O2840926   5.740   5.773   1.723 -0.1121 -0.0096 -0.0795
  170MOL    C2940927   5.850   5.791   1.796 -0.0059 -0.3720  0.3957
  170MOL    C3040928   5.968   5.809   1.705 -0.3648  0.4213 -0.7272
  170MOL    O3140929   5.865   5.800   1.919  0.0047 -0.8992 -0.4543
  170MOL    H3240930   5.473   5.646   1.902 -0.7478  1.5780  0.2822
  170MOL    H3340931   5.649   5.617   1.918 -0.5075 -1.3010 -0.2603
  170MOL    H3440932   5.634   5.853   1.872  2.0339  0.2806 -0.8662
  170MOL    H3540933   5.943   5.848   1.606  1.6668  0.7925 -1.1057
  170MOL    H3640934   6.033   5.722   1.701  0.4426  1.0987 -3.5585
  170MOL    H3740935   6.031   5.891   1.740 -0.9005  1.1900 -1.5260
  170MOL    C3840936   5.506   5.842   1.701  0.5263  0.2896 -0.8064
  170MOL    C3940937   5.486   5.993   1.711 -1.0345 -0.6591  0.2920
  170MOL    O4040938   5.596   6.070   1.664  0.0905 -0.1488  0.4416
  170MOL    C4140939   5.687   6.111   1.754 -0.7943 -0.3444 -0.1253
  170MOL    C4240940   5.803   6.185   1.691  0.3215  0.0395 -0.1092
  170MOL    O4340941   5.680   6.106   1.875 -0.6538  0.4680  0.2437
  170MOL    H4440942   5.532   5.801   1.603  0.6460 -1.0988 -0.1991
  170MOL    H4540943   5.414   5.790   1.727 -0.1932  1.4249 -1.0608
  170MOL    H4640944   5.473   6.017   1.817 -1.5472  0.9994 -0.1225
  170MOL    H4740945   5.781   6.290   1.710  0.8780  0.3229 -0.9868
  170MOL    H4840946   5.828   6.172   1.586  0.3638 -1.1584  0.0513
  170MOL    H4940947   5.892   6.165   1.751 -0.7221  1.9764  2.1650
  170MOL    C5040948   5.350   6.047   1.643 -0.0911 -0.3165  0.3866
  170MOL    C5140949   5.308   6.201   1.653  0.8003  0.3108  0.2092
  170MOL    O5240950   5.352   6.274   1.542  0.4086 -0.2280  0.3953
  170MOL    C5340951   5.469   6.344   1.545 -0.8142 -0.3839  0.0472
  170MOL    C5440952   5.509   6.398   1.412 -0.5581 -0.1975 -0.2024
  170MOL    O5540953   5.540   6.369   1.637  0.4004 -0.4615  0.3084
  170MOL    H5640954   5.343   6.011   1.541  0.6705 -0.2343  0.3052
  170MOL    H5740955   5.265   5.995   1.689 -0.5586  1.6682  1.8454
  170MOL    H5840956   5.343   6.242   1.747 -0.6410  0.8560  0.5211
  170MOL    H5940957   5.617   6.391   1.398 -0.6538  0.6742 -1.3235
  170MOL    H6040958   5.478   6.502   1.412  0.9709  0.2866  0.8296
  170MOL    H6140959   5.460   6.346   1.330 -0.6962  0.7696 -0.7317
  170MOL    C6240960   5.163   6.232   1.655  0.3119 -0.1216  0.7270
  170MOL    C6340961   5.145   6.387   1.678 -0.2003  0.1502 -0.3746
  170MOL    O6440962   5.009   6.422   1.710 -0.2791 -0.1565  0.4621
  170MOL    C6540963   4.936   6.499   1.620  0.3069  0.5367  0.2125
  170MOL    C6640964   4.790   6.529   1.669 -0.1394  0.5268  1.2866
  170MOL    O6740965   4.976   6.551   1.515 -0.0414 -0.4317 -0.1884
  170MOL    H6840966   5.106   6.205   1.567  0.4658 -2.5846  1.3414
  170MOL    H6940967   5.107   6.176   1.731  0.3803  1.2179  1.7912
  170MOL    H7040968   5.172   6.422   1.579 -2.7853  0.4743 -0.9955
  170MOL    H7140969   4.793   6.568   1.771  0.9173  0.9098  1.1151
  170MOL    H7240970   4.743   6.432   1.655  0.4002  0.5807 -1.0934
  170MOL    H7340971   4.745   6.606   1.606 -0.9857 -0.8033  0.2364
  170MOL    C7440972   5.225   6.464   1.784  0.1378 -0.1403  0.6179
  170MOL    C7540973   5.195   6.409   1.933  0.5127 -0.1759  0.2678
  170MOL    O7640974   5.317   6.405   2.011 -0.3441 -0.0363 -0.1775
  170MOL    C7740975   5.375   6.286   2.038 -0.7389 -0.7374  0.4788
  170MOL    C7840976   5.507   6.305   2.111 -0.1087  0.4741  0.5605
  170MOL    O7940977   5.334   6.170   2.021 -0.0787 -0.3939 -0.4781
  170MOL    H8040978   5.333   6.462   1.769 -0.0283  0.7127 -0.8261
  170MOL    H8140979   5.190   6.567   1.786 -0.3823 -0.3259  1.7382
  170MOL    H8240980   5.151   6.310   1.915  2.5508 -0.7197 -2.0244
  170MOL    H8340981   5.593   6.286   2.047 -0.4755  3.1057 -0.7948
  170MOL    H8440982   5.508   6.248   2.204  1.6492 -1.4528 -0.5990
  170MOL    H8540983   5.519   6.408   2.144 -0.1686  0.0916  1.7736
  170MOL    C8640984   5.092   6.504   2.008  0.1926 -0.7108 -0.4608
  170MOL    C8740985   5.066   6.462   2.151 -0.3920  0.4176 -0.3480
  170MOL    O8840986   5.003   6.563   2.224  0.3641  0.0907 -0.8753
  170MOL    C8940987   5.069   6.633   2.326  0.7885 -0.9258 -0.4902
  170MOL    C9040988   4.973   6.704   2.410  0.4820 -0.2468  0.2750
  170MOL    O9140989   5.192   6.638   2.349  0.3777 -0.1954  0.0484
  170MOL    H9240990   5.125   6.608   2.006  1.1833 -0.9600  1.6554
  170MOL    H9340991   4.999   6.502   1.950  1.1743  0.5132 -2.1086
  170MOL    H9440992   5.160   6.450   2.204  0.7970  0.7247 -2.3396
  170MOL    H9540993   4.943   6.645   2.497  2.1562 -2.2537 -0.4656
  170MOL    H9640994   4.881   6.729   2.357  0.5861 -0.1177  0.1562
  170MOL    H9740995   5.013   6.798   2.447  2.3942 -1.2065  0.6954
  170MOL    C9840996   4.990   6.325   2.158 -0.9939  0.4344 -0.3091
  170MOL    C9940997   4.852   6.306   2.086 -0.5520 -0.3039  0.0009
  170MOL   O10040998   4.805   6.181   2.117  0.1639  0.1880  0.8047
  170MOL   C10140999   4.826   6.081   2.027 -0.3837 -0.7307 -0.1945
  170MOL   C10241000   4.751   5.959   2.072  0.0211 -0.1058 -0.0717
  170MOL   O10341001   4.903   6.085   1.929 -0.0580 -0.1391 -0.0096
  170MOL   H10441002   5.065   6.252   2.129 -1.1188  0.2524 -0.1717
  170MOL   H10541003   4.984   6.305   2.265 -0.8875 -1.1148 -0.5950
  170MOL   H10641004   4.867   6.317   1.978  0.3748 -0.7875  0.0735
  170MOL   H10741005   4.782   5.872   2.014  0.1792 -1.8897  2.5962
  170MOL   H10841006   4.649   5.980   2.040  0.0050  1.0257  0.6687
  170MOL   H10941007   4.758   5.939   2.179  1.0578 -0.6828 -0.2470
  170MOL   C11041008   4.748   6.404   2.132 -0.1769 -0.2551  0.6082
  170MOL   C11141009   4.633   6.423   2.036  0.3727 -0.6322 -0.4493
  170MOL   O11241010   4.567   6.303   2.009 -0.2813 -0.5341  0.4105
  170MOL   C11341011   4.562   6.256   1.887 -0.4157  0.5174 -0.6084
  170MOL   C11441012   4.454   6.150   1.868  0.3029  0.1940 -0.2852
  170MOL   O11541013   4.643   6.286   1.800 -0.0276 -0.7009  0.3448
  170MOL   H11641014   4.706   6.378   2.230 -2.9460 -0.8436 -0.6725
  170MOL   H11741015   4.796   6.502   2.134 -0.0305 -0.3445  2.5782
  170MOL   H11841016   4.680   6.463   1.946 -0.1465  1.0461  0.0258
  170MOL   H11941017   4.495   6.057   1.906  3.5764  1.7988  0.2562
  170MOL   H12041018   4.431   6.131   1.763 -1.1259 -0.1150  0.0747
  170MOL   H12141019   4.370   6.159   1.936  1.4876 -0.3985  1.2739
  170MOL   C12241020   4.531   6.527   2.085 -0.1645 -0.1018  0.4452
  170MOL   C12341021   4.425   6.567   1.982 -0.6432  0.1153 -0.0187
  170MOL   O12441022   4.331   6.472   1.952 -0.1451 -0.1594 -0.1249
  170MOL   C12541023   4.235   6.428   2.044 -0.9675 -0.1849 -0.1372
  170MOL   C12641024   4.143   6.312   2.000  0.4440 -0.0699  0.2711
  170MOL   O12741025   4.218   6.481   2.156 -0.9250  0.1424 -0.2709
  170MOL   H12841026   4.478   6.492   2.174  0.9235 -3.3227 -0.1125
  170MOL   H12941027   4.586   6.614   2.121 -0.1089 -0.2484  0.7163
  170MOL   H13041028   4.490   6.591   1.898  1.2765 -1.3973  1.0039
  170MOL   H13141029   4.159   6.295   1.894 -0.8424  0.3644 -0.0088
  170MOL   H13241030   4.044   6.349   2.029  1.0018  0.0269  2.1036
  170MOL   H13341031   4.171   6.228   2.063  1.4422  1.2255  1.5928
  170MOL   C13441032   4.361   6.708   2.006  0.2185  0.2292  0.1101
  170MOL   C13541033   4.468   6.825   1.985  0.7097 -0.0419  0.4611
  170MOL   O13641034   4.492   6.833   1.844 -0.6070  0.1334  0.3505
  170MOL   C13741035   4.618   6.835   1.798  0.0321  0.1723  1.1846
  170MOL   C13841036   4.613   6.839   1.644 -0.2379  0.0028 -0.0935
  170MOL   O13941037   4.722   6.841   1.865  0.3495 -0.3543 -0.3324
  170MOL   H14041038   4.270   6.719   1.946  1.5189 -1.0216 -2.1840
  170MOL   H14141039   4.336   6.711   2.112 -0.9222  2.1184 -0.1749
  170MOL   H14241040   4.558   6.785   2.032  1.2209 -0.6215 -0.9817
  170MOL   H14341041   4.710   6.868   1.602 -0.1124 -0.8327 -0.3956
  170MOL   H14441042   4.527   6.901   1.619 -0.0420  1.6866  3.1471
  170MOL   H14541043   4.588   6.740   1.605  1.0337 -1.0694  1.7493
  170MOL   C14641044   4.423   6.965   2.037 -0.8500 -0.3371 -0.8913
  170MOL   C14741045   4.484   7.009   2.174 -0.6359 -0.2490 -0.5355
  170MOL   O14841046   4.625   7.042   2.161 -0.0189 -0.5473  0.0524
  170MOL   C14941047   4.722   6.957   2.184 -0.1996 -0.7980  0.3554
  170MOL   C15041048   4.864   7.017   2.167  0.3738  0.0359 -0.0678
  170MOL   O15141049   4.699   6.838   2.223 -0.5125 -0.2138  0.0809
  170MOL   H15241050   4.449   7.050   1.974  0.5613  0.7621  1.1239
  170MOL   H15341051   4.314   6.969   2.048 -0.7223  0.0197  0.3344
  170MOL   H15441052   4.468   6.938   2.255  1.8685 -1.0622 -0.7065
  170MOL   H15541053   4.860   7.066   2.070 -0.5836 -0.6190 -0.3649
  170MOL   H15641054   4.935   6.935   2.159 -0.9802 -1.4035  2.2359
  170MOL   H15741055   4.891   7.086   2.246  0.3852 -3.5836  3.2308
  170MOL   C15841056   4.413   7.137   2.222  0.3439 -0.3609 -0.1612
  170MOL   C15941057   4.462   7.197   2.354  0.0640 -0.8190 -0.1878
  170MOL   O16041058   4.413   7.335   2.348 -0.3665  0.5540  0.2515
  170MOL   C16141059   4.494   7.437   2.386 -0.1565 -0.7166 -0.9968
  170MOL   C16241060   4.415   7.568   2.384 -0.2580 -0.2245  0.0658
  170MOL   O16341061   4.609   7.429   2.423  0.5640  0.0278  0.4355
  170MOL   H16441062   4.440   7.202   2.139 -0.6875 -0.1811 -0.3600
  170MOL   H16541063   4.305   7.121   2.225  0.1214  0.0494 -3.5532
  170MOL   H16641064   4.571   7.184   2.352  0.2189  0.4208 -0.6271
  170MOL   H16741065   4.426   7.609   2.484  0.6378  3.4056 -1.4530
  170MOL   H16841066   4.311   7.545   2.363 -0.5665  0.4961  0.8159
  170MOL   H16941067   4.452   7.629   2.302  0.4632  0.2245  0.7188
  170MOL   C17041068   4.415   7.131   2.485  0.0143  0.3524  0.2082
  170MOL   C17141069   4.534   7.073   2.562  0.0949 -0.4604 -0.2041
  170MOL   O17241070   4.622   7.173   2.616 -0.3694 -0.0054 -0.1991
  170MOL   C17341071   4.754   7.164   2.600 -0.3699  0.2126 -0.4750
  170MOL   C17441072   4.827   7.275   2.663  0.5604 -0.0573  0.2102
  170MOL   O17541073   4.812   7.071   2.541  0.5209 -0.3614 -0.3865
  170MOL   H17641074   4.356   7.195   2.551 -1.9677  1.0638 -2.1922
  170MOL   H17741075   4.343   7.054   2.458 -1.4037  1.0786  1.8532
  170MOL   H17841076   4.592   7.015   2.490 -0.6504  1.4530 -2.3991
  170MOL   H17941077   4.903   7.232   2.729 -1.8092 -1.1073  2.3784
  170MOL   H18041078   4.758   7.341   2.715  0.5859 -0.2882  0.5399
  170MOL   H18141079   4.877   7.321   2.578 -1.6310 -0.1453 -1.1725
  170MOL   C18241080   4.507   6.986   2.682 -0.6290  0.0236  0.3158
  170MOL   C18341081   4.441   6.858   2.639 -0.3946  0.5992  0.0495
  170MOL   O18441082   4.536   6.775   2.569  0.3558 -0.4708  0.4885
  170MOL   C18541083   4.503   6.698   2.464 -0.2191  0.4972  0.5091
  170MOL   C18641084   4.614   6.597   2.449  0.6641  0.4634  0.0138
  170MOL   O18741085   4.401   6.702   2.390 -0.3183 -0.1989 -0.1345
  170MOL   H18841086   4.595   6.969   2.744 -0.4957  1.3861  0.5161
  170MOL   H18941087   4.437   7.038   2.747 -0.5734 -2.1824  2.2276
  170MOL   H19041088   4.366   6.895   2.569 -0.9297 -0.7487 -0.1056
  170MOL   H19141089   4.590   6.504   2.500  1.8919 -0.0525 -0.3438
  170MOL   H19241090   4.712   6.621   2.490  2.1313 -0.7460 -2.6716
  170MOL   H19341091   4.646   6.565   2.350  1.3904 -1.7726  0.9476
  170MOL   C19441092   4.369   6.777   2.754 -0.6367  0.4726  0.4034
  170MOL   C19541093   4.236   6.836   2.804 -0.9020 -0.2399  0.7951
  170MOL   O19641094   4.131   6.772   2.732 -0.2734 -0.1149  0.2078
  170MOL   C19741095   4.068   6.826   2.622  0.0572  0.4696 -0.7737
  170MOL   C19841096   3.950   6.750   2.561 -0.5793  0.3095 -0.2245
  170MOL   O19941097   4.098   6.933   2.571 -0.8069 -0.5087  0.0043
  170MOL   H20041098   4.350   6.675   2.721 -0.7755  0.6197  0.0179
  170MOL   H20141099   4.444   6.768   2.832  0.1933  0.0290 -0.4353
  170MOL   H20241100   4.224   6.943   2.788 -0.4061 -0.6003 -2.4196
  170MOL   H20341101   3.990   6.685   2.483 -1.9455 -1.2635  0.3479
  170MOL   H20441102   3.875   6.820   2.524 -3.3958 -3.0538 -1.1168
  170MOL   H20541103   3.915   6.672   2.628 -0.5089  0.8391  0.4311
  170MOL   C20641104   4.227   6.816   2.952  0.8747  0.2379 -0.6854
  170MOL   C20741105   4.096   6.846   3.017  0.7043  0.2240 -0.0611
  170MOL   O20841106   4.117   6.829   3.162 -0.0570 -0.6175  0.1086
  170MOL   C20941107   4.013   6.779   3.237 -0.2841  0.1017 -0.0567
  170MOL   C21041108   4.043   6.779   3.385 -0.8198  0.7287 -0.4890
  170MOL   O21141109   3.901   6.751   3.192  0.4657  0.1963 -0.0197
  170MOL   H21241110   4.254   6.713   2.977 -0.4977  0.7048  3.0998
  170MOL   H21341111   4.298   6.883   3.000  0.5512 -0.7886  1.2578
  170MOL   H21441112   4.027   6.766   2.992 -1.1591  0.9998  2.4056
  170MOL   H21541113   4.050   6.680   3.429 -1.6481  0.7568 -0.2847
  170MOL   H21641114   3.965   6.845   3.424  0.0964  1.5544 -0.0199
  170MOL   H21741115   4.138   6.826   3.411  0.7558 -1.8098 -1.4878
  170MOL   C21841116   4.026   6.979   2.982 -0.0395  0.1072 -0.2751
  170MOL   C21941117   4.112   7.108   3.003  0.2151  0.0819 -1.1376
  170MOL   O22041118   4.073   7.214   2.918  0.5310 -0.0269  0.0594
  170MOL   C22141119   4.149   7.255   2.816  0.0944 -0.6246 -0.1677
  170MOL   C22241120   4.074   7.342   2.724  0.8451 -0.0361  0.4487
  170MOL   O22341121   4.264   7.220   2.788 -0.0855 -0.0722  0.2576
  170MOL   H22441122   3.995   6.984   2.878 -0.0004 -1.8699 -0.4036
  170MOL   H22541123   3.932   6.987   3.037  0.0491 -0.9903  0.0428
  170MOL   H22641124   4.216   7.084   2.980  0.0241 -0.7456 -1.1702
  170MOL   H22741125   3.993   7.289   2.675  1.0637  1.4799 -1.5958
  170MOL   H22841126   4.149   7.348   2.645  0.8567 -0.5785  0.4122
  170MOL   H22941127   4.047   7.439   2.764 -0.8177  0.0976 -0.9668
  170MOL   C23041128   4.102   7.161   3.146  0.5049 -0.3895  0.7290
  170MOL   C23141129   3.980   7.239   3.191 -0.4042 -0.7661  0.4122
  170MOL   O23241130   3.863   7.161   3.221 -0.1465  0.2407  0.3397
  170MOL   C23341131   3.841   7.118   3.343 -0.9445 -0.8896  0.3480
  170MOL   C23441132   3.703   7.063   3.358  0.3897 -0.4914 -0.7956
  170MOL   O23541133   3.931   7.117   3.430 -0.1358 -0.3210 -0.2819
  170MOL   H23641134   4.131   7.086   3.219 -1.2758 -0.8421  0.9976
  170MOL   H23741135   4.182   7.234   3.160  0.9628 -1.1174  2.0335
  170MOL   H23841136   3.956   7.308   3.110 -0.8921 -0.5155  0.7689
  170MOL   H23941137   3.682   6.976   3.296 -1.6119 -0.9364  0.4597
  170MOL   H24041138   3.625   7.134   3.333  1.0008  0.4071 -0.1743
  170MOL   H24141139   3.690   7.035   3.463  0.5303 -2.1616 -1.2072
  170MOL   H24241140   4.004   7.294   3.282 -0.5085  0.6928 -0.4188
  171MOL     C141141   3.363   4.999   4.889 -0.0945  0.4238 -0.3949
  171MOL     C241142   3.296   4.901   4.985  0.3179 -0.2078  0.2873
  171MOL     O341143   3.343   4.934   5.111 -0.1134  0.2107 -0.7179
  171MOL     C441144   3.411   4.840   5.189  0.5619  0.3750 -0.5422
  171MOL     C541145   3.461   4.891   5.318 -0.5926 -0.3706  0.4412
  171MOL     O641146   3.441   4.727   5.146 -0.0217  0.1921  0.2488
  171MOL     H741147   3.317   4.978   4.793 -0.7387 -0.5955  0.1200
  171MOL     H841148   3.468   4.987   4.866  0.1923  1.1945  0.4848
  171MOL     H941149   3.313   4.798   4.954 -1.7587 -1.2888  2.5667
  171MOL    H1041150   3.381   4.941   5.374  0.6450  0.5864  1.4078
  171MOL    H1141151   3.549   4.956   5.314 -0.7403 -0.2405 -0.6785
  171MOL    H1241152   3.472   4.803   5.382 -1.5149 -0.7981  0.0259
  171MOL    H1341153   3.346   5.103   4.918  1.3586 -0.0634  2.4286
  171MOL    C1441154   3.141   4.903   4.995  0.0179  0.4415  0.1695
  171MOL    C1541155   3.075   5.024   5.069 -0.0937 -0.3015 -0.4955
  171MOL    O1641156   3.100   5.146   5.009 -0.2074  0.2466  0.8110
  171MOL    C1741157   3.096   5.258   5.080 -0.3783 -0.6607  0.3585
  171MOL    C1841158   3.128   5.383   4.995 -0.3509  0.4896  0.1762
  171MOL    O1941159   3.086   5.272   5.204  0.8204 -0.1277  0.0617
  171MOL    H2041160   3.102   4.882   4.895 -2.0744 -1.1636  1.2916
  171MOL    H2141161   3.113   4.816   5.053 -1.9097  0.5290 -0.5859
  171MOL    H2241162   3.121   5.020   5.168 -0.3117 -1.7942 -0.4431
  171MOL    H2341163   3.168   5.457   5.064  0.6134 -2.5615  3.0689
  171MOL    H2441164   3.044   5.439   4.955  0.2722  1.0729 -0.3234
  171MOL    H2541165   3.204   5.355   4.922  0.2450  1.4654  0.4107
  171MOL    C2641166   2.926   5.000   5.075  0.3991  0.1948 -0.1548
  171MOL    C2741167   2.832   5.090   5.157  0.6701 -0.2607  0.5925
  171MOL    O2841168   2.698   5.035   5.128 -0.7103 -0.3558  0.0788
  171MOL    C2941169   2.625   5.085   5.030  0.1374 -0.1824  0.2889
  171MOL    C3041170   2.501   5.006   5.004 -0.0645 -0.7203 -0.4266
  171MOL    O3141171   2.653   5.183   4.959  0.4251 -0.4740  0.5744
  171MOL    H3241172   2.895   4.994   4.971  0.8122 -1.2745 -0.2052
  171MOL    H3341173   2.926   4.898   5.115 -1.4849  0.7692  1.4294
  171MOL    H3441174   2.844   5.193   5.123 -0.1788  0.2100  1.7283
  171MOL    H3541175   2.496   5.008   4.895 -0.4849  2.4282 -0.4079
  171MOL    H3641176   2.415   5.064   5.037  0.6548 -0.3489  0.8240
  171MOL    H3741177   2.502   4.904   5.042 -2.0204 -1.8609 -3.2070
  171MOL    C3841178   2.856   5.062   5.311  0.3262  0.1534 -0.4779
  171MOL    C3941179   2.758   5.141   5.401  0.9822 -0.7514 -0.1849
  171MOL    O4041180   2.765   5.074   5.526 -0.1476  0.3212  0.0987
  171MOL    C4141181   2.660   5.031   5.599  0.0421 -0.2998  0.0464
  171MOL    C4241182   2.693   4.926   5.697 -0.2420 -0.0885 -0.5167
  171MOL    O4341183   2.543   5.050   5.569 -0.1395 -0.0777 -0.2458
  171MOL    H4441184   2.837   4.956   5.331 -3.6062  0.7517 -0.6372
  171MOL    H4541185   2.959   5.086   5.337  0.1470  0.0500  0.3573
  171MOL    H4641186   2.663   5.145   5.347  0.5873 -1.8878  0.4166
  171MOL    H4741187   2.629   4.931   5.785  1.2475 -2.7695  0.7720
  171MOL    H4841188   2.795   4.947   5.729 -0.9181  1.1941  0.8719
  171MOL    H4941189   2.705   4.825   5.659 -1.2779 -0.3277 -0.2378
  171MOL    C5041190   2.812   5.276   5.429 -0.3970 -0.1436  0.0315
  171MOL    C5141191   2.731   5.360   5.526  0.0719 -0.5338 -0.4622
  171MOL    O5241192   2.814   5.475   5.576 -0.2126  0.1122 -0.5096
  171MOL    C5341193   2.898   5.469   5.678  0.1292  0.8079 -0.2355
  171MOL    C5441194   2.968   5.600   5.714  0.1000  0.5045  1.0876
  171MOL    O5541195   2.922   5.365   5.746 -0.2350 -0.4565 -0.1269
  171MOL    H5641196   2.913   5.260   5.466 -0.5367 -0.9910  0.0589
  171MOL    H5741197   2.837   5.331   5.339  0.5457  1.3272  1.1643
  171MOL    H5841198   2.696   5.290   5.603  3.5513 -0.5646  1.1590
  171MOL    H5941199   2.943   5.644   5.811 -0.5587  1.2627  0.5881
  171MOL    H6041200   2.950   5.672   5.634  0.5422  0.2155  0.7278
  171MOL    H6141201   3.076   5.584   5.723  0.1082 -0.8006 -0.9887
  171MOL    C6241202   2.597   5.405   5.467 -0.4472 -0.6782 -0.6055
  171MOL    C6341203   2.498   5.476   5.558 -0.8514 -0.4288 -0.1431
  171MOL    O6441204   2.383   5.506   5.480  0.8039 -0.4371  0.1162
  171MOL    C6541205   2.333   5.627   5.459 -0.0823 -0.8264 -0.1051
  171MOL    C6641206   2.219   5.610   5.360  0.1429 -0.7222  0.9410
  171MOL    O6741207   2.371   5.735   5.504 -0.0642  0.1867  0.2832
  171MOL    H6841208   2.624   5.465   5.380  0.3208  1.6302  1.1688
  171MOL    H6941209   2.543   5.319   5.429 -1.3755 -0.2179 -0.3508
  171MOL    H7041210   2.555   5.565   5.584  1.0563 -2.1888  1.8243
  171MOL    H7141211   2.162   5.521   5.389 -0.6413 -0.3346  0.6176
  171MOL    H7241212   2.252   5.573   5.263  0.9089  1.0400  0.5195
  171MOL    H7341213   2.159   5.700   5.347  0.6516 -0.9843 -3.8767
  171MOL    C7441214   2.448   5.404   5.688  0.4137 -0.2750  0.7703
  171MOL    C7541215   2.357   5.480   5.784  0.7356  0.1192  1.0915
  171MOL    O7641216   2.223   5.488   5.729 -0.0711 -0.5166 -0.1524
  171MOL    C7741217   2.151   5.602   5.744  0.4386  0.0729  1.3414
  171MOL    C7841218   2.011   5.595   5.675  0.2717 -0.1892 -0.2615
  171MOL    O7941219   2.192   5.700   5.807  0.3794  0.0872  0.3650
  171MOL    H8041220   2.402   5.308   5.663 -1.2632  0.5325  0.6922
  171MOL    H8141221   2.539   5.372   5.740 -0.5241 -2.6156  1.0570
  171MOL    H8241222   2.403   5.577   5.801  1.1856  0.0105  0.5154
  171MOL    H8341223   2.026   5.579   5.568 -0.7120  1.9087 -0.7440
  171MOL    H8441224   1.949   5.684   5.673 -1.1178 -1.1347  0.1927
  171MOL    H8541225   1.943   5.518   5.710 -0.5245  0.0749 -1.1869
  171MOL    C8641226   2.340   5.408   5.920 -0.2021 -0.1094 -0.3767
  171MOL    C8741227   2.458   5.409   6.017 -0.2524 -1.5960 -0.3553
  171MOL    O8841228   2.492   5.548   6.065 -0.2846 -0.1100 -0.1831
  171MOL    C8941229   2.605   5.607   6.018 -0.8183 -0.1327  0.4533
  171MOL    C9041230   2.626   5.735   6.094  0.1923  0.0740 -0.4578
  171MOL    O9141231   2.683   5.562   5.936  0.3020  0.0011  0.0623
  171MOL    H9241232   2.271   5.458   5.988  0.1880  0.2982 -0.2785
  171MOL    H9341233   2.309   5.305   5.907 -0.4380  0.0734 -1.3413
  171MOL    H9441234   2.548   5.376   5.966 -0.1182 -1.4985 -0.1844
  171MOL    H9541235   2.561   5.810   6.048  0.7482  0.0989 -1.2099
  171MOL    H9641236   2.730   5.763   6.081 -0.2915  0.6350 -3.7633
  171MOL    H9741237   2.594   5.729   6.198 -2.3977  1.0098 -1.1546
  171MOL    C9841238   2.459   5.312   6.139  1.0834  0.3265 -0.5726
  171MOL    C9941239   2.587   5.312   6.226  0.4253  0.1695 -0.1802
  171MOL   O10041240   2.544   5.393   6.335 -0.1201 -0.2028  0.1014
  171MOL   C10141241   2.627   5.483   6.387  0.1416  0.2266 -0.1781
  171MOL   C10241242   2.569   5.555   6.511  0.0517 -0.4598 -0.0008
  171MOL   O10341243   2.741   5.509   6.349 -0.5573 -0.3747 -0.3314
  171MOL   H10441244   2.369   5.334   6.196  1.9260  1.8258  0.1964
  171MOL   H10541245   2.449   5.215   6.089  1.0397 -1.2730  2.4455
  171MOL   H10641246   2.673   5.331   6.161  1.6635  0.3285  1.4658
  171MOL   H10741247   2.652   5.534   6.579  0.9452  1.8400 -0.3364
  171MOL   H10841248   2.472   5.515   6.539 -0.7687  1.1581 -0.5039
  171MOL   H10941249   2.563   5.661   6.489 -0.3472 -0.1617  1.4876
  171MOL   C11041250   2.627   5.181   6.300  0.1590  0.5639  0.6037
  171MOL   C11141251   2.684   5.078   6.206 -0.2951 -0.5377 -0.2819
  171MOL   O11241252   2.808   5.134   6.170 -0.7345  0.1337 -0.2283
  171MOL   C11341253   2.853   5.138   6.047  0.6081  0.2862  0.4711
  171MOL   C11441254   2.985   5.209   6.047  0.3820 -0.0304  0.0957
  171MOL   O11541255   2.800   5.092   5.943  0.7185 -0.1114 -0.0774
  171MOL   H11641256   2.703   5.212   6.371  0.8985 -0.5579  0.3210
  171MOL   H11741257   2.551   5.141   6.368 -1.1208 -1.1246 -1.7255
  171MOL   H11841258   2.622   5.060   6.118 -2.5004 -0.1634  1.1424
  171MOL   H11941259   2.973   5.299   5.987  3.4884  0.6427  0.4193
  171MOL   H12041260   3.064   5.155   5.995  0.8112 -0.1167  0.8334
  171MOL   H12141261   3.011   5.243   6.147 -1.3481  1.0764  0.1823
  171MOL   C12241262   2.705   4.943   6.269 -0.1703 -0.0346 -1.0096
  171MOL   C12341263   2.715   4.824   6.164  0.3601 -0.0350  0.7550
  171MOL   O12441264   2.845   4.774   6.146 -0.4891 -1.0347 -0.6235
  171MOL   C12541265   2.889   4.759   6.017 -0.7368  0.4389  0.2042
  171MOL   C12641266   3.038   4.756   6.021 -0.0838 -0.3812  0.1224
  171MOL   O12741267   2.830   4.768   5.909  0.2242  0.2299  0.3818
  171MOL   H12841268   2.782   4.938   6.346 -2.9207  1.4444  1.9715
  171MOL   H12941269   2.620   4.907   6.326  1.1670  0.1043  1.1186
  171MOL   H13041270   2.683   4.876   6.075  0.1669 -2.5972 -0.7301
  171MOL   H13141271   3.070   4.857   6.046 -0.7263  0.0225 -0.6986
  171MOL   H13241272   3.080   4.739   5.922  1.5776  0.2905  0.6827
  171MOL   H13341273   3.074   4.671   6.079  2.1302 -1.6165 -2.9373
  171MOL   C13441274   2.622   4.705   6.199  0.0644 -0.2067  0.4344
  171MOL   C13541275   2.470   4.741   6.182 -0.3250  0.0707 -0.1697
  171MOL   O13641276   2.434   4.732   6.038 -0.2810  0.5643 -0.0725
  171MOL   C13741277   2.373   4.834   5.979 -0.7224  1.1239  0.2853
  171MOL   C13841278   2.331   4.804   5.837  0.1420  0.3873  0.2193
  171MOL   O13941279   2.368   4.951   6.024 -0.2335  0.1267  0.2750
  171MOL   H14041280   2.652   4.621   6.137 -1.4415 -1.2099  1.0418
  171MOL   H14141281   2.635   4.678   6.304  3.5246 -1.2549 -0.2312
  171MOL   H14241282   2.453   4.840   6.224  1.5780  0.0283  0.7353
  171MOL   H14341283   2.357   4.887   5.772 -2.9553  1.4562  0.2752
  171MOL   H14441284   2.228   4.776   5.814  0.5652 -0.5327 -0.5559
  171MOL   H14541285   2.392   4.723   5.799  0.3168 -0.9171  3.1104
  171MOL   C14641286   2.371   4.637   6.247  0.7167 -0.2742  0.5263
  171MOL   C14741287   2.393   4.600   6.396  0.4262 -0.6956 -0.0463
  171MOL   O14841288   2.338   4.706   6.476 -0.0609 -0.1168 -0.7356
  171MOL   C14941289   2.418   4.791   6.544  1.2113 -0.3059 -0.3472
  171MOL   C15041290   2.338   4.895   6.611  0.4840  0.1059  0.4404
  171MOL   O15141291   2.540   4.807   6.527  0.2107  0.4290  0.1420
  171MOL   H15241292   2.267   4.667   6.236  0.7686 -0.1749  0.2822
  171MOL   H15341293   2.381   4.544   6.190  3.4383  0.1587  0.2115
  171MOL   H15441294   2.500   4.591   6.415  0.4047 -0.0902  0.3765
  171MOL   H15541295   2.292   4.964   6.541 -0.3793  0.5892  1.4862
  171MOL   H15641296   2.390   4.958   6.683  0.9482 -0.4777  0.6306
  171MOL   H15741297   2.257   4.856   6.672 -0.8489  0.6371 -0.9475
  171MOL   C15841298   2.320   4.472   6.445 -0.0031 -0.0469  0.4240
  171MOL   C15941299   2.373   4.335   6.394  0.2396  0.0836  0.6891
  171MOL   O16041300   2.507   4.323   6.440  0.1885 -0.0424 -0.7534
  171MOL   C16141301   2.614   4.338   6.362 -0.8298 -0.0873 -0.1828
  171MOL   C16241302   2.742   4.294   6.435  0.5264 -0.1962 -0.6265
  171MOL   O16341303   2.611   4.371   6.239  0.5184  0.1375 -0.3028
  171MOL   H16441304   2.294   4.472   6.551 -0.0658  1.4881  0.4198
  171MOL   H16541305   2.220   4.488   6.403  0.4357  2.7343  0.3762
  171MOL   H16641306   2.372   4.335   6.285 -1.0109 -1.3160  0.6832
  171MOL   H16741307   2.715   4.245   6.529 -0.7885  0.8139 -0.4614
  171MOL   H16841308   2.804   4.380   6.458  1.8000 -0.8856 -1.4048
  171MOL   H16941309   2.810   4.236   6.372  1.0169  1.0728 -1.2691
  171MOL   C17041310   2.289   4.215   6.433 -0.7179 -0.0668 -0.4607
  171MOL   C17141311   2.320   4.086   6.364  0.7144 -0.2039  0.3377
  171MOL   O17241312   2.345   3.987   6.464 -0.1603 -0.3123 -0.4635
  171MOL   C17341313   2.470   3.954   6.507 -0.0056  0.0828 -0.7062
  171MOL   C17441314   2.466   3.820   6.586 -0.0905 -0.3671 -0.1897
  171MOL   O17541315   2.569   4.023   6.506  0.0122  0.4756  0.1770
  171MOL   H17641316   2.309   4.214   6.540  0.2778  1.9381 -0.6023
  171MOL   H17741317   2.183   4.240   6.433 -0.6262  0.3469  0.7095
  171MOL   H17841318   2.411   4.096   6.304 -0.4278  0.0763 -1.3648
  171MOL   H17941319   2.553   3.756   6.571  0.0648 -0.2731  0.3152
  171MOL   H18041320   2.377   3.766   6.554 -0.6307  0.0497  0.6029
  171MOL   H18141321   2.449   3.841   6.691  0.1436  1.2402 -0.4636
  171MOL   C18241322   2.211   4.041   6.270 -0.2133 -1.2775  0.6949
  171MOL   C18341323   2.252   3.948   6.154 -0.1270 -0.2039 -0.1494
  171MOL   O18441324   2.250   3.812   6.202 -0.8699 -0.5554 -0.5351
  171MOL   C18541325   2.363   3.747   6.216  0.2526 -0.3594 -0.3046
  171MOL   C18641326   2.342   3.610   6.282 -0.8236  0.0152  0.4112
  171MOL   O18741327   2.466   3.780   6.166  0.3801  0.2835  0.2310
  171MOL   H18841328   2.133   3.988   6.324 -2.1208  1.8285  1.0863
  171MOL   H18941329   2.168   4.126   6.217  1.1943 -0.1197  1.3598
  171MOL   H19041330   2.349   3.981   6.118 -0.3118 -2.9334 -3.3630
  171MOL   H19141331   2.429   3.564   6.328 -0.4641 -0.2035 -0.4644
  171MOL   H19241332   2.311   3.547   6.198  0.6150  0.1730 -0.2610
  171MOL   H19341333   2.274   3.630   6.364  0.8366  0.7732  1.6201
  171MOL   C19441334   2.160   3.956   6.024 -0.0222 -0.7564  0.0387
  171MOL   C19541335   2.200   3.873   5.897  0.3538 -0.6941 -0.7107
  171MOL   O19641336   2.104   3.896   5.796  0.2750 -0.4047  0.3232
  171MOL   C19741337   2.027   3.799   5.747 -0.7195 -0.6440 -0.3714
  171MOL   C19841338   1.911   3.849   5.668 -0.1117  0.2843  0.8603
  171MOL   O19941339   2.044   3.681   5.762 -0.4857  0.0178  1.2057
  171MOL   H20041340   2.063   3.922   6.060 -0.2738  0.5864  0.6290
  171MOL   H20141341   2.145   4.059   5.992  2.4369 -1.1954 -2.8601
  171MOL   H20241342   2.204   3.770   5.932  0.1763 -0.6496 -0.5578
  171MOL   H20341343   1.931   3.946   5.624  2.0902 -0.5355 -0.0090
  171MOL   H20441344   1.827   3.857   5.737 -2.9106 -1.0046 -2.2375
  171MOL   H20541345   1.890   3.770   5.595  2.1915 -0.1952  0.6952
  171MOL   C20641346   2.339   3.894   5.835  0.1248  0.3470  0.2518
  171MOL   C20741347   2.379   4.044   5.809  0.0503 -0.7050 -0.5253
  171MOL   O20841348   2.507   4.055   5.874 -0.3572 -0.2450  0.1956
  171MOL   C20941349   2.522   4.135   5.983  0.1888 -1.4500  0.2845
  171MOL   C21041350   2.668   4.142   6.025 -0.4791  0.1409 -0.0909
  171MOL   O21141351   2.436   4.202   6.040  0.5480 -0.0435  0.0543
  171MOL   H21241352   2.398   3.844   5.913 -0.6899  0.6734  1.0870
  171MOL   H21341353   2.350   3.833   5.745  1.8664  1.7135 -0.4840
  171MOL   H21441354   2.296   4.108   5.839 -0.5341 -0.9751 -1.5321
  171MOL   H21541355   2.710   4.242   6.024 -2.1276  0.8562  0.1047
  171MOL   H21641356   2.733   4.077   5.967 -0.0312 -0.1060  0.6761
  171MOL   H21741357   2.672   4.109   6.129 -0.5226  1.0783  0.2136
  171MOL   C21841358   2.402   4.074   5.664 -0.0520  0.6286 -0.1511
  171MOL   C21941359   2.395   4.220   5.620  0.2513 -0.5547  0.1025
  171MOL   O22041360   2.433   4.236   5.486 -0.7239  0.8165  0.2825
  171MOL   C22141361   2.557   4.257   5.455  0.4510  0.3359  0.3075
  171MOL   C22241362   2.591   4.218   5.316 -0.5103  0.0245  0.3737
  171MOL   O22341363   2.647   4.292   5.528  0.8825 -0.0376 -0.1435
  171MOL   H22441364   2.494   4.031   5.624  1.6597  2.2680  1.8884
  171MOL   H22541365   2.313   4.043   5.609 -0.7614 -0.1197  1.3865
  171MOL   H22641366   2.460   4.267   5.694  0.3586 -0.7210  0.1159
  171MOL   H22741367   2.560   4.114   5.303  0.8475 -0.5424  1.4944
  171MOL   H22841368   2.699   4.221   5.301 -0.2610  3.7251  2.3232
  171MOL   H22941369   2.543   4.284   5.244 -2.4530 -1.1448  0.5684
  171MOL   C23041370   2.248   4.277   5.632 -0.8352  0.7595  0.4025
  171MOL   C23141371   2.243   4.433   5.614 -0.8135 -0.3072  0.9594
  171MOL   O23241372   2.113   4.492   5.608 -0.2449 -0.2066 -0.6356
  171MOL   C23341373   2.033   4.490   5.492  0.4692  0.7973  0.9279
  171MOL   C23441374   1.911   4.577   5.504 -0.5506  0.2358  0.0110
  171MOL   O23541375   2.062   4.429   5.389 -0.0410  0.5826  0.6417
  171MOL   H23641376   2.197   4.225   5.550  1.6385 -1.3353  0.1326
  171MOL   H23741377   2.198   4.255   5.726 -0.5678  1.2737  0.6649
  171MOL   H23841378   2.297   4.464   5.525 -0.6366  0.2322  1.2485
  171MOL   H23941379   1.874   4.628   5.415 -0.2622  1.6467  0.6728
  171MOL   H24041380   1.930   4.661   5.572 -1.5837 -0.6895  1.4754
  171MOL   H24141381   1.822   4.533   5.548  0.3327  0.2304  1.8554
  171MOL   H24241382   2.295   4.475   5.700  3.0382 -0.4523 -1.1747
  172MOL     C141383   3.190   0.033   5.723  0.1073  0.4974  0.5980
  172MOL     C241384   3.260   0.170   5.717 -0.2295 -0.3309 -0.4408
  172MOL     O341385   3.339   0.185   5.601  0.1205  0.1160  0.4993
  172MOL     C441386   3.464   0.248   5.608 -0.8611 -0.1686  0.1402
  172MOL     C541387   3.539   0.235   5.472 -0.0411 -0.6393 -0.2042
  172MOL     O641388   3.518   0.304   5.708  0.4192 -0.3691  0.3670
  172MOL     H741389   3.248   7.973   5.680  1.8894  1.9040  0.2676
  172MOL     H841390   3.100   0.030   5.661  0.2034 -0.3731  0.4991
  172MOL     H941391   3.324   0.186   5.804 -0.3571  2.6776 -0.8824
  172MOL    H1041392   3.518   0.324   5.413 -4.0928 -0.7125  0.9517
  172MOL    H1141393   3.496   0.146   5.426  0.3766 -1.0027  0.1120
  172MOL    H1241394   3.646   0.218   5.482 -0.2448 -1.4620  0.6267
  172MOL    H1341395   3.164   0.015   5.828  0.3103 -0.6266  0.4586
  172MOL    C1441396   3.149   0.280   5.711 -0.9513  0.1479 -0.0962
  172MOL    C1541397   3.193   0.432   5.712  0.3481 -0.6364  0.3216
  172MOL    O1641398   3.090   0.503   5.655  0.9277  0.2741 -0.4983
  172MOL    C1741399   3.097   0.542   5.527  0.4963 -0.1666  0.0992
  172MOL    C1841400   2.966   0.592   5.469 -0.1372  0.2593 -0.3538
  172MOL    O1941401   3.192   0.522   5.454 -0.5179  0.3763  0.0079
  172MOL    H2041402   3.088   0.269   5.622  1.0132  2.5435 -1.8130
  172MOL    H2141403   3.080   0.265   5.794 -1.3066  0.9896 -0.2292
  172MOL    H2241404   3.281   0.450   5.651  0.6931  0.0721  1.0223
  172MOL    H2341405   2.891   0.559   5.541 -0.2895 -0.3889 -0.8066
  172MOL    H2441406   2.933   0.576   5.366 -2.0199  0.2882  0.2243
  172MOL    H2541407   2.972   0.701   5.476  0.8894  0.2152 -0.5263
  172MOL    C2641408   3.216   0.482   5.861 -0.6329 -0.0533  0.5584
  172MOL    C2741409   3.285   0.622   5.872 -0.6191  0.3457  0.1418
  172MOL    O2841410   3.242   0.684   5.996 -0.1432  0.3322  0.1413
  172MOL    C2941411   3.190   0.803   6.001 -0.2517 -0.6226  0.0574
  172MOL    C3041412   3.129   0.836   6.137  0.1358  0.6463 -0.2600
  172MOL    O3141413   3.178   0.886   5.913 -0.0493  0.3515  1.0156
  172MOL    H3241414   3.121   0.486   5.915 -0.8429  0.9191  0.1396
  172MOL    H3341415   3.273   0.399   5.901 -2.0332 -0.6948  1.2582
  172MOL    H3441416   3.252   0.681   5.787 -2.5963 -1.4995 -0.4268
  172MOL    H3541417   3.040   0.776   6.155  0.0844  1.0371  0.8221
  172MOL    H3641418   3.098   0.940   6.132  0.6938  0.7222 -2.2057
  172MOL    H3741419   3.199   0.825   6.220  0.2101  1.3385 -0.2315
  172MOL    C3841420   3.441   0.611   5.861  0.5986 -0.6621  0.0179
  172MOL    C3941421   3.519   0.717   5.785  0.7761 -0.1779 -0.0845
  172MOL    O4041422   3.481   0.703   5.652 -0.3747  0.5510 -0.0784
  172MOL    C4141423   3.559   0.640   5.558 -0.2587  0.0587  0.1298
  172MOL    C4241424   3.513   0.664   5.418 -0.2476  0.7070 -0.2382
  172MOL    O4341425   3.649   0.560   5.585  0.5782 -0.5517 -0.1095
  172MOL    H4441426   3.466   0.605   5.967 -2.4566 -2.0814  0.7222
  172MOL    H4541427   3.470   0.520   5.808 -0.5757  0.1838 -2.1230
  172MOL    H4641428   3.622   0.687   5.806  0.0875 -1.6756  1.3248
  172MOL    H4741429   3.434   0.737   5.404 -1.9008 -0.8551  0.6535
  172MOL    H4841430   3.472   0.568   5.384  1.3552  0.8278 -2.6033
  172MOL    H4941431   3.601   0.692   5.361  0.1267  0.8043  0.3804
  172MOL    C5041432   3.506   0.856   5.840  0.1857 -0.2801 -0.8051
  172MOL    C5141433   3.606   0.953   5.785  0.2326  0.1896  0.0947
  172MOL    O5241434   3.567   1.084   5.803  0.3574  0.1203  0.4564
  172MOL    C5341435   3.550   1.163   5.702 -0.0648 -0.5039  0.9203
  172MOL    C5441436   3.527   1.310   5.734  0.3023  0.0840  0.1193
  172MOL    O5541437   3.563   1.131   5.581 -0.3623  0.4980 -0.3075
  172MOL    H5641438   3.404   0.887   5.815  0.0794  1.9172  1.9957
  172MOL    H5741439   3.504   0.854   5.949 -3.7244  0.9375 -0.7578
  172MOL    H5841440   3.613   0.930   5.678 -2.0370 -0.6972  0.1075
  172MOL    H5941441   3.502   1.372   5.648  0.5758 -2.0125 -1.4776
  172MOL    H6041442   3.604   1.365   5.789  0.3851 -0.5920  0.6851
  172MOL    H6141443   3.434   1.316   5.791  0.6079 -3.6418  1.1248
  172MOL    C6241444   3.742   0.928   5.844  0.7662 -0.1678  0.2035
  172MOL    C6341445   3.851   0.950   5.740 -0.2048  0.2239 -0.6653
  172MOL    O6441446   3.974   0.989   5.800 -0.2398 -0.0105 -0.5027
  172MOL    C6541447   4.054   1.073   5.750 -0.1172 -0.1797 -0.4419
  172MOL    C6641448   4.181   1.062   5.829 -0.3874 -0.0966 -0.2572
  172MOL    O6741449   4.042   1.150   5.665 -0.4587 -0.4681  0.3094
  172MOL    H6841450   3.762   0.987   5.933  2.8640  0.0974 -0.4196
  172MOL    H6941451   3.755   0.828   5.885 -0.0499  0.1151  1.1760
  172MOL    H7041452   3.824   1.032   5.673 -0.7442  0.9953  0.4760
  172MOL    H7141453   4.176   1.136   5.910  0.6049  0.0414 -0.3143
  172MOL    H7241454   4.264   1.099   5.770 -1.7446 -0.8205 -2.6832
  172MOL    H7341455   4.208   0.959   5.849 -1.4262 -0.2741  0.2695
  172MOL    C7441456   3.865   0.820   5.647  0.3348 -0.3538 -0.3960
  172MOL    C7541457   3.953   0.852   5.514 -0.1994  0.0887 -0.4400
  172MOL    O7641458   3.979   0.722   5.457 -0.1480  0.1632  0.0547
  172MOL    C7741459   4.090   0.654   5.507 -1.2655  0.3818  0.2594
  172MOL    C7841460   4.109   0.506   5.463  0.1511 -1.3751 -0.3043
  172MOL    O7941461   4.170   0.712   5.589  0.4216  0.6105  0.0922
  172MOL    H8041462   3.920   0.744   5.703  0.8660  0.4505  0.1707
  172MOL    H8141463   3.763   0.791   5.622 -0.4910  2.2734 -0.1862
  172MOL    H8241464   4.037   0.914   5.544 -1.7713  2.0378  0.0059
  172MOL    H8341465   4.087   0.433   5.542  1.7828 -1.4308  0.1288
  172MOL    H8441466   4.214   0.496   5.436  0.3934  0.1467  0.0393
  172MOL    H8541467   4.053   0.484   5.372 -3.1458  1.8368  0.8190
  172MOL    C8641468   3.878   0.941   5.408 -0.3008 -0.0413  0.1555
  172MOL    C8741469   3.971   1.015   5.305 -0.0365  0.0653  0.1011
  172MOL    O8841470   4.037   0.925   5.214 -0.2618  0.0596  0.2580
  172MOL    C8941471   4.166   0.895   5.227 -0.1699  0.3255 -0.2830
  172MOL    C9041472   4.214   0.794   5.118  0.0559 -0.1887  0.1437
  172MOL    O9141473   4.246   0.933   5.315 -0.0623 -0.3424 -0.3528
  172MOL    H9241474   3.803   0.880   5.358 -2.0179  2.6051 -0.6371
  172MOL    H9341475   3.823   1.011   5.471  0.9080 -0.4962  1.7256
  172MOL    H9441476   4.041   1.081   5.356  0.4392  0.7308 -1.3914
  172MOL    H9541477   4.200   0.832   5.017 -1.5422 -3.0897 -0.7626
  172MOL    H9641478   4.154   0.704   5.130  0.7511 -0.7393 -0.4716
  172MOL    H9741479   4.321   0.774   5.122  0.1006 -0.5652 -2.2048
  172MOL    C9841480   3.879   1.101   5.215  1.0625  0.4756 -0.0024
  172MOL    C9941481   3.809   1.221   5.278 -0.1343  0.0874 -0.4597
  172MOL   O10041482   3.895   1.326   5.319  0.7295  0.4451 -0.8532
  172MOL   C10141483   3.896   1.358   5.453  0.6163 -0.2965 -0.1436
  172MOL   C10241484   4.003   1.464   5.500 -0.7688  0.1030  0.2700
  172MOL   O10341485   3.815   1.318   5.531  0.0326 -0.3747 -0.6647
  172MOL   H10441486   3.940   1.135   5.132  2.5789  1.0466  1.3269
  172MOL   H10541487   3.800   1.045   5.165  0.4431  0.2940  1.1493
  172MOL   H10641488   3.742   1.184   5.356  0.7406 -0.5562 -0.0021
  172MOL   H10741489   3.979   1.567   5.472  0.2332  1.4186  3.8984
  172MOL   H10841490   4.106   1.441   5.472 -1.3449 -2.3274  0.0416
  172MOL   H10941491   4.011   1.473   5.608  3.1716  0.1382  0.0495
  172MOL   C11041492   3.719   1.282   5.169  0.1733 -0.5775 -0.7092
  172MOL   C11141493   3.605   1.380   5.208 -0.7595 -0.9602 -0.4474
  172MOL   O11241494   3.524   1.412   5.095 -0.6891 -0.8057  0.1979
  172MOL   C11341495   3.554   1.518   5.020 -0.5383 -0.1207 -0.1677
  172MOL   C11441496   3.452   1.542   4.907 -0.4237 -0.3779  0.2408
  172MOL   O11541497   3.655   1.585   5.028  0.5426  0.3499  0.5950
  172MOL   H11641498   3.773   1.342   5.096  0.4822 -2.5751 -2.1603
  172MOL   H11741499   3.670   1.196   5.123 -0.2923 -0.1250 -1.0603
  172MOL   H11841500   3.646   1.472   5.249  0.2926 -0.0213 -3.4289
  172MOL   H11941501   3.404   1.635   4.935  0.7482  0.5201 -0.6793
  172MOL   H12041502   3.379   1.461   4.906  0.0349 -0.8178 -2.7411
  172MOL   H12141503   3.512   1.559   4.817  0.9507 -0.6645  1.0846
  172MOL   C12241504   3.515   1.319   5.322  0.6084 -0.0530 -0.9429
  172MOL   C12341505   3.386   1.400   5.369 -0.2086  0.9547 -0.6211
  172MOL   O12441506   3.418   1.538   5.391  0.2299  0.3898  0.1778
  172MOL   C12541507   3.381   1.592   5.518  0.3008 -0.1431 -0.1913
  172MOL   C12641508   3.414   1.736   5.536  0.8424  0.0141 -0.4004
  172MOL   O12741509   3.321   1.533   5.610  0.0988 -0.0543 -0.1233
  172MOL   H12841510   3.478   1.220   5.295 -4.7282  0.6597  2.9263
  172MOL   H12941511   3.579   1.314   5.410 -2.1070  1.3925  1.1810
  172MOL   H13041512   3.376   1.347   5.463 -0.2171 -2.4671 -2.4641
  172MOL   H13141513   3.428   1.788   5.440 -1.3302  0.3341 -0.5559
  172MOL   H13241514   3.498   1.756   5.602  1.9434 -0.7499 -1.5294
  172MOL   H13341515   3.330   1.785   5.584  0.6812 -1.2132  0.5958
  172MOL   C13441516   3.262   1.385   5.274 -0.5662  0.2457  0.1654
  172MOL   C13541517   3.137   1.432   5.346  0.4705  0.2211  0.2468
  172MOL   O13641518   3.037   1.462   5.244 -0.1149  0.0289 -0.8236
  172MOL   C13741519   3.039   1.575   5.174  0.1586 -0.3818 -0.2880
  172MOL   C13841520   2.931   1.567   5.070 -0.0447  0.2914 -0.1870
  172MOL   O13941521   3.108   1.678   5.198  0.7863  0.7083  0.2918
  172MOL   H14041522   3.269   1.429   5.175 -2.0954 -0.0968 -0.1166
  172MOL   H14141523   3.249   1.277   5.258 -0.5267 -0.0670  2.1525
  172MOL   H14241524   3.156   1.526   5.398 -1.1440 -0.1253  1.4857
  172MOL   H14341525   2.927   1.467   5.027 -1.0570  0.3684 -0.2869
  172MOL   H14441526   2.948   1.633   4.985  1.0555  0.6820  0.3258
  172MOL   H14541527   2.832   1.589   5.110 -0.3544 -0.8250 -0.3264
  172MOL   C14641528   3.088   1.330   5.447  0.5968  0.1724 -1.2687
  172MOL   C14741529   2.980   1.389   5.539 -0.1699  0.0525  0.2327
  172MOL   O14841530   2.857   1.413   5.481  0.0003  0.0976 -0.3295
  172MOL   C14941531   2.791   1.529   5.497  0.2192  0.1376 -0.1631
  172MOL   C15041532   2.675   1.535   5.400 -0.8052 -0.1819  0.4963
  172MOL   O15141533   2.823   1.624   5.569 -0.0048  0.0212  0.0842
  172MOL   H15241534   3.047   1.245   5.394  0.1775  0.1376 -0.8956
  172MOL   H15341535   3.168   1.302   5.516 -0.1673 -0.5631 -0.6637
  172MOL   H15441536   3.019   1.487   5.569 -2.7683  0.4828  2.3417
  172MOL   H15541537   2.592   1.466   5.411 -0.7545 -0.4474 -0.6459
  172MOL   H15641538   2.709   1.536   5.296  0.2084  1.1628  0.8184
  172MOL   H15741539   2.626   1.632   5.403  0.0951  0.3556 -1.0789
  172MOL   C15841540   2.951   1.305   5.671  1.0636 -0.3453  0.0160
  172MOL   C15941541   2.922   1.150   5.652  0.0332 -1.2420 -0.3123
  172MOL   O16041542   3.061   1.093   5.654 -0.0214  0.1848  0.4999
  172MOL   C16141543   3.094   0.990   5.570  0.8320 -0.3120  0.1429
  172MOL   C16241544   3.239   0.948   5.565  0.3863  0.3880  0.4257
  172MOL   O16341545   3.015   0.943   5.494 -1.1627 -0.2108  0.6064
  172MOL   H16441546   3.037   1.322   5.736  0.4041  0.9686  0.5503
  172MOL   H16541547   2.862   1.355   5.709  0.1216  0.7625 -3.4553
  172MOL   H16641548   2.861   1.136   5.562 -0.5884  0.7679 -0.2198
  172MOL   H16741549   3.271   0.853   5.609 -0.1386  0.0029 -0.0110
  172MOL   H16841550   3.299   1.025   5.614 -2.3638  3.2966 -0.6369
  172MOL   H16941551   3.274   0.937   5.463 -3.0841 -1.5176 -0.6603
  172MOL   C17041552   2.856   1.080   5.767  0.3803 -0.0984 -0.5964
  172MOL   C17141553   2.712   1.125   5.806 -0.0874  0.5120 -0.2664
  172MOL   O17241554   2.619   1.115   5.703 -0.1185 -0.0958 -0.6651
  172MOL   C17341555   2.583   1.228   5.635  0.4581 -0.3187 -0.1772
  172MOL   C17441556   2.523   1.200   5.505 -0.0765 -0.0933  0.6424
  172MOL   O17541557   2.593   1.345   5.675 -0.1592  0.0372 -0.3811
  172MOL   H17641558   2.871   0.972   5.774  2.2190  0.1224 -0.7446
  172MOL   H17741559   2.913   1.104   5.857 -2.0340  0.3600  0.8481
  172MOL   H17841560   2.719   1.232   5.824  0.6482  0.1585  1.6645
  172MOL   H17941561   2.516   1.286   5.439  1.4659  0.7043  1.4907
  172MOL   H18041562   2.418   1.173   5.517  0.9228 -4.2047  1.0094
  172MOL   H18141563   2.572   1.126   5.442 -2.5370 -1.3500  0.1577
  172MOL   C18241564   2.655   1.087   5.947  0.3503  0.4161  0.4859
  172MOL   C18341565   2.610   0.936   5.953 -0.1527  0.3246  0.4241
  172MOL   O18441566   2.727   0.857   5.948 -0.2758  0.1585 -0.2780
  172MOL   C18541567   2.724   0.730   5.885 -0.3582 -0.4317 -0.2014
  172MOL   C18641568   2.861   0.667   5.872 -0.5511 -0.1484  0.1334
  172MOL   O18741569   2.625   0.670   5.843 -0.2530  0.1019 -0.1852
  172MOL   H18841570   2.728   1.106   6.025  0.7111  2.0230 -0.2094
  172MOL   H18941571   2.574   1.157   5.966  0.5876  0.7536  0.2702
  172MOL   H19041572   2.546   0.916   5.867 -0.6303 -1.4719  1.1702
  172MOL   H19141573   2.861   0.596   5.790 -1.1510 -0.4599  0.4039
  172MOL   H19241574   2.873   0.603   5.959 -1.0825  1.2168  1.2413
  172MOL   H19341575   2.941   0.736   5.844  0.3523 -0.3828  2.0464
  172MOL   C19441576   2.536   0.895   6.084 -0.5809 -0.7027  0.1806
  172MOL   C19541577   2.392   0.953   6.092  0.1384  0.4269 -0.6801
  172MOL   O19641578   2.308   0.886   5.991  0.0062  0.0080  0.2268
  172MOL   C19741579   2.253   0.762   6.014  0.3058  0.4263  0.1198
  172MOL   C19841580   2.146   0.719   5.913 -0.2719  0.0846  1.0228
  172MOL   O19941581   2.296   0.673   6.095 -0.1590 -0.0914  0.4536
  172MOL   H20041582   2.531   0.786   6.093 -0.4112 -0.6796  0.5633
  172MOL   H20141583   2.595   0.923   6.171  1.7949 -1.0531 -1.2963
  172MOL   H20241584   2.394   1.058   6.063 -1.6534  0.5483 -0.3996
  172MOL   H20341585   2.177   0.748   5.813 -2.1371  2.0107  0.9652
  172MOL   H20441586   2.048   0.765   5.930  0.4966  1.4964  1.7337
  172MOL   H20541587   2.123   0.613   5.926 -1.7907  0.3372  0.5043
  172MOL   C20641588   2.330   0.945   6.231 -0.1572  0.1050 -0.1471
  172MOL   C20741589   2.214   1.048   6.254  0.3990 -0.0429 -0.1065
  172MOL   O20841590   2.113   1.021   6.155 -0.1364  0.7352 -0.0601
  172MOL   C20941591   2.080   1.123   6.070  0.4305 -0.2077  0.1529
  172MOL   C21041592   1.983   1.075   5.969  0.5744 -0.0843 -0.5515
  172MOL   O21141593   2.143   1.228   6.065  0.6312 -0.4083  0.2267
  172MOL   H21241594   2.283   0.848   6.248  0.5212 -0.2859 -0.4432
  172MOL   H21341595   2.416   0.959   6.298 -2.1517  1.9131  2.1397
  172MOL   H21441596   2.258   1.146   6.233 -0.4926  0.0215 -1.7605
  172MOL   H21541597   1.904   1.143   5.938  0.3772 -0.4346 -0.8178
  172MOL   H21641598   1.930   1.000   6.028 -2.2547  3.6063  1.8460
  172MOL   H21741599   2.031   1.044   5.877  2.5837  2.9726 -0.6077
  172MOL   C21841600   2.153   1.043   6.397  0.7720 -0.3154  0.8872
  172MOL   C21941601   2.254   1.057   6.518 -0.1651 -0.9180 -0.7781
  172MOL   O22041602   2.349   0.949   6.518 -0.3246  0.0269 -0.4698
  172MOL   C22141603   2.348   0.851   6.607 -0.1351  0.4101 -0.0973
  172MOL   C22241604   2.451   0.741   6.579 -0.3761  0.3422 -0.3923
  172MOL   O22341605   2.271   0.848   6.705 -0.0289 -0.2807 -0.1414
  172MOL   H22441606   2.073   1.117   6.404 -1.4099 -2.6194  0.9484
  172MOL   H22541607   2.097   0.953   6.420  0.5446  0.1487  2.2315
  172MOL   H22641608   2.199   1.056   6.612  0.9550 -0.6627 -0.1215
  172MOL   H22741609   2.478   0.698   6.675 -0.3234  0.7516 -0.2202
  172MOL   H22841610   2.541   0.770   6.523 -0.0624  1.1337  0.5074
  172MOL   H22941611   2.404   0.656   6.530  0.2108 -0.1303 -0.1424
  172MOL   C23041612   2.327   1.188   6.526  0.0677 -0.1963 -0.8749
  172MOL   C23141613   2.396   1.196   6.669 -0.3201  0.2150 -0.0830
  172MOL   O23241614   2.451   1.326   6.686 -0.1493  0.2137  0.3013
  172MOL   C23341615   2.474   1.358   6.816 -0.1759 -0.3419  0.6758
  172MOL   C23441616   2.544   1.491   6.837 -1.0608  0.0333  0.1008
  172MOL   O23541617   2.441   1.290   6.911 -0.7142 -0.1730 -0.3678
  172MOL   H23641618   2.394   1.192   6.440  0.1559  2.0118 -0.7228
  172MOL   H23741619   2.267   1.279   6.516 -2.0562 -1.7297 -2.5284
  172MOL   H23841620   2.469   1.118   6.689 -1.3492 -0.4924  0.9823
  172MOL   H23941621   2.605   1.534   6.757 -0.7578 -1.5792 -0.5645
  172MOL   H24041622   2.612   1.470   6.919 -0.2994 -2.0659 -1.0138
  172MOL   H24141623   2.471   1.565   6.868 -0.5400  1.1608 -1.2781
  172MOL   H24241624   2.329   1.170   6.750 -1.6206  0.3382 -1.0955
  173MOL     C141625   5.385   5.087   3.346 -0.1313  0.2108 -0.3849
  173MOL     C241626   5.310   4.948   3.338 -0.3188  0.1274  0.0930
  173MOL     O341627   5.228   4.942   3.223  0.3366 -0.0196  0.0846
  173MOL     C441628   5.112   5.003   3.222 -0.1140  0.5373 -0.1602
  173MOL     C541629   5.035   4.984   3.098 -0.2679  0.7087  0.0746
  173MOL     O641630   5.064   5.065   3.317 -0.1215 -0.1765  0.3939
  173MOL     H741631   5.316   5.163   3.381  0.5054 -0.0594  1.5670
  173MOL     H841632   5.419   5.125   3.250 -1.8278 -0.4362 -1.2465
  173MOL     H941633   5.255   4.928   3.429 -0.1384 -0.6068  0.0442
  173MOL    H1041634   4.927   4.982   3.111 -0.1742  2.8742  1.6426
  173MOL    H1141635   5.059   4.890   3.048 -1.3677  0.0715  0.7252
  173MOL    H1241636   5.057   5.064   3.028  0.2889 -0.0424 -0.6058
  173MOL    H1341637   5.464   5.091   3.422 -2.4804 -2.1080  2.3042
  173MOL    C1441638   5.405   4.827   3.328 -0.3260  0.3915  0.5824
  173MOL    C1541639   5.499   4.812   3.448 -0.1573  0.4074  0.3207
  173MOL    O1641640   5.430   4.782   3.565 -0.6615 -0.6074 -0.1641
  173MOL    C1741641   5.418   4.867   3.670  0.1703  0.6332 -0.3638
  173MOL    C1841642   5.363   4.808   3.803 -0.3881  0.1778 -0.2986
  173MOL    O1941643   5.447   4.988   3.661 -0.0994  0.3977  0.4160
  173MOL    H2041644   5.341   4.740   3.334 -0.4619  0.5558  1.7066
  173MOL    H2141645   5.455   4.823   3.231 -1.0975 -2.0790  0.2699
  173MOL    H2241646   5.571   4.894   3.454  3.0544 -2.4078  1.6370
  173MOL    H2341647   5.420   4.845   3.889  1.9821 -0.8460 -1.3833
  173MOL    H2441648   5.384   4.701   3.803  0.5972  0.3659 -0.4041
  173MOL    H2541649   5.256   4.829   3.802 -0.8603 -2.1186 -1.0275
  173MOL    C2641650   5.591   4.688   3.420 -0.5313  0.5576 -0.0822
  173MOL    C2741651   5.722   4.688   3.508 -0.2959  0.1236  0.0378
  173MOL    O2841652   5.702   4.704   3.646  0.1933  0.6400 -0.5731
  173MOL    C2941653   5.779   4.774   3.728 -0.0754  0.5455 -0.6715
  173MOL    C3041654   5.734   4.784   3.872  0.4797  0.2986 -0.4186
  173MOL    O3141655   5.884   4.826   3.693 -0.0841  0.2952 -0.6989
  173MOL    H3241656   5.542   4.594   3.444  1.8745 -0.2698  1.7398
  173MOL    H3341657   5.601   4.674   3.312 -0.7555  0.2014 -0.0557
  173MOL    H3441658   5.772   4.779   3.475  0.8664 -0.1072  1.1414
  173MOL    H3541659   5.627   4.778   3.887  0.7793 -2.6253  0.9306
  173MOL    H3641660   5.783   4.868   3.921 -0.8981  0.7182  0.2489
  173MOL    H3741661   5.780   4.707   3.934 -1.4234 -0.8914 -0.4694
  173MOL    C3841662   5.796   4.559   3.483  0.3231  0.3417 -0.4557
  173MOL    C3941663   5.865   4.546   3.344 -0.2966 -0.3823 -0.4287
  173MOL    O4041664   5.767   4.534   3.236 -0.1756  0.2441 -0.0453
  173MOL    C4141665   5.781   4.438   3.148  0.5284  0.2030 -0.4525
  173MOL    C4241666   5.653   4.417   3.070 -0.5383  0.5037  0.2968
  173MOL    O4341667   5.884   4.380   3.116  0.0487  0.2290 -0.4251
  173MOL    H4441668   5.882   4.538   3.547  0.8174 -1.0359 -1.5337
  173MOL    H4541669   5.729   4.475   3.491  0.1847  0.4275 -0.6923
  173MOL    H4641670   5.912   4.449   3.358  0.5382  0.2248  1.0261
  173MOL    H4741671   5.579   4.385   3.143 -1.3007 -2.1794 -1.5458
  173MOL    H4841672   5.684   4.334   3.005 -0.5184  0.8674 -0.1629
  173MOL    H4941673   5.613   4.506   3.021 -1.0107 -1.0556 -2.2441
  173MOL    C5041674   5.969   4.653   3.319 -0.4162 -0.8572 -0.1310
  173MOL    C5141675   6.056   4.634   3.195  0.7736 -0.4524  0.1402
  173MOL    O5241676   6.128   4.758   3.179  0.1026  0.1388  0.5192
  173MOL    C5341677   6.081   4.865   3.106  0.2157 -0.4407 -0.0233
  173MOL    C5441678   6.197   4.964   3.065 -0.5247 -0.1306  0.8557
  173MOL    O5541679   5.963   4.879   3.068  0.1091 -0.2696 -0.1450
  173MOL    H5641680   5.921   4.749   3.335  0.0280 -0.5628 -0.5805
  173MOL    H5741681   6.031   4.652   3.409 -1.4672 -0.0412  0.6098
  173MOL    H5841682   6.005   4.606   3.103  0.8683 -0.5557  0.1192
  173MOL    H5941683   6.166   5.037   2.991 -2.4184  0.9421  2.6473
  173MOL    H6041684   6.286   4.911   3.030  0.0726  2.0084 -0.9930
  173MOL    H6141685   6.227   5.029   3.147 -3.2327  2.2760 -0.0049
  173MOL    C6241686   6.168   4.527   3.214  0.3459 -0.3301 -0.5437
  173MOL    C6341687   6.231   4.484   3.078  0.2343 -0.4700  0.2613
  173MOL    O6441688   6.314   4.586   3.014  0.1071  0.4618  0.0345
  173MOL    C6541689   6.424   4.633   3.079  0.0884  0.3543  0.0120
  173MOL    C6641690   6.504   4.722   2.988 -0.6085 -0.0629 -0.3168
  173MOL    O6741691   6.463   4.616   3.196  0.2270  0.4983  0.2812
  173MOL    H6841692   6.242   4.547   3.292 -1.0328 -0.5074  0.8459
  173MOL    H6941693   6.120   4.432   3.238 -0.5687 -0.4552 -2.7890
  173MOL    H7041694   6.151   4.471   3.005  1.5687 -0.0695 -1.2857
  173MOL    H7141695   6.455   4.818   3.000  0.2451  0.2576  0.6798
  173MOL    H7241696   6.489   4.696   2.883  1.4838  0.4235 -0.7424
  173MOL    H7341697   6.611   4.723   3.009 -0.3412 -1.7370 -1.4573
  173MOL    C7441698   6.297   4.349   3.084  0.6189 -0.0750 -0.7185
  173MOL    C7541699   6.334   4.282   2.953  0.4800  0.0193  0.9032
  173MOL    O7641700   6.223   4.274   2.865  0.6610  0.1572 -0.3944
  173MOL    C7741701   6.143   4.165   2.864 -0.0195 -0.0511  0.7701
  173MOL    C7841702   6.005   4.188   2.802  0.3154  0.1610 -0.0953
  173MOL    O7941703   6.183   4.055   2.897  0.2075 -0.2660 -0.0426
  173MOL    H8041704   6.380   4.357   3.154 -0.8136 -1.8899  1.2429
  173MOL    H8141705   6.223   4.282   3.128  1.6556  1.3490  3.3866
  173MOL    H8241706   6.369   4.183   2.984  1.3510  0.3023  0.8376
  173MOL    H8341707   6.012   4.267   2.728 -0.9355 -1.0606 -1.5592
  173MOL    H8441708   5.944   4.226   2.884 -0.0724 -0.2190 -0.2051
  173MOL    H8541709   5.963   4.093   2.768 -0.7500  0.3526  0.6653
  173MOL    C8641710   6.437   4.357   2.873 -0.7607 -0.2127 -0.9240
  173MOL    C8741711   6.513   4.273   2.773 -0.6419 -0.2334  0.0288
  173MOL    O8841712   6.593   4.366   2.701 -0.0570 -0.2234 -0.2108
  173MOL    C8941713   6.567   4.384   2.569  0.2705 -0.2258  0.4015
  173MOL    C9041714   6.654   4.502   2.514 -0.4783 -0.6352  0.1311
  173MOL    O9141715   6.491   4.314   2.502 -0.5275 -0.0738  1.0009
  173MOL    H9241716   6.386   4.440   2.825  2.1325  1.7138 -0.7908
  173MOL    H9341717   6.515   4.398   2.936  0.2736 -1.3941 -1.4131
  173MOL    H9441718   6.442   4.214   2.716  0.5646 -2.1288  0.4353
  173MOL    H9541719   6.748   4.502   2.569 -0.2578 -1.7679 -0.2219
  173MOL    H9641720   6.600   4.592   2.543 -1.1000 -0.7900 -0.5229
  173MOL    H9741721   6.685   4.503   2.410  1.1289  0.1323  0.6022
  173MOL    C9841722   6.608   4.165   2.842  0.3856 -0.1428 -0.2998
  173MOL    C9941723   6.677   4.081   2.737  0.4460 -0.1085  0.4511
  173MOL   O10041724   6.806   4.031   2.785  0.2740  0.4563 -0.0524
  173MOL   C10141725   6.923   4.100   2.753 -0.6518  0.5322  0.9297
  173MOL   C10241726   7.045   4.051   2.836 -0.1868 -0.1196 -0.1637
  173MOL   O10341727   6.937   4.199   2.679  0.1744 -0.7425 -0.9033
  173MOL   H10441728   6.688   4.227   2.882 -1.1108  2.3313 -1.0022
  173MOL   H10541729   6.550   4.102   2.910 -1.0373 -2.0644 -3.1712
  173MOL   H10641730   6.676   4.136   2.644  2.4774 -0.4783  0.1859
  173MOL   H10741731   7.131   4.047   2.769 -1.9088  2.3539 -2.6394
  173MOL   H10841732   7.031   3.951   2.877  0.1888 -0.7692 -1.5932
  173MOL   H10941733   7.076   4.122   2.913 -2.0990  0.7934 -0.1989
  173MOL   C11041734   6.587   3.959   2.702 -0.1608 -0.1159  0.3350
  173MOL   C11141735   6.626   3.883   2.573  0.1463 -0.2498 -0.1270
  173MOL   O11241736   6.550   3.758   2.561 -0.4502 -0.4611  0.0908
  173MOL   C11341737   6.611   3.649   2.586 -0.0338 -0.1196 -0.1247
  173MOL   C11441738   6.528   3.535   2.538  0.2592 -0.5068  0.0331
  173MOL   O11541739   6.713   3.630   2.652  0.1177  0.3704 -0.1707
  173MOL   H11641740   6.594   3.893   2.789 -1.7186 -0.9796 -0.1853
  173MOL   H11741741   6.486   3.996   2.688  0.5914  1.2296 -1.7463
  173MOL   H11841742   6.734   3.865   2.571 -0.0083 -1.0979 -1.0155
  173MOL   H11941743   6.466   3.496   2.619 -0.2227  1.6625  0.7419
  173MOL   H12041744   6.598   3.455   2.516  1.1223  0.8354 -2.3308
  173MOL   H12141745   6.460   3.564   2.457 -1.1085  0.7382  1.5948
  173MOL   C12241746   6.600   3.964   2.442 -0.0772 -0.5403 -0.1844
  173MOL   C12341747   6.677   3.918   2.314 -0.0230 -0.1115 -0.1136
  173MOL   O12441748   6.635   3.792   2.277 -0.1979 -0.1655  0.4052
  173MOL   C12541749   6.717   3.706   2.217  0.2528  0.0816 -0.0295
  173MOL   C12641750   6.660   3.570   2.182 -0.1316  0.1929  0.6088
  173MOL   O12741751   6.833   3.725   2.179 -0.7565 -0.7426  0.2958
  173MOL   H12841752   6.492   3.952   2.427 -0.3546  1.5522  0.0847
  173MOL   H12941753   6.604   4.070   2.463 -2.2559 -0.2485 -1.1003
  173MOL   H13041754   6.783   3.920   2.337 -0.0647 -1.6944  0.2562
  173MOL   H13141755   6.638   3.511   2.271 -1.1903  0.8376  0.7694
  173MOL   H13241756   6.729   3.508   2.124 -1.7741 -2.5176  1.4683
  173MOL   H13341757   6.575   3.576   2.114  0.8205  0.9846 -0.5473
  173MOL   C13441758   6.652   4.010   2.199 -0.2142 -0.2214 -0.1680
  173MOL   C13541759   6.707   4.147   2.218 -0.1681  0.2850  0.3294
  173MOL   O13641760   6.847   4.151   2.244 -0.2480  0.6915 -0.2736
  173MOL   C13741761   6.894   4.227   2.336 -0.0541  0.0257 -0.3180
  173MOL   C13841762   7.043   4.191   2.361  0.7834 -0.7536  0.3028
  173MOL   O13941763   6.835   4.314   2.400 -0.2667 -1.5721 -0.5182
  173MOL   H14041764   6.705   3.964   2.116 -2.7529 -0.9363 -1.4623
  173MOL   H14141765   6.544   4.021   2.186 -0.0142 -1.2039 -3.0717
  173MOL   H14241766   6.660   4.193   2.306 -0.3894  0.0924  0.3142
  173MOL   H14341767   7.077   4.217   2.461  0.5500  0.4557  0.0747
  173MOL   H14441768   7.105   4.251   2.294  1.8221  0.3880  2.2183
  173MOL   H14541769   7.061   4.084   2.352  1.6179 -0.5779 -0.2161
  173MOL   C14641770   6.676   4.249   2.101 -0.2525  0.4405  0.2841
  173MOL   C14741771   6.712   4.184   1.964  0.2352 -0.0536  0.5562
  173MOL   O14841772   6.600   4.105   1.924  0.2052 -0.1174  0.1136
  173MOL   C14941773   6.611   3.989   1.851  0.7330 -0.2880  0.8119
  173MOL   C15041774   6.471   3.937   1.820 -0.4917  0.2868 -0.1932
  173MOL   O15141775   6.713   3.929   1.824  0.0176  0.2269 -0.6197
  173MOL   H15241776   6.570   4.275   2.104 -0.1562  0.8332  0.3122
  173MOL   H15341777   6.725   4.341   2.134  1.1709 -1.5946  4.2431
  173MOL   H15441778   6.801   4.123   1.976  0.0614 -0.0021  2.3116
  173MOL   H15541779   6.435   3.863   1.892 -2.2006  1.7490  0.4932
  173MOL   H15641780   6.473   3.885   1.725 -0.2441  0.4342 -0.2701
  173MOL   H15741781   6.393   4.012   1.810  0.4988  1.2089 -1.2125
  173MOL   C15841782   6.740   4.283   1.847 -0.4617 -0.1759  0.5050
  173MOL   C15941783   6.800   4.422   1.882 -0.5088  0.2246  0.3725
  173MOL   O16041784   6.692   4.497   1.942 -0.7055  0.4100 -0.0013
  173MOL   C16141785   6.638   4.600   1.877 -0.5462 -0.1903  0.6834
  173MOL   C16241786   6.514   4.649   1.952  0.7560  0.9007 -0.1332
  173MOL   O16341787   6.673   4.650   1.768  0.7181  0.2907  0.0539
  173MOL   H16441788   6.799   4.227   1.775 -0.2015 -1.2646  1.5584
  173MOL   H16541789   6.644   4.295   1.795  0.1760  2.0122 -0.2357
  173MOL   H16641790   6.834   4.475   1.792 -0.0053  1.6925  1.4016
  173MOL   H16741791   6.488   4.747   1.912 -0.4857  0.1063 -1.3306
  173MOL   H16841792   6.531   4.649   2.060 -1.0849 -0.4591  0.1984
  173MOL   H16941793   6.433   4.586   1.914  0.6971  1.1792 -0.4653
  173MOL   C17041794   6.929   4.426   1.975  0.1845 -0.0348 -0.4286
  173MOL   C17141795   6.978   4.561   2.023 -0.1092 -0.2243  0.0602
  173MOL   O17241796   7.022   4.552   2.157 -0.4824  0.4654 -0.5046
  173MOL   C17341797   6.958   4.616   2.255  0.3087  0.0507 -0.1174
  173MOL   C17441798   7.014   4.610   2.396  0.4309  0.4861  0.0427
  173MOL   O17541799   6.862   4.686   2.225 -1.0316  0.2483 -0.5766
  173MOL   H17641800   6.919   4.349   2.051  3.8267  1.8084  2.0058
  173MOL   H17741801   7.012   4.379   1.921  0.7150  0.2264  0.1616
  173MOL   H17841802   6.885   4.618   2.013 -0.5261 -0.9529 -0.3082
  173MOL   H17941803   6.979   4.514   2.433  1.1198 -0.1409 -0.9047
  173MOL   H18041804   6.956   4.686   2.449 -1.1061 -1.0162  0.5636
  173MOL   H18141805   7.120   4.628   2.378  0.3948 -1.7008 -2.8225
  173MOL   C18241806   7.070   4.635   1.914  0.4905  0.3600  0.5738
  173MOL   C18341807   7.088   4.779   1.936 -0.7004  0.9124  1.0327
  173MOL   O18441808   7.193   4.828   1.850 -0.9398  0.1858  0.4085
  173MOL   C18541809   7.317   4.839   1.891  0.1989  0.4480  0.4024
  173MOL   C18641810   7.402   4.900   1.779  0.1674 -0.2936 -0.2751
  173MOL   O18741811   7.361   4.805   1.999 -0.5551 -0.6677 -0.1015
  173MOL   H18841812   7.163   4.578   1.908 -0.9529 -2.1451  1.0329
  173MOL   H18941813   7.020   4.620   1.818 -0.2453  0.2837  0.9635
  173MOL   H19041814   7.116   4.795   2.040 -1.2628 -0.2191  1.3619
  173MOL   H19141815   7.408   5.008   1.764  0.3611 -0.4898 -1.6182
  173MOL   H19241816   7.365   4.855   1.687  1.0804  0.1981 -0.8912
  173MOL   H19341817   7.505   4.866   1.789  0.7064  1.1814 -0.5971
  173MOL   C19441818   6.968   4.866   1.905 -0.4419  0.4484 -0.0509
  173MOL   C19541819   6.996   5.002   1.981 -0.4234 -1.0018 -0.2360
  173MOL   O19641820   6.946   5.112   1.910 -0.1076 -0.2813 -0.1188
  173MOL   C19741821   7.020   5.176   1.821 -0.4721  0.0477  1.0940
  173MOL   C19841822   6.940   5.273   1.734 -0.3912 -0.3368 -0.7368
  173MOL   O19941823   7.141   5.157   1.800 -0.1182  0.2206  0.7629
  173MOL   H20041824   6.950   4.880   1.798 -1.2829 -0.5719 -0.0472
  173MOL   H20141825   6.880   4.814   1.944  1.5277 -1.0634  2.4497
  173MOL   H20241826   7.102   5.026   1.991 -1.0650  1.7135  0.4180
  173MOL   H20341827   6.874   5.226   1.661 -2.9642  1.2405  0.5150
  173MOL   H20441828   7.000   5.330   1.664 -1.0481 -0.3931 -1.3466
  173MOL   H20541829   6.871   5.345   1.779 -0.0862  0.3856 -1.4155
  173MOL   C20641830   6.940   5.004   2.119 -0.8586 -0.1565 -0.3324
  173MOL   C20741831   7.004   5.113   2.212 -0.5628  0.5414  0.1089
  173MOL   O20841832   6.960   5.247   2.182  0.3624 -0.3856 -0.0911
  173MOL   C20941833   7.057   5.338   2.137 -0.7738  0.4534  0.2070
  173MOL   C21041834   6.990   5.467   2.097  0.1788 -0.5007 -0.8227
  173MOL   O21141835   7.178   5.321   2.130  0.5938 -0.0639 -0.1818
  173MOL   H21241836   6.831   5.005   2.114 -0.9633  1.3064  1.7987
  173MOL   H21341837   6.951   4.907   2.167 -0.9226  0.6688  1.3751
  173MOL   H21441838   7.113   5.103   2.222 -0.5854  1.0489  0.9490
  173MOL   H21541839   6.979   5.476   1.989  0.2701  0.5641 -0.7445
  173MOL   H21641840   7.041   5.553   2.138 -1.5852  0.0626  0.2766
  173MOL   H21741841   6.893   5.468   2.147  0.3431  1.3877 -0.5270
  173MOL   C21841842   6.966   5.085   2.351  0.3851  0.0697  0.0654
  173MOL   C21941843   7.059   4.989   2.423  0.3944 -0.3494 -0.2734
  173MOL   O22041844   7.181   5.061   2.451  0.0332 -0.0256  0.3890
  173MOL   C22141845   7.303   5.011   2.419  1.2958 -0.1360 -0.7741
  173MOL   C22241846   7.413   5.109   2.476 -0.0625  0.0176  0.9775
  173MOL   O22341847   7.324   4.908   2.354  0.3221 -0.5030 -0.4933
  173MOL   H22441848   6.956   5.178   2.407 -2.0378  0.8833 -1.6087
  173MOL   H22541849   6.865   5.043   2.358  0.1977  0.2986 -1.1363
  173MOL   H22641850   7.090   4.905   2.362  0.1597 -1.4796  1.1576
  173MOL   H22741851   7.397   5.127   2.582 -0.7935  1.2132  0.6709
  173MOL   H22841852   7.411   5.201   2.418  0.9319  0.5504  1.7930
  173MOL   H22941853   7.508   5.059   2.456 -0.4549 -0.5986  0.6206
  173MOL   C23041854   7.008   4.936   2.563 -0.3022 -0.1363  0.0192
  173MOL   C23141855   7.119   4.876   2.652 -0.0025  0.3084 -1.0665
  173MOL   O23241856   7.063   4.800   2.763  0.5285  0.8411  0.1949
  173MOL   C23341857   7.042   4.856   2.880  0.1074 -0.2064  0.0366
  173MOL   C23441858   6.990   4.757   2.980  0.0688 -0.0342 -0.0683
  173MOL   O23541859   7.050   4.968   2.911  1.0333 -0.2878 -0.1917
  173MOL   H23641860   6.970   5.021   2.618 -1.1648 -0.2490 -0.3964
  173MOL   H23741861   6.935   4.858   2.541 -1.0754  0.5034  0.3298
  173MOL   H23841862   7.183   4.959   2.682  0.3248 -0.8286  1.5485
  173MOL   H23941863   7.069   4.726   3.048  0.7858 -0.4980 -1.1066
  173MOL   H24041864   6.936   4.669   2.946  0.4527  0.0821 -1.0007
  173MOL   H24141865   6.928   4.811   3.052  2.3745  1.4250  0.8537
  173MOL   H24241866   7.191   4.810   2.603  1.6442  0.0378  1.5824
  174MOL     C141867   3.755   7.661   6.509  0.0326  0.1373 -0.8372
  174MOL     C241868   3.708   7.761   6.406  0.4112  0.3296 -0.1113
  174MOL     O341869   3.826   7.836   6.366  0.0041 -0.0239  0.0526
  174MOL     C441870   3.797   7.959   6.304 -0.3244  0.5756 -0.2053
  174MOL     C541871   3.927   0.014   6.283 -0.0418 -0.3114  0.4223
  174MOL     O641872   3.686   8.004   6.274  0.7138 -0.6074 -0.3308
  174MOL     H741873   3.804   7.727   6.581  1.1242 -0.7230 -0.8010
  174MOL     H841874   3.839   7.601   6.477  0.8230  0.1708  1.0941
  174MOL     H941875   3.628   7.826   6.440  0.5427 -1.0113  2.9833
  174MOL    H1041876   3.903   0.120   6.283 -3.0238 -0.9224 -0.9762
  174MOL    H1141877   3.986   8.011   6.195 -0.5000 -1.0486  0.3129
  174MOL    H1241878   3.988   8.021   6.372  1.4295  1.1324 -0.3366
  174MOL    H1341879   3.684   7.603   6.568  0.5629 -0.0977 -0.4259
  174MOL    C1441880   3.678   7.684   6.274 -0.0821 -0.5171  0.0209
  174MOL    C1541881   3.598   7.555   6.285 -0.6099  0.5624  0.6584
  174MOL    O1641882   3.467   7.608   6.305 -0.4583  0.6881 -0.1924
  174MOL    C1741883   3.392   7.561   6.409 -0.5757 -0.2244  0.0277
  174MOL    C1841884   3.259   7.629   6.399 -0.0595  0.3083  0.5597
  174MOL    O1941885   3.431   7.494   6.503  0.6724  0.5645 -0.0537
  174MOL    H2041886   3.641   7.753   6.199  1.7379  0.9479  0.4258
  174MOL    H2141887   3.776   7.659   6.233  0.7645  3.8787 -0.9116
  174MOL    H2241888   3.626   7.500   6.375  2.0601  0.6192 -0.1155
  174MOL    H2341889   3.239   7.632   6.292  0.0452  0.7037  0.5497
  174MOL    H2441890   3.251   7.725   6.450 -0.0271  0.8497 -0.4446
  174MOL    H2541891   3.195   7.563   6.457 -0.8059  0.6974  0.1767
  174MOL    C2641892   3.607   7.473   6.153  0.1108 -0.3178 -0.2539
  174MOL    C2741893   3.542   7.340   6.158  0.2794 -0.2458  0.5825
  174MOL    O2841894   3.398   7.347   6.124 -0.5508  0.1448  0.5644
  174MOL    C2941895   3.313   7.265   6.180 -0.0237  0.3875  0.1995
  174MOL    C3041896   3.173   7.286   6.135  0.2512  0.0456  0.4036
  174MOL    O3141897   3.343   7.178   6.263  0.4990  0.1469  0.6067
  174MOL    H3241898   3.550   7.521   6.073 -1.9515  1.5328  2.2633
  174MOL    H3341899   3.710   7.471   6.116 -0.3496 -0.3010 -1.5614
  174MOL    H3441900   3.538   7.311   6.263 -2.8224 -1.6648  0.1332
  174MOL    H3541901   3.107   7.226   6.197 -0.0288  0.1491  0.2129
  174MOL    H3641902   3.152   7.247   6.035  1.9011 -2.4948  1.0010
  174MOL    H3741903   3.127   7.385   6.141 -0.1189 -0.0540 -0.5962
  174MOL    C3841904   3.598   7.226   6.067 -0.2481 -0.7142  0.1441
  174MOL    C3941905   3.738   7.177   6.115  0.3299 -1.2413  1.0192
  174MOL    O4041906   3.735   7.155   6.258 -0.0849  0.1280  0.0619
  174MOL    C4141907   3.800   7.248   6.342 -0.1532  0.2824 -0.0919
  174MOL    C4241908   3.769   7.233   6.486 -0.4631  0.0696 -0.7987
  174MOL    O4341909   3.870   7.349   6.312  0.8691 -0.0271  0.8341
  174MOL    H4441910   3.534   7.137   6.070 -0.5542 -0.4885  0.6009
  174MOL    H4541911   3.587   7.254   5.963 -0.0797  1.3418  0.6638
  174MOL    H4641912   3.818   7.242   6.078 -1.1488  1.3421  2.2099
  174MOL    H4741913   3.665   7.260   6.501 -0.6185  1.8025 -4.3039
  174MOL    H4841914   3.838   7.289   6.550 -0.4409  1.4158 -1.9754
  174MOL    H4941915   3.780   7.128   6.511 -0.4687 -0.2421 -2.0837
  174MOL    C5041916   3.775   7.039   6.058  0.0282  0.2262  0.3448
  174MOL    C5141917   3.780   7.023   5.906  0.7746 -0.1350  0.4050
  174MOL    O5241918   3.867   7.119   5.848 -0.4998  0.1141  0.2545
  174MOL    C5341919   3.835   7.169   5.727  0.4168 -0.1287  0.0855
  174MOL    C5441920   3.937   7.275   5.683  0.8182  0.0331  0.2036
  174MOL    O5541921   3.737   7.138   5.663 -0.5618  0.3610  0.3073
  174MOL    H5641922   3.880   7.029   6.081 -0.1272 -0.1060  0.9087
  174MOL    H5741923   3.704   6.965   6.096  0.1612 -0.7908 -1.3209
  174MOL    H5841924   3.675   7.040   5.883  0.1152 -0.5702  2.9271
  174MOL    H5941925   3.988   7.316   5.770  0.2992  2.8192 -0.7495
  174MOL    H6041926   3.877   7.359   5.646 -0.2253 -0.5849  0.4782
  174MOL    H6141927   4.005   7.255   5.600 -1.2434 -0.7204 -1.3562
  174MOL    C6241928   3.829   6.881   5.867 -0.0173  0.1161 -0.1973
  174MOL    C6341929   3.725   6.778   5.884  0.7769  0.5405 -0.0164
  174MOL    O6441930   3.656   6.774   5.761  0.1172  0.7787  0.1444
  174MOL    C6541931   3.534   6.826   5.747 -0.1415 -0.5926 -0.0652
  174MOL    C6641932   3.485   6.849   5.603 -0.3051 -0.2506 -0.2548
  174MOL    O6741933   3.456   6.857   5.838 -0.5764 -1.1136  0.0202
  174MOL    H6841934   3.859   6.876   5.762  0.1761 -0.2678 -0.1248
  174MOL    H6941935   3.919   6.847   5.917  0.0138  0.0570 -0.2944
  174MOL    H7041936   3.659   6.808   5.966  0.1674  0.4845 -0.4773
  174MOL    H7141937   3.396   6.796   5.570 -0.9733  0.7743 -0.1167
  174MOL    H7241938   3.562   6.823   5.530  0.8196 -2.0869  1.5242
  174MOL    H7341939   3.471   6.957   5.596  0.6120 -0.0622  0.6051
  174MOL    C7441940   3.787   6.637   5.910 -0.2605  0.5855 -0.4636
  174MOL    C7541941   3.689   6.542   5.985 -0.0580 -0.1781  0.3958
  174MOL    O7641942   3.755   6.422   6.006 -0.2591  0.7489  0.3699
  174MOL    C7741943   3.699   6.307   5.981  0.3886 -0.1732  0.3351
  174MOL    C7841944   3.782   6.188   6.020 -0.2042  0.0447  0.2794
  174MOL    O7941945   3.597   6.287   5.917 -0.3989  0.1918  0.0995
  174MOL    H8041946   3.833   6.593   5.822  2.3025 -2.1173  2.0661
  174MOL    H8141947   3.868   6.639   5.983 -0.6720 -2.5172  0.1579
  174MOL    H8241948   3.606   6.525   5.916  0.5020 -0.5776 -0.1890
  174MOL    H8341949   3.719   6.103   6.046 -0.6677 -0.8038 -3.3505
  174MOL    H8441950   3.847   6.209   6.106 -1.1572 -0.5080  1.1463
  174MOL    H8541951   3.830   6.144   5.933  1.8925  0.9433  0.9312
  174MOL    C8641952   3.630   6.594   6.118 -0.4394 -0.2349  0.0488
  174MOL    C8741953   3.522   6.504   6.188  0.2535 -0.6725  0.3530
  174MOL    O8841954   3.532   6.521   6.334 -0.4884 -0.1825  0.3786
  174MOL    C8941955   3.567   6.409   6.413 -0.2875  0.5785  0.6351
  174MOL    C9041956   3.587   6.446   6.564  0.4486 -0.0996  0.2268
  174MOL    O9141957   3.590   6.293   6.378  0.1989 -0.2731 -0.2097
  174MOL    H9241958   3.704   6.625   6.192 -0.6860  1.3118 -0.3255
  174MOL    H9341959   3.583   6.691   6.102 -1.4659 -0.5175  1.2586
  174MOL    H9441960   3.542   6.400   6.164 -0.0189 -0.6299 -0.0523
  174MOL    H9541961   3.496   6.500   6.587 -0.3126 -1.3824  0.2590
  174MOL    H9641962   3.670   6.512   6.590  0.6968  0.2816 -1.5221
  174MOL    H9741963   3.591   6.357   6.627 -0.3876 -0.4289 -0.1905
  174MOL    C9841964   3.377   6.529   6.140  0.6439  0.2153 -0.3169
  174MOL    C9941965   3.272   6.445   6.211  0.0708  0.3869  0.6260
  174MOL   O10041966   3.145   6.507   6.191 -0.5431 -0.6377  0.3675
  174MOL   C10141967   3.069   6.557   6.291  0.0242  0.3110 -0.0415
  174MOL   C10241968   2.931   6.599   6.244 -1.0302 -0.3495 -0.1467
  174MOL   O10341969   3.104   6.564   6.410 -0.2665 -0.2864  0.0327
  174MOL   H10441970   3.370   6.634   6.168  1.5913  0.3662 -0.6216
  174MOL   H10541971   3.355   6.534   6.033 -0.3203  1.0011 -0.0818
  174MOL   H10641972   3.292   6.443   6.318 -0.9194  0.5954  0.8245
  174MOL   H10741973   2.871   6.526   6.190 -0.0869 -0.0734 -1.5934
  174MOL   H10841974   2.934   6.678   6.169  0.2715 -0.6614 -0.4412
  174MOL   H10941975   2.879   6.624   6.337 -0.6554 -1.3335  0.3483
  174MOL   C11041976   3.258   6.295   6.177  0.2915  0.8413  0.5703
  174MOL   C11141977   3.267   6.209   6.306 -0.6306  0.1746  0.2285
  174MOL   O11241978   3.156   6.236   6.392  0.1282  0.1900  0.3939
  174MOL   C11341979   3.175   6.255   6.522  0.0760 -0.3845  0.3979
  174MOL   C11441980   3.044   6.263   6.594  0.1020  0.0076 -0.3273
  174MOL   O11541981   3.280   6.267   6.584  0.6557 -0.4781 -0.6580
  174MOL   H11641982   3.170   6.276   6.116  0.9435 -2.4357  0.5010
  174MOL   H11741983   3.345   6.277   6.113  0.5507 -0.7462  1.3502
  174MOL   H11841984   3.363   6.233   6.352 -0.5040  0.1692 -0.0308
  174MOL   H11941985   3.045   6.306   6.695 -0.1634 -0.0409 -0.3024
  174MOL   H12041986   2.990   6.168   6.593  0.2782 -0.1245  1.1401
  174MOL   H12141987   2.994   6.334   6.529 -0.9374 -2.2388 -2.0342
  174MOL   C12241988   3.247   6.055   6.292  0.0953  0.3163 -0.4209
  174MOL   C12341989   3.343   5.974   6.193  0.5945 -0.4322  0.2261
  174MOL   O12441990   3.299   5.983   6.057 -0.1034 -0.2581 -0.1643
  174MOL   C12541991   3.317   5.877   5.975  0.0883  0.2638  0.4381
  174MOL   C12641992   3.281   5.910   5.827  0.3081 -0.2464 -0.4927
  174MOL   O12741993   3.369   5.767   6.003 -0.0910  0.6002  0.0294
  174MOL   H12841994   3.257   6.008   6.390 -1.8724 -0.7106 -0.7066
  174MOL   H12941995   3.143   6.048   6.260  0.2214 -2.1365 -0.3407
  174MOL   H13041996   3.338   5.870   6.224 -2.4997 -0.0591  1.1120
  174MOL   H13141997   3.335   5.861   5.746  2.1918  0.7792  0.1090
  174MOL   H13241998   3.276   6.019   5.828 -1.1519 -0.2958  1.7484
  174MOL   H13341999   3.180   5.876   5.803 -0.1072 -0.0136  0.9037
  174MOL   C13442000   3.493   6.025   6.195 -0.7742  0.0214  0.0613
  174MOL   C13542001   3.586   5.938   6.284  0.0230  0.1342  0.3647
  174MOL   O13642002   3.583   5.799   6.236 -0.1971 -0.8446 -0.4050
  174MOL   C13742003   3.516   5.709   6.303  0.3814 -0.2989 -0.0108
  174MOL   C13842004   3.517   5.577   6.232  0.6527 -0.6183 -0.2374
  174MOL   O13942005   3.463   5.720   6.416 -0.1495  0.3871  0.1261
  174MOL   H14042006   3.532   6.014   6.093 -0.1049 -0.6376  0.3777
  174MOL   H14142007   3.519   6.124   6.231  0.4093 -0.3444  0.2371
  174MOL   H14242008   3.553   5.936   6.388 -1.0904 -2.5721  0.0220
  174MOL   H14342009   3.426   5.552   6.177 -0.1472  2.1031 -0.2324
  174MOL   H14442010   3.535   5.496   6.302  0.6004  0.0294  0.5291
  174MOL   H14542011   3.597   5.573   6.158  0.9590 -1.7257  0.1547
  174MOL   C14642012   3.732   5.986   6.299  0.0596  0.1784  0.0009
  174MOL   C14742013   3.789   5.959   6.443 -1.0218 -0.1799 -0.8883
  174MOL   O14842014   3.802   5.817   6.461  0.4005  0.1738  0.4711
  174MOL   C14942015   3.799   5.754   6.580  0.6201 -0.1749  0.6280
  174MOL   C15042016   3.783   5.601   6.566 -1.0569 -0.1829  0.4749
  174MOL   O15142017   3.791   5.812   6.688  0.2230 -0.5262  0.3935
  174MOL   H15242018   3.801   5.958   6.219  1.8017  0.9010  1.2331
  174MOL   H15342019   3.726   6.094   6.294  0.5150  0.2726  1.3411
  174MOL   H15442020   3.724   5.997   6.522  0.3738 -1.0542  0.7058
  174MOL   H15542021   3.849   5.575   6.482  0.2433  1.5491  0.9305
  174MOL   H15642022   3.682   5.571   6.539 -0.0142 -0.6873 -3.2213
  174MOL   H15742023   3.820   5.555   6.657 -1.0803  0.2578  0.7072
  174MOL   C15842024   3.933   6.025   6.457  0.4523 -0.0568  0.0293
  174MOL   C15942025   3.953   6.170   6.513  0.9599  0.3482  0.2666
  174MOL   O16042026   3.911   6.257   6.412 -0.2571 -0.9642 -0.2394
  174MOL   C16142027   3.996   6.350   6.357  0.6004  0.2522  0.0334
  174MOL   C16242028   3.929   6.437   6.257 -0.2515 -0.8158 -0.3899
  174MOL   O16342029   4.111   6.369   6.399  0.1448 -0.1566  0.2727
  174MOL   H16442030   3.986   5.964   6.530  2.7506 -0.3980 -1.9013
  174MOL   H16542031   3.986   6.029   6.362  0.6764  0.6472  0.1784
  174MOL   H16642032   4.059   6.189   6.531  0.8221  1.1268  0.2628
  174MOL   H16742033   3.981   6.432   6.161  0.5948  1.5345 -0.0778
  174MOL   H16842034   3.925   6.537   6.299 -0.5210 -1.4147  1.0287
  174MOL   H16942035   3.826   6.404   6.241 -0.6882  0.3907 -0.0920
  174MOL   C17042036   3.864   6.195   6.639  0.0532 -0.9222 -0.0176
  174MOL   C17142037   3.913   6.109   6.761  0.6165 -0.5073 -0.1078
  174MOL   O17242038   4.035   6.161   6.799 -0.4813 -0.2478 -0.4397
  174MOL   C17342039   4.138   6.074   6.845 -0.6949 -0.4060 -0.0435
  174MOL   C17442040   4.267   6.160   6.853 -0.1063  0.0760  0.0890
  174MOL   O17542041   4.132   5.958   6.876  0.2245  0.5070 -0.2719
  174MOL   H17642042   3.864   6.303   6.658 -0.1822 -1.0981  1.0018
  174MOL   H17742043   3.757   6.181   6.621 -0.4666  0.3648  1.8912
  174MOL   H17842044   3.932   6.003   6.745 -0.4032 -0.8330  0.8088
  174MOL   H17942045   4.248   6.264   6.829  0.0261  0.1530  0.3222
  174MOL   H18042046   4.330   6.102   6.785 -0.3416  0.8955 -0.8457
  174MOL   H18142047   4.298   6.158   6.957 -3.3190  1.8793  1.1607
  174MOL   C18242048   3.813   6.117   6.876  0.2575 -0.1453  0.8170
  174MOL   C18342049   3.818   6.009   6.985 -0.2864  0.2546  0.1675
  174MOL   O18442050   3.907   6.054   7.087 -0.0281  0.0602 -0.1054
  174MOL   C18542051   3.971   5.970   7.166 -0.3248  0.2447  0.0743
  174MOL   C18642052   4.054   6.034   7.279  0.2090 -0.6682 -1.2338
  174MOL   O18742053   3.975   5.843   7.167 -0.5568  0.0235  0.1286
  174MOL   H18842054   3.812   6.211   6.931 -1.2388  0.0545  0.4703
  174MOL   H18942055   3.718   6.102   6.825  0.9824  0.3488 -0.6965
  174MOL   H19042056   3.858   5.919   6.939  0.5974 -0.2035  1.7928
  174MOL   H19142057   3.976   6.095   7.325  0.0899 -0.8170 -1.2380
  174MOL   H19242058   4.136   6.102   7.256  0.6771 -1.1709 -1.0606
  174MOL   H19342059   4.084   5.959   7.352 -2.2260 -0.1932  0.3086
  174MOL   C19442060   3.681   5.990   7.052  0.2181 -0.7085 -0.0272
  174MOL   C19542061   3.591   5.883   6.999 -0.6615 -0.2081  0.0364
  174MOL   O19642062   3.558   5.928   6.867  0.0401 -0.6245  0.0695
  174MOL   C19742063   3.438   5.940   6.827  0.2293  0.1108 -0.4088
  174MOL   C19842064   3.433   5.971   6.680  0.5610  0.5403 -0.5170
  174MOL   O19942065   3.338   5.922   6.893  0.0149  0.3296  0.2872
  174MOL   H20042066   3.693   5.954   7.154 -0.3440 -0.6133  0.0742
  174MOL   H20142067   3.628   6.085   7.057  2.7375  0.7692 -0.4362
  174MOL   H20242068   3.510   5.873   7.072  0.1810 -2.4764  0.7162
  174MOL   H20342069   3.426   6.075   6.646  2.8386  0.4507 -1.3576
  174MOL   H20442070   3.349   5.922   6.630  1.1240 -1.5535  0.5370
  174MOL   H20542071   3.499   5.910   6.619 -2.0721 -1.4197 -1.4933
  174MOL   C20642072   3.644   5.732   6.985  0.6084 -0.0839 -0.6513
  174MOL   C20742073   3.651   5.659   7.120 -0.0646  0.1053  0.1638
  174MOL   O20842074   3.522   5.673   7.181 -0.1595  0.0994  0.4189
  174MOL   C20942075   3.505   5.750   7.291  0.2770  0.1594 -0.2869
  174MOL   C21042076   3.360   5.760   7.343  0.5090 -0.0934  0.4171
  174MOL   O21142077   3.597   5.807   7.346 -0.6010  0.4770 -0.5813
  174MOL   H21242078   3.584   5.675   6.915 -0.2422 -1.0717  0.8733
  174MOL   H21342079   3.747   5.729   6.948  1.0199 -1.4652  0.5632
  174MOL   H21442080   3.729   5.707   7.180 -0.2829  2.0075 -1.0509
  174MOL   H21542081   3.314   5.662   7.345  0.4679 -0.0511  3.5869
  174MOL   H21642082   3.298   5.823   7.279 -1.2807  0.3049  2.4907
  174MOL   H21742083   3.358   5.790   7.448 -2.4586 -2.7370  1.1804
  174MOL   C21842084   3.688   5.511   7.122  0.0962 -0.1307  0.5425
  174MOL   C21942085   3.842   5.475   7.147  0.1628  0.2893  0.0964
  174MOL   O22042086   3.922   5.543   7.055  0.0093  0.0175  0.0366
  174MOL   C22142087   3.931   5.508   6.929  0.9103  0.1247  0.0065
  174MOL   C22242088   4.033   5.594   6.857 -0.4791  0.1376  0.5891
  174MOL   O22342089   3.876   5.413   6.870  0.6794  0.8819 -0.4578
  174MOL   H22442090   3.636   5.461   7.204 -1.1691 -0.0044 -0.1563
  174MOL   H22542091   3.660   5.463   7.028 -0.3817  2.4738 -0.7052
  174MOL   H22642092   3.848   5.367   7.131 -0.0036  0.5723 -2.1209
  174MOL   H22742093   4.002   5.632   6.760 -0.4495  0.1868  0.5988
  174MOL   H22842094   4.124   5.544   6.823 -0.2813 -0.4248  1.8716
  174MOL   H22942095   4.064   5.682   6.914  1.4574  1.7518 -2.8343
  174MOL   C23042096   3.896   5.507   7.293 -0.2865  0.0058  0.3754
  174MOL   C23142097   4.044   5.456   7.310  0.0568 -0.2982  0.3103
  174MOL   O23242098   4.062   5.324   7.273 -0.3503  0.3068  0.3291
  174MOL   C23342099   4.019   5.213   7.343  0.0364  0.8190  0.0315
  174MOL   C23442100   4.074   5.083   7.303  0.6005 -0.4057 -0.9428
  174MOL   O23542101   3.946   5.222   7.442  0.9459  0.0048 -0.2198
  174MOL   H23642102   3.891   5.613   7.319 -2.1523  0.1325 -0.3817
  174MOL   H23742103   3.823   5.462   7.361 -1.6578  1.5726 -0.0279
  174MOL   H23842104   4.079   5.463   7.413 -0.7359  2.1335  0.4570
  174MOL   H23942105   4.163   5.095   7.241  2.0284 -0.8067  0.9560
  174MOL   H24042106   4.002   5.008   7.272 -0.0376 -0.2799  0.2130
  174MOL   H24142107   4.135   5.048   7.387  0.0936  0.0102 -0.3998
  174MOL   H24242108   4.108   5.527   7.258  1.0733 -1.8572 -0.6174
  175MOL     C142109   2.613   3.732   2.708 -0.1600 -0.3456 -0.0804
  175MOL     C242110   2.562   3.613   2.781 -0.6631  0.6175 -0.1493
  175MOL     O342111   2.421   3.616   2.777  0.2515  0.6937 -0.3797
  175MOL     C442112   2.354   3.564   2.877 -0.3296 -0.0167  0.7530
  175MOL     C542113   2.200   3.562   2.852 -0.5826  0.7020  0.5774
  175MOL     O642114   2.402   3.516   2.983  0.3448  0.1031  0.3586
  175MOL     H742115   2.594   3.718   2.601 -0.6764  2.5911 -0.4061
  175MOL     H842116   2.721   3.741   2.722  0.1229 -0.2679 -2.0499
  175MOL     H942117   2.606   3.617   2.881  2.3620  0.3565 -1.4214
  175MOL    H1042118   2.172   3.633   2.774 -3.2336 -0.2949  0.5856
  175MOL    H1142119   2.169   3.605   2.947 -2.8081 -1.1480  0.7195
  175MOL    H1242120   2.159   3.464   2.828  0.9087  0.1639  0.1277
  175MOL    H1342121   2.576   3.827   2.747  1.8333  0.2409  0.4465
  175MOL    C1442122   2.631   3.479   2.734  0.3290 -0.2012 -0.4526
  175MOL    C1542123   2.769   3.438   2.802 -0.4785  0.4177  0.3024
  175MOL    O1642124   2.873   3.528   2.768  0.6292  0.1534  0.6983
  175MOL    C1742125   2.939   3.513   2.647 -0.0065  0.5677 -0.2385
  175MOL    C1842126   3.026   3.637   2.618  0.0247 -0.5491  0.2433
  175MOL    O1942127   2.929   3.410   2.570 -0.4041  0.0377 -0.1392
  175MOL    H2042128   2.569   3.397   2.768  1.6775 -0.8123  0.5699
  175MOL    H2142129   2.630   3.483   2.625 -2.7781  0.8928 -0.4253
  175MOL    H2242130   2.801   3.340   2.768  0.4356  0.2653  1.5980
  175MOL    H2342131   3.077   3.614   2.524 -1.5869  2.5623 -1.4596
  175MOL    H2442132   3.083   3.651   2.709 -2.2750  0.2584  1.5963
  175MOL    H2542133   2.961   3.723   2.600 -0.3958 -0.6868  1.0796
  175MOL    C2642134   2.761   3.421   2.955 -0.0292  0.6009  0.4803
  175MOL    C2742135   2.854   3.311   3.018  0.0031  0.6174 -0.4388
  175MOL    O2842136   2.819   3.183   2.958  0.3991  0.6536  0.0239
  175MOL    C2942137   2.757   3.093   3.039 -0.2573 -0.6619 -0.0713
  175MOL    C3042138   2.789   2.951   2.991 -1.3111 -0.6269  0.1374
  175MOL    O3142139   2.671   3.115   3.127  0.3249  0.2066  0.5252
  175MOL    H3242140   2.770   3.520   2.999 -1.0873  1.1767 -0.5678
  175MOL    H3342141   2.657   3.399   2.979 -0.6975  3.8041  0.8093
  175MOL    H3442142   2.839   3.313   3.126 -0.3940  0.3588 -0.4926
  175MOL    H3542143   2.720   2.907   2.919  0.6666 -1.7066 -1.1382
  175MOL    H3642144   2.786   2.893   3.083  2.5718  1.5707  1.7578
  175MOL    H3742145   2.889   2.945   2.948 -1.7268 -0.2148 -0.8990
  175MOL    C3842146   3.003   3.351   2.991 -0.4235 -0.7503  1.1751
  175MOL    C3942147   3.108   3.290   3.085  0.0335  0.6916  0.2939
  175MOL    O4042148   3.238   3.332   3.048 -0.3707 -0.1156  0.1215
  175MOL    C4142149   3.328   3.241   3.023  0.2918  0.0060  0.1161
  175MOL    C4242150   3.450   3.289   2.946  1.0125 -0.5453  0.1828
  175MOL    O4342151   3.312   3.117   3.051  0.2970  0.2427  0.9366
  175MOL    H4442152   3.030   3.335   2.886 -0.7070  0.3414  0.9352
  175MOL    H4542153   3.012   3.459   2.995 -1.4017 -0.6956  1.7981
  175MOL    H4642154   3.096   3.181   3.081 -2.4367  0.9848 -0.6585
  175MOL    H4742155   3.458   3.397   2.956  0.1329 -0.2749 -1.8133
  175MOL    H4842156   3.445   3.261   2.841 -1.8125 -0.3625  0.2379
  175MOL    H4942157   3.544   3.249   2.985  2.4566  0.2623 -2.3478
  175MOL    C5042158   3.100   3.326   3.234  0.1702 -0.4916 -0.1392
  175MOL    C5142159   3.024   3.228   3.324 -0.5820 -0.1011  0.4676
  175MOL    O5242160   3.107   3.116   3.348 -0.3272 -0.2194  0.6273
  175MOL    C5342161   3.066   2.995   3.291  0.0275 -0.7140  0.1327
  175MOL    C5442162   3.164   2.871   3.318 -0.5092  0.3604 -0.2699
  175MOL    O5542163   2.960   2.976   3.227 -0.8078 -0.1749 -0.0409
  175MOL    H5642164   3.200   3.325   3.275  0.1845 -0.8783 -0.1818
  175MOL    H5742165   3.058   3.426   3.246 -0.1304 -0.5277 -0.8537
  175MOL    H5842166   2.927   3.204   3.282 -0.9274  2.2974 -0.2036
  175MOL    H5942167   3.154   2.863   3.427 -0.5248 -2.1885 -0.4331
  175MOL    H6042168   3.268   2.888   3.289 -0.1271 -1.5924 -0.0916
  175MOL    H6142169   3.121   2.782   3.273  1.2465 -0.1034 -1.0660
  175MOL    C6242170   2.982   3.269   3.472  0.4832 -0.0256  0.3023
  175MOL    C6342171   2.898   3.399   3.470 -0.6537  0.2058 -0.0712
  175MOL    O6442172   2.768   3.369   3.420 -0.3268 -0.2330 -0.4740
  175MOL    C6542173   2.716   3.453   3.328  0.6129 -0.0325 -0.6609
  175MOL    C6642174   2.566   3.434   3.319  0.4686 -0.2879  0.2507
  175MOL    O6742175   2.776   3.538   3.256  0.3484  0.2452 -0.2463
  175MOL    H6842176   2.934   3.185   3.520  0.8855 -0.5937 -0.2802
  175MOL    H6942177   3.076   3.282   3.526  0.7947  0.7965 -0.4059
  175MOL    H7042178   2.947   3.471   3.406  1.0134 -0.1569  0.7520
  175MOL    H7142179   2.526   3.512   3.383  0.7520 -0.9717  1.2859
  175MOL    H7242180   2.538   3.336   3.358  0.9087  0.0960  1.5650
  175MOL    H7342181   2.539   3.448   3.215 -1.8918  1.0594  1.0165
  175MOL    C7442182   2.877   3.459   3.610  0.0597  0.2270  0.0648
  175MOL    C7542183   2.800   3.600   3.599  0.2878  0.1957 -0.1199
  175MOL    O7642184   2.716   3.609   3.714 -0.0543  0.0167 -0.4793
  175MOL    C7742185   2.579   3.619   3.705  0.7837 -0.1296 -0.1968
  175MOL    C7842186   2.513   3.623   3.844  0.2899  0.0666  0.3578
  175MOL    O7942187   2.523   3.637   3.601  0.2902 -0.4150 -0.6347
  175MOL    H8042188   2.815   3.402   3.679  1.0577 -1.6338 -0.5382
  175MOL    H8142189   2.975   3.477   3.654  0.1849 -0.1847 -0.0441
  175MOL    H8242190   2.727   3.606   3.518  0.8064 -0.8804 -0.6809
  175MOL    H8342191   2.427   3.556   3.846  0.7432 -0.6536 -1.9571
  175MOL    H8442192   2.483   3.727   3.855  1.6667  0.4937  0.1186
  175MOL    H8542193   2.586   3.593   3.919  0.0291  0.2049  0.6675
  175MOL    C8642194   2.894   3.719   3.579  0.4507  0.0712  0.3360
  175MOL    C8742195   2.847   3.840   3.499  0.1437 -0.4948  0.4847
  175MOL    O8842196   2.746   3.904   3.578 -0.0575 -0.1430 -0.1658
  175MOL    C8942197   2.643   3.963   3.522  0.2628 -0.2456 -0.7649
  175MOL    C9042198   2.543   4.014   3.625  0.3454  0.2302  0.2970
  175MOL    O9142199   2.633   3.986   3.402  0.3953  0.3152 -1.1049
  175MOL    H9242200   2.934   3.738   3.679 -0.8064 -0.2138  0.9095
  175MOL    H9342201   2.976   3.685   3.516 -0.8630 -2.1887 -0.2040
  175MOL    H9442202   2.804   3.814   3.403  0.1434 -0.1955  0.4009
  175MOL    H9542203   2.441   4.013   3.587  0.6914  0.2893 -0.6355
  175MOL    H9642204   2.570   4.120   3.628  0.4168  0.2610 -1.1234
  175MOL    H9742205   2.565   3.972   3.723 -3.3192 -2.2920  0.1186
  175MOL    C9842206   2.960   3.948   3.477 -0.2589  0.7443  0.1881
  175MOL    C9942207   3.071   3.912   3.374 -0.3301  0.8113  0.1514
  175MOL   O10042208   3.024   3.901   3.239  0.1391 -0.1799 -0.2165
  175MOL   C10142209   3.016   3.785   3.180  0.5417  0.3776  0.5680
  175MOL   C10242210   2.937   3.785   3.054 -0.0060 -0.6232 -0.1526
  175MOL   O10342211   3.059   3.676   3.222 -0.0680 -0.6144 -1.0298
  175MOL   H10442212   2.922   4.043   3.439  1.7050  1.6712  0.4956
  175MOL   H10542213   3.004   3.966   3.575  0.1028  2.8726 -0.3467
  175MOL   H10642214   3.123   3.819   3.397 -1.7425 -0.2856 -1.0235
  175MOL   H10742215   2.854   3.714   3.063 -1.9889  1.3238 -2.4381
  175MOL   H10842216   2.983   3.755   2.961 -1.0723 -1.2194 -0.4958
  175MOL   H10942217   2.912   3.889   3.032  2.3858 -0.2180 -1.1003
  175MOL   C11042218   3.172   4.025   3.366 -0.0988  0.7979  0.2762
  175MOL   C11142219   3.250   4.032   3.497 -0.3872  0.0964  0.7467
  175MOL   O11242220   3.304   3.898   3.520 -0.1762  0.0579  0.1043
  175MOL   C11342221   3.274   3.833   3.634 -0.1406 -0.3050 -0.5474
  175MOL   C11442222   3.334   3.694   3.640 -0.2984  0.1903 -0.2154
  175MOL   O11542223   3.197   3.870   3.721  0.2539  0.3075 -0.0095
  175MOL   H11642224   3.231   4.022   3.275  2.1830  0.9005  1.7090
  175MOL   H11742225   3.112   4.116   3.364 -0.2815  0.6494 -0.8362
  175MOL   H11842226   3.188   4.070   3.578  1.3642  1.2597  1.5795
  175MOL   H11942227   3.433   3.682   3.683 -0.5169 -0.1151  0.2049
  175MOL   H12042228   3.343   3.641   3.545  2.4099  1.0083 -0.4584
  175MOL   H12142229   3.265   3.635   3.699 -2.1116  1.4940 -0.9728
  175MOL   C12242230   3.375   4.119   3.487 -0.1285  0.0997 -0.5461
  175MOL   C12342231   3.341   4.270   3.465  0.3003 -0.1924  0.0638
  175MOL   O12442232   3.309   4.344   3.584  0.7020  0.3998 -0.1282
  175MOL   C12542233   3.225   4.449   3.589 -0.2598  0.0513  0.0199
  175MOL   C12642234   3.208   4.499   3.728  0.3345 -0.6940 -0.8277
  175MOL   O12742235   3.152   4.481   3.497 -0.3079 -0.1127 -0.0915
  175MOL   H12842236   3.443   4.110   3.572 -0.5848 -1.8532 -0.3606
  175MOL   H12942237   3.429   4.082   3.401 -2.2821 -2.6668 -0.7699
  175MOL   H13042238   3.250   4.283   3.405  1.0236  0.7736 -0.8372
  175MOL   H13142239   3.303   4.500   3.781  1.8596  0.0099 -3.4910
  175MOL   H13242240   3.142   4.431   3.781 -0.8706  1.2878  0.2957
  175MOL   H13342241   3.164   4.599   3.736  1.5644 -0.0345 -2.0437
  175MOL   C13442242   3.453   4.345   3.400 -0.4918  0.3436 -0.3292
  175MOL   C13542243   3.410   4.433   3.280  0.5309  0.0283 -0.5759
  175MOL   O13642244   3.506   4.533   3.258 -0.0316 -0.1196 -0.0101
  175MOL   C13742245   3.508   4.646   3.328  0.1582 -0.1678  0.3479
  175MOL   C13842246   3.608   4.754   3.283 -0.7859  0.3901  0.5967
  175MOL   O13942247   3.441   4.661   3.426 -0.1088 -0.1893 -0.9666
  175MOL   H14042248   3.502   4.394   3.485 -0.0705  1.5398 -1.2379
  175MOL   H14142249   3.526   4.271   3.367 -0.3245  0.9135 -1.2650
  175MOL   H14242250   3.319   4.488   3.306 -0.8473 -1.3564 -2.3272
  175MOL   H14342251   3.572   4.857   3.281  1.5901  1.2640  1.2524
  175MOL   H14442252   3.646   4.734   3.183  0.6449  1.9791  0.8160
  175MOL   H14542253   3.689   4.760   3.356  0.0905  3.8410 -0.5746
  175MOL   C14642254   3.378   4.347   3.159  0.0864 -0.4827  1.3659
  175MOL   C14742255   3.290   4.418   3.048 -0.3863 -0.1086 -1.3160
  175MOL   O14842256   3.354   4.521   2.986 -0.2126  0.0273  0.3885
  175MOL   C14942257   3.291   4.637   2.950  0.1672  0.2129 -0.4466
  175MOL   C15042258   3.386   4.719   2.868 -0.0226 -0.3927  0.1767
  175MOL   O15142259   3.172   4.667   2.975 -0.1595 -0.2560  0.2804
  175MOL   H15242260   3.476   4.309   3.130  0.7533  2.4065 -0.3610
  175MOL   H15342261   3.326   4.254   3.181  0.0771 -0.0917  3.0189
  175MOL   H15442262   3.199   4.451   3.097 -1.3529 -1.9822 -1.8279
  175MOL   H15542263   3.377   4.823   2.902  0.7608 -0.8403  1.8051
  175MOL   H15642264   3.351   4.706   2.766  0.7160 -1.5375  0.0613
  175MOL   H15742265   3.491   4.694   2.887 -0.0514  2.2270  4.4310
  175MOL   C15842266   3.244   4.309   2.939  0.1404  0.2564 -0.4164
  175MOL   C15942267   3.128   4.210   2.968 -0.1031 -0.4926 -1.0791
  175MOL   O16042268   3.017   4.296   2.983 -0.3398  0.7174  0.1382
  175MOL   C16142269   2.952   4.303   3.106 -0.4727  0.2797  0.0824
  175MOL   C16242270   2.833   4.396   3.097  0.6004  0.2917  0.3574
  175MOL   O16342271   2.995   4.257   3.211 -0.4261 -0.1047  0.4898
  175MOL   H16442272   3.210   4.362   2.849 -0.3733 -0.2792 -0.5399
  175MOL   H16542273   3.331   4.247   2.917  0.8373  1.2297 -0.3959
  175MOL   H16642274   3.159   4.158   3.058  1.5376  3.1776  0.5929
  175MOL   H16742275   2.766   4.383   3.182 -1.6327  0.7504 -1.2682
  175MOL   H16842276   2.766   4.377   3.013 -0.4992 -1.2168  1.5422
  175MOL   H16942277   2.870   4.498   3.099  1.3595  0.0333 -0.4407
  175MOL   C17042278   3.094   4.113   2.852  0.0734 -0.2472 -0.1663
  175MOL   C17142279   3.196   4.017   2.797  0.4554 -0.0777 -0.4067
  175MOL   O17242280   3.215   3.905   2.885 -0.3842 -0.2742 -0.5873
  175MOL   C17342281   3.328   3.862   2.941 -0.0105  0.1650  0.1272
  175MOL   C17442282   3.324   3.728   3.013 -0.6037 -0.1265  0.8327
  175MOL   O17542283   3.433   3.926   2.933 -0.0490  0.2048 -0.8206
  175MOL   H17642284   3.008   4.056   2.885 -1.0629  0.5131 -1.7493
  175MOL   H17742285   3.051   4.171   2.770  0.5426  1.6085  0.8644
  175MOL   H17842286   3.290   4.071   2.804  0.2064  0.1034  1.9158
  175MOL   H17942287   3.370   3.746   3.110  0.4315  0.3231  0.2632
  175MOL   H18042288   3.372   3.651   2.953  2.2855  1.0539  1.5510
  175MOL   H18142289   3.227   3.688   3.044 -0.6443  0.2935  1.2537
  175MOL   C18242290   3.183   3.963   2.652 -0.4109 -0.5006  0.6739
  175MOL   C18342291   3.181   4.078   2.546  0.3802  0.3611 -0.2268
  175MOL   O18442292   3.309   4.139   2.558  0.1393  0.1728 -0.1090
  175MOL   C18542293   3.314   4.275   2.553 -0.0821  0.5210  0.0751
  175MOL   C18642294   3.462   4.333   2.567  1.0054 -0.3535  0.5103
  175MOL   O18742295   3.223   4.356   2.556 -0.2886 -0.1374  0.2339
  175MOL   H18842296   3.255   3.883   2.636  0.4243  0.0856  1.4208
  175MOL   H18942297   3.081   3.925   2.651  0.0737 -1.8294  1.1764
  175MOL   H19042298   3.095   4.143   2.565 -0.7108 -0.5566 -1.8051
  175MOL   H19142299   3.534   4.261   2.526  0.4688 -0.5156 -0.1616
  175MOL   H19242300   3.479   4.342   2.674  2.1972  1.8729  0.1576
  175MOL   H19342301   3.478   4.430   2.520  0.0976 -1.5345 -2.3877
  175MOL   C19442302   3.172   4.019   2.403  0.5935 -0.7910 -0.2928
  175MOL   C19542303   3.035   3.962   2.360  0.3647  0.5475  0.4153
  175MOL   O19642304   2.932   4.059   2.377  0.1721 -0.2781  0.0883
  175MOL   C19742305   2.841   4.037   2.477 -0.4737  0.1736  0.2466
  175MOL   C19842306   2.751   4.157   2.488  0.4054  0.1320  0.4527
  175MOL   O19942307   2.835   3.943   2.551 -0.4242 -0.2545  0.4176
  175MOL   H20042308   3.187   4.097   2.329 -0.1184  1.6692  2.0620
  175MOL   H20142309   3.259   3.955   2.387  2.0605  0.3036  2.8936
  175MOL   H20242310   3.013   3.875   2.421  1.0693  0.8716  1.1225
  175MOL   H20342311   2.683   4.152   2.573  0.7893  0.9288  0.8164
  175MOL   H20442312   2.684   4.169   2.403 -0.5417 -1.7310  0.9034
  175MOL   H20542313   2.812   4.248   2.488  2.3066 -1.0766  2.6762
  175MOL   C20642314   3.044   3.904   2.212  0.1826 -0.3737 -0.2687
  175MOL   C20742315   2.921   3.823   2.164  0.2401 -0.7879  0.1931
  175MOL   O20842316   2.961   3.772   2.041  0.4877 -0.0583  0.4782
  175MOL   C20942317   2.955   3.849   1.924 -0.6035  0.4026  0.8590
  175MOL   C21042318   3.022   3.778   1.805 -0.2486  0.7877  0.1077
  175MOL   O21142319   2.895   3.955   1.914  0.0340 -0.5406  0.3340
  175MOL   H21242320   3.073   3.984   2.144 -0.3050  0.2110  0.1960
  175MOL   H21342321   3.124   3.831   2.211  0.1662 -0.4226  0.8897
  175MOL   H21442322   2.831   3.883   2.149 -0.2874 -1.6276 -0.0425
  175MOL   H21542323   3.063   3.843   1.728  1.3088 -1.7179 -1.2310
  175MOL   H21642324   2.955   3.705   1.759  2.9966 -1.2335 -1.6054
  175MOL   H21742325   3.099   3.720   1.856 -0.0455  0.2897 -0.7563
  175MOL   C21842326   2.889   3.701   2.255 -0.4515 -0.6861 -0.0919
  175MOL   C21942327   2.764   3.619   2.214  0.6804  1.1541  1.0871
  175MOL   O22042328   2.787   3.550   2.092 -0.6745 -0.0535 -0.4850
  175MOL   C22142329   2.729   3.585   1.970  0.3189  0.0795  0.0025
  175MOL   C22242330   2.774   3.499   1.853 -0.0802 -0.1465  0.3411
  175MOL   O22342331   2.646   3.674   1.954 -0.0663  0.2361  0.5744
  175MOL   H22442332   2.982   3.645   2.270  0.2932  0.8750  1.2435
  175MOL   H22542333   2.863   3.745   2.351 -1.1752  0.0110 -0.5993
  175MOL   H22642334   2.684   3.691   2.196  1.1075  1.2381 -0.5267
  175MOL   H22742335   2.759   3.395   1.882 -0.7300 -0.3959 -0.8647
  175MOL   H22842336   2.881   3.520   1.845  0.1758 -1.2777  0.7748
  175MOL   H22942337   2.711   3.522   1.767 -0.0581  0.6490  0.5255
  175MOL   C23042338   2.732   3.506   2.316  0.0770  0.1563 -0.6049
  175MOL   C23142339   2.609   3.425   2.295  1.5199  0.4308 -0.4313
  175MOL   O23242340   2.496   3.491   2.344  0.1245 -0.2559  0.0638
  175MOL   C23342341   2.413   3.435   2.435 -0.4500 -0.0784  0.8264
  175MOL   C23442342   2.290   3.524   2.454 -0.1093 -0.1490  0.2927
  175MOL   O23542343   2.424   3.333   2.505 -0.4991 -0.0293  0.1142
  175MOL   H23642344   2.817   3.438   2.307 -0.3371 -0.2272 -1.7461
  175MOL   H23742345   2.726   3.545   2.418  2.5740 -3.9258  1.2386
  175MOL   H23842346   2.619   3.326   2.340  0.9331  0.3735 -0.4187
  175MOL   H23942347   2.319   3.628   2.438  1.1128 -0.4026  0.8127
  175MOL   H24042348   2.234   3.503   2.544  1.2453  0.2221  1.2384
  175MOL   H24142349   2.225   3.499   2.370  1.8702 -1.5631 -0.8801
  175MOL   H24242350   2.603   3.401   2.189 -2.0448 -1.0442  0.0387
  176MOL     C142351   5.752   7.756   4.988 -0.1328 -0.0734 -0.5954
  176MOL     C242352   5.836   7.644   4.929 -0.2610  0.4406 -1.1579
  176MOL     O342353   5.939   7.697   4.844  0.3663 -0.6390  0.1106
  176MOL     C442354   5.926   7.687   4.714  0.1182  0.5133 -0.0716
  176MOL     C542355   6.040   7.767   4.645  0.1680 -0.5939 -0.3494
  176MOL     O642356   5.840   7.629   4.651 -0.1506  0.7636  0.0022
  176MOL     H742357   5.698   7.800   4.905  0.8296 -1.1582 -1.8300
  176MOL     H842358   5.809   7.828   5.046  0.3935 -0.9108 -0.0719
  176MOL     H942359   5.749   7.602   4.878 -0.5384  0.5971 -0.8112
  176MOL    H1042360   6.019   7.827   4.557  2.7887 -0.5872 -1.0038
  176MOL    H1142361   6.116   7.696   4.612  2.5489  0.4204  2.6774
  176MOL    H1242362   6.095   7.833   4.712 -0.7281 -2.2505  2.0873
  176MOL    H1342363   5.679   7.710   5.054 -1.0011  1.8020 -0.2231
  176MOL    C1442364   5.889   7.548   5.035 -0.3635  0.0157 -0.7543
  176MOL    C1542365   5.897   7.396   4.996  0.6871 -0.5214  0.1457
  176MOL    O1642366   6.025   7.383   4.928 -0.9162  0.4157  0.2908
  176MOL    C1742367   6.031   7.321   4.811 -0.5068  0.2662  0.4770
  176MOL    C1842368   6.163   7.342   4.742  0.1755  0.5101 -0.1984
  176MOL    O1942369   5.942   7.246   4.769 -0.0980  0.0458  0.7179
  176MOL    H2042370   5.986   7.582   5.071  0.2401 -2.2624 -0.1998
  176MOL    H2142371   5.816   7.557   5.116  1.1349 -0.2138  0.6590
  176MOL    H2242372   5.805   7.373   4.942  0.5447 -0.3968  0.3352
  176MOL    H2342373   6.197   7.445   4.739  0.3269  0.5442  1.8281
  176MOL    H2442374   6.150   7.292   4.646 -0.1660  0.2836 -0.0348
  176MOL    H2542375   6.231   7.291   4.810 -1.2811 -1.3719 -0.1125
  176MOL    C2642376   5.914   7.313   5.129  0.1024  0.4133  0.5249
  176MOL    C2742377   5.894   7.160   5.118 -0.0776  0.1770  0.8586
  176MOL    O2842378   5.915   7.101   5.247 -0.4324  0.3012  0.0703
  176MOL    C2942379   5.982   6.972   5.254 -0.1737 -0.7092 -0.1472
  176MOL    C3042380   6.005   6.919   5.398 -0.0573 -0.0969 -0.1454
  176MOL    O3142381   6.026   6.910   5.154 -0.0973  0.2907  0.3268
  176MOL    H3242382   6.008   7.336   5.178  1.7046 -0.6099 -1.9699
  176MOL    H3342383   5.843   7.335   5.209 -0.6651 -2.0820  0.5684
  176MOL    H3442384   5.969   7.119   5.051 -0.2934  0.4536  0.4478
  176MOL    H3542385   6.092   6.854   5.404 -0.1348 -0.0923  1.1551
  176MOL    H3642386   5.919   6.859   5.429 -0.3578 -0.6257 -1.9719
  176MOL    H3742387   6.012   7.007   5.462  0.0223 -0.7458  0.7532
  176MOL    C3842388   5.758   7.108   5.061 -0.3630 -0.1406  0.0578
  176MOL    C3942389   5.637   7.145   5.144 -0.3493  0.0090 -0.1794
  176MOL    O4042390   5.553   7.203   5.045 -0.6357  0.4995 -0.0809
  176MOL    C4142391   5.533   7.336   5.042 -0.3719 -0.3710 -0.9541
  176MOL    C4242392   5.439   7.377   4.928 -0.1769 -0.4160  0.0205
  176MOL    O4342393   5.580   7.421   5.118  0.2672 -0.0853 -0.7310
  176MOL    H4442394   5.762   7.140   4.956  0.3024  1.8155  0.6566
  176MOL    H4542395   5.768   7.001   5.048 -2.5973 -0.5195  1.4123
  176MOL    H4642396   5.668   7.205   5.230 -1.3635  0.4561 -0.1134
  176MOL    H4742397   5.482   7.385   4.828 -0.4540 -1.6577 -0.2151
  176MOL    H4842398   5.402   7.475   4.958  2.1472  0.3177  0.6043
  176MOL    H4942399   5.357   7.305   4.932 -1.8010  1.4764  1.7928
  176MOL    C5042400   5.555   7.030   5.201  0.2035  0.3367  0.0045
  176MOL    C5142401   5.576   6.990   5.348 -0.0708  0.2527 -0.2344
  176MOL    O5242402   5.535   7.099   5.434  0.0675  0.1824 -0.1607
  176MOL    C5342403   5.618   7.150   5.528 -0.6752  0.9301 -0.2673
  176MOL    C5442404   5.558   7.263   5.610 -0.1759 -1.1890  0.3110
  176MOL    O5542405   5.737   7.120   5.546  0.4058 -0.4936  0.4886
  176MOL    H5642406   5.449   7.051   5.185 -0.1470 -0.4070  1.3102
  176MOL    H5742407   5.569   6.944   5.135  0.8221 -0.3423  1.0099
  176MOL    H5842408   5.682   6.980   5.368  0.5626  2.4780 -2.2322
  176MOL    H5942409   5.570   7.357   5.556 -1.1160 -0.7823  0.8014
  176MOL    H6042410   5.613   7.273   5.703  0.8652 -1.3175 -0.2829
  176MOL    H6142411   5.452   7.241   5.625 -0.3345  0.2351  1.2761
  176MOL    C6242412   5.503   6.858   5.374 -0.6380 -0.1222  0.7380
  176MOL    C6342413   5.496   6.809   5.523  0.4667 -0.7608  0.3774
  176MOL    O6442414   5.395   6.875   5.598  0.5214  0.1595 -0.9585
  176MOL    C6542415   5.435   6.932   5.720  0.0682  0.3697 -0.1779
  176MOL    C6642416   5.341   7.040   5.779  0.2812  0.3652  0.3289
  176MOL    O6742417   5.540   6.902   5.775 -0.0128  0.8422 -0.3208
  176MOL    H6842418   5.404   6.857   5.327 -0.2285 -0.1603 -0.1317
  176MOL    H6942419   5.551   6.781   5.313  0.2843  1.3456 -0.4157
  176MOL    H7042420   5.595   6.836   5.559  1.3129 -1.8673 -1.1040
  176MOL    H7142421   5.373   7.079   5.875 -2.1588  0.2086  1.2404
  176MOL    H7242422   5.240   7.004   5.798 -0.0788  1.1885  0.0277
  176MOL    H7342423   5.318   7.123   5.712 -0.5757  0.1279  0.3198
  176MOL    C7442424   5.479   6.654   5.532 -0.6390  0.0600  0.7153
  176MOL    C7542425   5.513   6.579   5.662 -0.4450  0.2822  1.2843
  176MOL    O7642426   5.444   6.453   5.667 -0.0090  0.7301  0.2039
  176MOL    C7742427   5.339   6.434   5.762 -0.0138 -0.0725  0.7466
  176MOL    C7842428   5.286   6.293   5.758  0.5576 -0.1758  0.2745
  176MOL    O7942429   5.281   6.519   5.828 -0.0403  0.1400  0.3659
  176MOL    H8042430   5.390   6.615   5.482 -0.4587  1.4907 -0.7883
  176MOL    H8142431   5.549   6.608   5.462 -0.5609  4.2060 -2.1048
  176MOL    H8242432   5.467   6.633   5.745 -1.1464  0.6414  0.6702
  176MOL    H8342433   5.264   6.279   5.863  2.1250  1.7674  0.8978
  176MOL    H8442434   5.351   6.214   5.722  0.4254  0.0696 -0.5293
  176MOL    H8542435   5.194   6.278   5.702  0.1432  1.5369  0.4702
  176MOL    C8642436   5.661   6.559   5.678 -0.6646  0.0285 -0.1804
  176MOL    C8742437   5.710   6.557   5.825  0.3300  0.5432 -0.7045
  176MOL    O8842438   5.650   6.448   5.906  0.0170 -0.2611  0.2330
  176MOL    C8942439   5.676   6.315   5.870  1.0329  0.3035 -0.4052
  176MOL    C9042440   5.626   6.225   5.978 -0.2811  0.2255 -0.1114
  176MOL    O9142441   5.735   6.268   5.770  0.8739  0.1251 -0.5594
  176MOL    H9242442   5.697   6.470   5.626 -2.1018 -0.5555 -0.1751
  176MOL    H9342443   5.717   6.643   5.635 -2.3220 -0.2975 -3.1326
  176MOL    H9442444   5.672   6.643   5.882  0.6598 -0.6944  1.4536
  176MOL    H9542445   5.689   6.242   6.065  0.2346  0.9186 -0.6141
  176MOL    H9642446   5.632   6.117   5.962  0.9762  0.3010 -0.1971
  176MOL    H9742447   5.521   6.239   6.004  0.0614  3.2743 -0.2307
  176MOL    C9842448   5.858   6.567   5.842 -0.3174 -0.5586 -0.2116
  176MOL    C9942449   5.916   6.669   5.942 -0.4006  0.1465  0.2849
  176MOL   O10042450   6.049   6.652   5.964 -0.0142 -0.0894  0.2704
  176MOL   C10142451   6.092   6.581   6.072 -0.5110 -0.8602  0.0292
  176MOL   C10242452   6.237   6.528   6.060 -0.1316  0.3722  0.3792
  176MOL   O10342453   6.024   6.566   6.174 -0.1465  0.1756  0.3772
  176MOL   H10442454   5.913   6.475   5.861  1.5481  0.0172 -2.5905
  176MOL   H10542455   5.893   6.590   5.741  2.9964 -3.1524  0.2795
  176MOL   H10642456   5.861   6.646   6.034  0.3776  1.5143  1.1155
  176MOL   H10742457   6.271   6.536   5.956 -2.6404  0.3699 -0.4731
  176MOL   H10842458   6.237   6.422   6.086  0.9284  0.8283  2.2834
  176MOL   H10942459   6.300   6.583   6.129 -1.7726  1.5534  0.9446
  176MOL   C11042460   5.902   6.808   5.886  0.2274 -0.1101 -0.8785
  176MOL   C11142461   5.916   6.928   5.987  0.5077  0.1654 -0.3666
  176MOL   O11242462   5.897   7.046   5.906 -0.1966  0.6946  0.1786
  176MOL   C11342463   5.997   7.132   5.885 -0.0398 -0.6467  0.4859
  176MOL   C11442464   5.955   7.262   5.807 -0.8961  0.1111  0.3047
  176MOL   O11542465   6.115   7.120   5.915  0.0358  0.0802 -0.3793
  176MOL   H11642466   5.963   6.808   5.795 -1.1293 -0.3717 -1.7892
  176MOL   H11742467   5.799   6.827   5.856 -0.8110  0.3671  2.8000
  176MOL   H11842468   6.015   6.921   6.031  0.8425 -1.7587 -1.3632
  176MOL   H11942469   5.851   7.260   5.774  0.0091 -0.2034 -2.7739
  176MOL   H12042470   6.011   7.271   5.713  0.3046 -0.6639  0.9384
  176MOL   H12142471   5.969   7.358   5.857  0.5026 -0.0045  0.1606
  176MOL   C12242472   5.817   6.941   6.109  0.8286 -0.9228 -0.1333
  176MOL   C12342473   5.859   7.050   6.214 -0.0095 -1.5260 -1.1582
  176MOL   O12442474   5.750   7.124   6.239  0.7325  0.2743 -0.0849
  176MOL   C12542475   5.721   7.231   6.163  0.4374 -0.1283  0.3643
  176MOL   C12642476   5.590   7.296   6.197  0.4586  0.5420  0.2213
  176MOL   O12742477   5.799   7.279   6.084  0.2339  0.2657 -0.1355
  176MOL   H12842478   5.716   6.955   6.071  1.3606  1.7642 -0.6533
  176MOL   H12942479   5.804   6.843   6.155 -1.9813  0.1076  1.3540
  176MOL   H13042480   5.943   7.114   6.190 -1.7129  0.6694 -1.4364
  176MOL   H13142481   5.512   7.234   6.152  0.4468  1.0475 -0.4612
  176MOL   H13242482   5.570   7.395   6.158 -2.4859  1.5188  3.9277
  176MOL   H13342483   5.572   7.295   6.305 -2.8737 -0.3233 -0.2724
  176MOL   C13442484   5.890   6.973   6.346  0.3549  0.1085  0.3138
  176MOL   C13542485   6.023   6.883   6.347  0.7260  0.2339  0.1019
  176MOL   O13642486   6.135   6.972   6.342 -0.2756  0.2642 -0.2492
  176MOL   C13742487   6.226   6.938   6.252 -0.3796  1.3772 -0.1624
  176MOL   C13842488   6.356   7.016   6.266 -0.1855  0.2013  0.1504
  176MOL   O13942489   6.216   6.862   6.157  0.0339  0.6293  0.5347
  176MOL   H14042490   5.879   7.026   6.441 -0.2675 -1.9019  1.3878
  176MOL   H14142491   5.816   6.898   6.371 -1.5013  1.8715  0.2173
  176MOL   H14242492   6.010   6.808   6.270  1.3998 -1.4421  1.5673
  176MOL   H14342493   6.341   7.100   6.334 -0.2279  0.1843  0.1636
  176MOL   H14442494   6.384   7.066   6.173 -2.0697 -0.5367 -0.8392
  176MOL   H14542495   6.435   6.957   6.313 -0.3293  0.4543  0.7168
  176MOL   C14642496   6.042   6.820   6.487  0.0870 -0.2098 -0.3798
  176MOL   C14742497   6.141   6.703   6.491 -0.1176 -0.3948  0.2082
  176MOL   O14842498   6.238   6.739   6.597 -0.6549  0.0318  0.1056
  176MOL   C14942499   6.366   6.768   6.568 -0.0477  0.4825 -0.4874
  176MOL   C15042500   6.440   6.836   6.683 -0.2627 -1.0568 -0.2293
  176MOL   O15142501   6.428   6.748   6.462  0.0227 -0.5725 -0.9374
  176MOL   H15242502   6.057   6.900   6.559  0.5822  0.3715 -1.1251
  176MOL   H15342503   5.949   6.779   6.528  0.9587 -0.9755  0.8553
  176MOL   H15442504   6.197   6.702   6.398  1.9364 -1.8566  1.3971
  176MOL   H15542505   6.389   6.841   6.780 -0.1466 -0.0565 -0.2140
  176MOL   H15642506   6.443   6.943   6.662  1.4719 -0.7247  1.5472
  176MOL   H15742507   6.542   6.805   6.706 -0.2464 -1.5823 -1.0208
  176MOL   C15842508   6.071   6.567   6.504 -0.2012 -0.3559  0.5964
  176MOL   C15942509   6.160   6.441   6.504  0.7214 -0.1513  0.1224
  176MOL   O16042510   6.256   6.450   6.610 -0.4974 -0.1410  0.3596
  176MOL   C16142511   6.378   6.398   6.593  0.3459 -0.6197  0.2893
  176MOL   C16242512   6.484   6.453   6.690 -0.0356 -0.0043  0.1394
  176MOL   O16342513   6.410   6.326   6.498  0.1031  0.6401 -0.1320
  176MOL   H16442514   6.011   6.560   6.594 -0.9163  1.6156  0.3074
  176MOL   H16542515   5.996   6.561   6.425  1.2268 -0.8768 -0.7352
  176MOL   H16642516   6.212   6.434   6.408  1.4421 -0.3698  0.5225
  176MOL   H16742517   6.525   6.550   6.662 -1.4264  1.0854  1.7662
  176MOL   H16842518   6.558   6.377   6.718 -2.0276 -1.6426  1.1215
  176MOL   H16942519   6.418   6.487   6.770  0.2314  2.6349 -0.7197
  176MOL   C17042520   6.078   6.309   6.532 -0.2674  0.0935  0.7412
  176MOL   C17142521   6.008   6.248   6.402 -0.2965 -0.2453  0.0446
  176MOL   O17242522   5.903   6.320   6.357 -0.4160  0.2058 -0.2672
  176MOL   C17342523   5.786   6.329   6.421 -0.1313  0.1328  0.3455
  176MOL   C17442524   5.676   6.394   6.333 -0.2198  0.2782 -0.3626
  176MOL   O17542525   5.751   6.299   6.533  0.3801  0.0836 -0.3641
  176MOL   H17642526   6.141   6.227   6.566  0.0042 -0.4229 -0.9530
  176MOL   H17742527   6.001   6.325   6.607 -0.4315  0.9474  0.4010
  176MOL   H17842528   5.982   6.146   6.429 -0.2677 -0.0916  0.6541
  176MOL   H17942529   5.610   6.457   6.393 -0.6561 -0.8079  0.3186
  176MOL   H18042530   5.642   6.308   6.275 -1.8884  0.7195 -0.0658
  176MOL   H18142531   5.721   6.467   6.267 -0.2799 -0.2988 -1.0535
  176MOL   C18242532   6.117   6.245   6.292 -0.6715  0.4029  0.2114
  176MOL   C18342533   6.096   6.139   6.180  0.0719 -0.3804  0.0405
  176MOL   O18442534   6.173   6.188   6.063 -0.1012 -0.0595 -0.3096
  176MOL   C18542535   6.118   6.177   5.942 -0.1204 -0.6659 -0.5511
  176MOL   C18642536   6.206   6.234   5.837 -0.0917 -0.1929 -0.4742
  176MOL   O18742537   6.002   6.143   5.918  0.4094  0.0916  0.4101
  176MOL   H18842538   6.119   6.345   6.247 -0.4602  0.0950 -0.4630
  176MOL   H18942539   6.211   6.219   6.341  0.5010  0.0552 -2.1184
  176MOL   H19042540   5.991   6.131   6.154  0.6623 -2.2677 -1.8625
  176MOL   H19142541   6.192   6.163   5.756 -0.3547 -1.4323  0.6353
  176MOL   H19242542   6.307   6.244   5.877 -0.2042  1.5709 -0.5806
  176MOL   H19342543   6.165   6.329   5.803  2.2447  1.3216  0.8166
  176MOL   C19442544   6.144   5.990   6.202 -0.1687  0.0818 -0.2072
  176MOL   C19542545   6.039   5.914   6.284  0.1630 -0.1708 -0.3255
  176MOL   O19642546   5.917   5.895   6.217  0.1216 -0.3364  0.1948
  176MOL   C19742547   5.809   5.946   6.275  0.2248  0.2376  0.1100
  176MOL   C19842548   5.691   5.939   6.178  0.5939 -0.1845  0.1748
  176MOL   O19942549   5.801   5.981   6.397 -0.0487 -0.2572 -0.0802
  176MOL   H20042550   6.162   5.952   6.101  0.2028  1.0761 -0.5252
  176MOL   H20142551   6.246   5.989   6.241 -0.1945  0.7951 -0.1220
  176MOL   H20242552   6.022   5.977   6.371 -0.2044 -1.6166  0.6597
  176MOL   H20342553   5.614   5.869   6.212 -0.2891  2.2303  3.2964
  176MOL   H20442554   5.736   5.912   6.082  0.7521  0.4106  0.0821
  176MOL   H20542555   5.644   6.036   6.161  0.5145 -0.8873 -4.3810
  176MOL   C20642556   6.089   5.777   6.343  0.6147  0.4965 -0.3674
  176MOL   C20742557   5.985   5.698   6.427  0.1483  0.3260 -0.3503
  176MOL   O20842558   5.921   5.606   6.339 -0.1510  0.4095 -0.4769
  176MOL   C20942559   5.791   5.563   6.349  1.3438 -0.0549  0.7175
  176MOL   C21042560   5.757   5.443   6.264 -0.0754  0.3273 -0.1982
  176MOL   O21142561   5.699   5.610   6.423 -0.5339 -0.0055  0.0058
  176MOL   H21242562   6.140   5.715   6.269 -0.2070  0.2213 -0.7121
  176MOL   H21342563   6.161   5.801   6.421 -0.2867  0.4945  0.4703
  176MOL   H21442564   5.910   5.769   6.462  0.2505 -0.2346  1.0297
  176MOL   H21542565   5.650   5.433   6.278 -0.1044  0.0389 -0.6467
  176MOL   H21642566   5.812   5.362   6.312  0.4997 -0.0577 -1.5094
  176MOL   H21742567   5.775   5.448   6.157 -1.4418 -3.6216 -0.6927
  176MOL   C21842568   6.043   5.623   6.546  0.7469  0.3166  0.0027
  176MOL   C21942569   6.101   5.700   6.665 -0.2241 -0.0397  0.3328
  176MOL   O22042570   6.019   5.803   6.707  0.2140 -0.7783  0.4311
  176MOL   C22142571   6.046   5.930   6.674  0.3004  0.0130  0.1362
  176MOL   C22242572   5.928   6.018   6.720 -0.4220 -0.2462  0.0421
  176MOL   O22342573   6.147   5.974   6.613  0.7334 -0.0721 -0.1103
  176MOL   H22442574   5.975   5.542   6.576 -0.2725  0.0044 -2.9519
  176MOL   H22542575   6.127   5.567   6.505 -2.0741 -2.5837 -2.1126
  176MOL   H22642576   6.202   5.727   6.632 -1.1501 -0.3190 -2.9522
  176MOL   H22742577   5.959   6.099   6.787  2.0636 -0.4825 -0.7585
  176MOL   H22842578   5.853   5.961   6.774  0.3566 -1.1591  0.1743
  176MOL   H22942579   5.883   6.064   6.632  0.0274 -0.5584 -0.3575
  176MOL   C23042580   6.120   5.603   6.785 -0.0651 -0.6973 -0.8413
  176MOL   C23142581   6.184   5.675   6.912 -0.3864 -0.1976 -0.7383
  176MOL   O23242582   6.201   5.567   7.004 -0.3044 -0.1853 -0.3296
  176MOL   C23342583   6.238   5.607   7.134  0.4056 -0.2037 -0.6497
  176MOL   C23442584   6.247   5.495   7.232  0.2276 -0.4639 -0.1862
  176MOL   O23542585   6.274   5.721   7.167 -0.4519 -0.5037 -0.1120
  176MOL   H23642586   6.027   5.551   6.806  0.1801 -2.4419 -3.7561
  176MOL   H23742587   6.194   5.531   6.750  1.2620  1.3207 -2.3183
  176MOL   H23842588   6.125   5.754   6.958  0.6095 -1.4369  2.8755
  176MOL   H23942589   6.345   5.449   7.224  0.8059  0.5116  1.2208
  176MOL   H24042590   6.172   5.418   7.211 -3.8565  3.7527 -1.9042
  176MOL   H24142591   6.247   5.528   7.335 -0.5694 -0.4950 -0.1674
  176MOL   H24242592   6.277   5.727   6.891  0.5912 -0.9380  1.6005
  177MOL     C142593   6.318   7.118   5.339  0.1231  0.2974 -0.0319
  177MOL     C242594   6.296   7.270   5.386  0.0710  0.8758  0.1733
  177MOL     O342595   6.288   7.346   5.263 -0.3515 -0.6733 -0.0606
  177MOL     C442596   6.358   7.460   5.250  0.5833  0.0290  0.3239
  177MOL     C542597   6.328   7.534   5.125  0.4256 -0.4316  0.9508
  177MOL     O642598   6.446   7.499   5.324  0.0246 -0.0113 -0.1463
  177MOL     H742599   6.242   7.079   5.272 -0.4657  0.9638  0.2377
  177MOL     H842600   6.326   7.053   5.426  0.3609 -1.3221 -1.2617
  177MOL     H942601   6.378   7.306   5.448 -0.4118  1.0238  0.7382
  177MOL    H1042602   6.338   7.480   5.031  1.6437  1.7383 -0.2174
  177MOL    H1142603   6.390   7.623   5.117 -0.9300  0.4148 -0.6033
  177MOL    H1242604   6.231   7.583   5.110  1.5763  1.9867  1.1447
  177MOL    H1342605   6.411   7.111   5.283  0.7704  0.0007  1.0711
  177MOL    C1442606   6.176   7.308   5.473  0.2697  0.1444 -0.1125
  177MOL    C1542607   6.174   7.455   5.517  0.4244  0.2304 -0.1966
  177MOL    O1642608   6.038   7.484   5.567 -0.5785 -0.6552  0.4557
  177MOL    C1742609   5.952   7.554   5.489 -0.4303 -0.3644 -0.5245
  177MOL    C1842610   5.815   7.581   5.541  0.7471  0.6307 -0.1507
  177MOL    O1942611   5.978   7.587   5.372  0.8015 -0.0721  1.1133
  177MOL    H2042612   6.084   7.291   5.417 -1.2585  0.7621  2.1258
  177MOL    H2142613   6.179   7.242   5.560  1.8444 -1.1855 -1.1468
  177MOL    H2242614   6.190   7.512   5.426 -4.2736  0.8364 -0.8018
  177MOL    H2342615   5.774   7.488   5.581 -0.7807  1.2687 -0.2049
  177MOL    H2442616   5.754   7.608   5.455  0.1678  1.9657  0.6607
  177MOL    H2542617   5.809   7.661   5.614  3.1068  1.0121 -0.3441
  177MOL    C2642618   6.278   7.502   5.621 -0.1175 -0.2511 -0.2987
  177MOL    C2742619   6.286   7.656   5.641  0.0062 -0.0564 -0.5281
  177MOL    O2842620   6.353   7.676   5.764  0.4330  0.4455  0.5486
  177MOL    C2942621   6.279   7.713   5.868  0.0580 -0.2842 -0.1308
  177MOL    C3042622   6.363   7.754   5.990 -0.0192  0.6234  0.3696
  177MOL    O3142623   6.159   7.709   5.877 -0.0576  0.6762  0.5355
  177MOL    H3242624   6.255   7.457   5.718  0.2838  0.4846  0.1397
  177MOL    H3342625   6.378   7.476   5.588  0.1711  0.5862 -0.0903
  177MOL    H3442626   6.190   7.707   5.644  0.9222  1.7160 -0.3055
  177MOL    H3542627   6.440   7.680   6.014  0.1540  0.9583  0.8494
  177MOL    H3642628   6.290   7.760   6.071  0.3074  3.0126  0.5117
  177MOL    H3742629   6.406   7.851   5.966  0.5611  0.0065 -1.1226
  177MOL    C3842630   6.355   7.731   5.525 -0.2883  0.2327  0.7591
  177MOL    C3942631   6.338   7.884   5.532 -0.5813  1.0807 -0.2740
  177MOL    O4042632   6.466   7.943   5.510 -0.1006  0.5606 -0.3908
  177MOL    C4142633   6.547   7.979   5.615 -0.3163  0.1880  0.1923
  177MOL    C4242634   6.690   8.021   5.565 -0.3274  0.0631  0.2541
  177MOL    O4342635   6.515   7.981   5.736  0.4442  0.1408  0.0087
  177MOL    H4442636   6.460   7.700   5.532  0.0404  0.8327 -1.2228
  177MOL    H4542637   6.303   7.704   5.433 -1.3006 -0.1933  1.4479
  177MOL    H4642638   6.293   7.909   5.628 -1.2147  0.7371 -0.4746
  177MOL    H4742639   6.752   7.933   5.582 -2.2366 -1.5812 -1.0769
  177MOL    H4842640   6.731   0.078   5.629 -1.7114 -0.6864  2.1090
  177MOL    H4942641   6.700   0.027   5.460  2.5529  2.4428  1.0742
  177MOL    C5042642   6.226   7.933   5.440  0.0412  0.2404  0.6457
  177MOL    C5142643   6.209   0.063   5.427 -0.4848 -0.2822  0.0659
  177MOL    O5242644   6.320   0.133   5.379 -0.2328 -0.0715  0.8250
  177MOL    C5342645   6.344   0.247   5.427  0.3195 -0.3198 -0.2111
  177MOL    C5442646   6.473   0.300   5.361 -0.3179  0.0845 -0.1375
  177MOL    O5542647   6.281   0.313   5.506 -0.3048  0.0381  0.1773
  177MOL    H5642648   6.240   7.895   5.339 -0.8486 -1.1194  1.0185
  177MOL    H5742649   6.134   7.884   5.472 -0.7528  0.1565 -1.6495
  177MOL    H5842650   6.184   0.093   5.529 -2.8078 -2.1613  0.1005
  177MOL    H5942651   6.535   0.335   5.443 -2.5160  0.8237  1.2654
  177MOL    H6042652   6.469   0.367   5.275  0.1637 -0.3261 -0.4812
  177MOL    H6142653   6.524   0.215   5.316 -3.3610 -1.0489 -1.5847
  177MOL    C6242654   6.093   0.096   5.337  0.3988  0.0172  0.2973
  177MOL    C6342655   5.952   0.046   5.381 -0.2810  0.3996 -0.1268
  177MOL    O6442656   5.907   0.134   5.483 -0.5531  0.5240  0.1090
  177MOL    C6542657   5.824   0.093   5.569  0.3004 -0.2562  0.2043
  177MOL    C6642658   5.791   0.210   5.661  0.6636  0.0344  0.6569
  177MOL    O6742659   5.774   8.002   5.578 -0.3005  0.1965  0.0744
  177MOL    H6842660   6.079   0.203   5.331 -0.2671 -0.1238 -0.7475
  177MOL    H6942661   6.115   0.063   5.236  0.4294  1.3028 -0.1095
  177MOL    H7042662   5.962   7.965   5.415 -1.6595  0.3179  0.0524
  177MOL    H7142663   5.861   0.293   5.655 -0.0370  0.8339  3.0536
  177MOL    H7242664   5.795   0.184   5.767 -2.6998 -0.0880  0.8114
  177MOL    H7342665   5.686   0.237   5.646  0.9154  1.7182  1.8730
  177MOL    C7442666   5.860   0.049   5.261  0.4965  0.3677 -0.0380
  177MOL    C7542667   5.833   0.185   5.188 -0.4107 -0.4721 -0.2633
  177MOL    O7642668   5.739   0.155   5.075  0.0337 -0.3335  0.2537
  177MOL    C7742669   5.784   0.138   4.957  0.2466 -0.1805  0.0231
  177MOL    C7842670   5.686   0.077   4.863  0.2338 -0.5730 -0.0981
  177MOL    O7942671   5.899   0.162   4.928  0.0345  0.2331  0.3506
  177MOL    H8042672   5.912   8.018   5.181  1.7104 -0.5538  1.3296
  177MOL    H8142673   5.764   0.005   5.284  1.2082 -1.7627 -0.9845
  177MOL    H8242674   5.925   0.231   5.150 -0.0985  0.0616  1.0894
  177MOL    H8342675   5.595   0.045   4.914  0.7486 -1.0296  0.5317
  177MOL    H8442676   5.734   8.009   4.823  2.8848  0.7718 -0.0574
  177MOL    H8542677   5.655   0.148   4.787  0.5047  1.8947  2.0534
  177MOL    C8642678   5.752   0.294   5.264 -0.3723  0.0187 -0.6026
  177MOL    C8742679   5.851   0.407   5.315 -0.3161  0.5927  0.3140
  177MOL    O8842680   5.896   0.477   5.196  0.0840  0.2933 -0.8545
  177MOL    C8942681   6.014   0.465   5.144  0.4272 -0.7364  1.1707
  177MOL    C9042682   6.030   0.550   5.026 -0.2504  0.7202  0.0339
  177MOL    O9142683   6.106   0.393   5.186 -0.4146 -0.1476 -0.1981
  177MOL    H9242684   5.691   0.352   5.194 -0.5889 -1.2695 -1.5055
  177MOL    H9342685   5.694   0.249   5.344 -1.6335  2.2036 -0.2437
  177MOL    H9442686   5.925   0.365   5.383  1.7777  1.6119 -1.2686
  177MOL    H9542687   6.113   0.617   5.048  0.6102 -0.4546  0.4459
  177MOL    H9642688   5.934   0.598   5.010 -0.6370  0.8939  2.5960
  177MOL    H9742689   6.047   0.491   4.936  1.5854 -1.0194  1.4667
  177MOL    C9842690   5.763   0.500   5.400 -0.5996 -0.1153  0.4416
  177MOL    C9942691   5.842   0.616   5.475 -0.2298 -0.5508 -0.4279
  177MOL   O10042692   5.955   0.569   5.536  0.2123  0.1829  0.0884
  177MOL   C10142693   5.968   0.569   5.676  0.1170  0.0447 -1.0448
  177MOL   C10242694   6.100   0.510   5.728 -0.0695  0.2608  0.7373
  177MOL   O10342695   5.891   0.616   5.755  0.5838  0.3201  0.0171
  177MOL   H10442696   5.674   0.541   5.352 -0.7890 -0.1212  0.7903
  177MOL   H10542697   5.725   0.443   5.484 -1.6037 -1.7376 -1.0743
  177MOL   H10642698   5.774   0.650   5.553 -0.0157 -0.9658 -0.0608
  177MOL   H10742699   6.188   0.531   5.667  0.6025  1.4749  2.0906
  177MOL   H10842700   6.111   0.402   5.739 -1.4460  0.2101  1.8066
  177MOL   H10942701   6.133   0.558   5.820  2.0950  0.3557 -0.0593
  177MOL   C11042702   5.874   0.731   5.383 -0.3106 -0.3328  0.7017
  177MOL   C11142703   5.850   0.874   5.448 -0.0606 -0.2039  0.3270
  177MOL   O11242704   5.921   0.885   5.581  0.4383  0.3663 -0.1826
  177MOL   C11342705   5.869   0.954   5.679 -0.1782 -0.0352  0.6428
  177MOL   C11442706   5.965   0.965   5.793 -0.4445 -0.5161 -0.5103
  177MOL   O11542707   5.763   1.015   5.676 -0.4608 -0.2911  1.0317
  177MOL   H11642708   5.972   0.718   5.338  0.2842  0.9391  1.5915
  177MOL   H11742709   5.801   0.721   5.302  0.5130  0.4055 -0.1329
  177MOL   H11842710   5.742   0.878   5.462 -0.2160  0.9449 -1.1611
  177MOL   H11942711   6.070   0.956   5.764  0.1478 -1.7153  1.9310
  177MOL   H12042712   5.949   0.894   5.873  0.9223  2.9148  2.9717
  177MOL   H12142713   5.950   1.063   5.840 -0.2137  0.4385 -2.3747
  177MOL   C12242714   5.879   0.998   5.363  0.4782 -0.9830 -0.0296
  177MOL   C12342715   5.816   1.003   5.229 -0.0286  0.4605  0.3537
  177MOL   O12442716   5.674   0.997   5.233 -0.2348  0.9559 -0.4305
  177MOL   C12542717   5.610   0.901   5.158 -1.0027 -0.2621 -0.0105
  177MOL   C12642718   5.460   0.909   5.177 -0.1788 -0.8823 -0.4992
  177MOL   O12742719   5.658   0.811   5.087  0.7061 -0.0914 -0.2706
  177MOL   H12842720   5.849   1.082   5.426  3.9029 -1.0519  1.8215
  177MOL   H12942721   5.988   1.005   5.357  0.4948 -1.6366 -0.6518
  177MOL   H13042722   5.854   0.912   5.183 -0.3713 -1.2754  3.3642
  177MOL   H13142723   5.433   1.014   5.184  0.7242 -0.5658 -1.6224
  177MOL   H13242724   5.427   0.864   5.270 -0.9848 -0.2518 -0.4686
  177MOL   H13342725   5.407   0.874   5.088 -0.3129  1.2869 -1.3055
  177MOL   C13442726   5.856   1.125   5.154  0.1161  0.6443  0.4939
  177MOL   C13542727   5.908   1.099   5.010 -0.6325 -0.4533 -0.5044
  177MOL   O13642728   5.952   1.221   4.953 -0.1734 -0.5444 -0.5007
  177MOL   C13742729   5.923   1.249   4.823 -0.0226 -0.2984 -0.1616
  177MOL   C13842730   5.963   1.386   4.778 -0.2294 -0.4786 -0.0255
  177MOL   O13942731   5.870   1.172   4.744  0.3643 -0.2540 -0.8760
  177MOL   H14042732   5.767   1.184   5.135  0.3070  0.5286 -0.8103
  177MOL   H14142733   5.936   1.178   5.207  1.3434 -0.5817 -0.0826
  177MOL   H14242734   5.816   1.072   4.958 -0.2731  0.4653 -1.6291
  177MOL   H14342735   5.887   1.457   4.812  0.4215  0.3384 -0.2523
  177MOL   H14442736   5.963   1.390   4.669 -1.0455 -0.3345 -0.0255
  177MOL   H14542737   6.063   1.419   4.805 -1.2317  0.6861  2.3986
  177MOL   C14642738   6.026   0.994   4.992 -0.8025 -0.8749  0.3789
  177MOL   C14742739   6.155   1.025   5.068 -0.3429 -0.1969  0.7139
  177MOL   O14842740   6.241   0.910   5.088 -0.2028  0.2790  0.1543
  177MOL   C14942741   6.246   0.837   5.197 -0.2074 -0.4938 -0.3095
  177MOL   C15042742   6.364   0.739   5.203  0.8146  0.2296 -0.1121
  177MOL   O15142743   6.186   0.867   5.302 -0.6122 -0.0475 -0.1371
  177MOL   H15242744   5.984   0.902   5.033  3.7259 -3.2903 -0.1307
  177MOL   H15342745   6.040   0.982   4.885 -1.0956 -0.3423  0.2768
  177MOL   H15442746   6.134   1.061   5.169 -0.3300  4.2075 -0.7500
  177MOL   H15542747   6.323   0.643   5.235 -1.5190  1.1726 -0.1557
  177MOL   H15642748   6.444   0.768   5.270 -0.4713 -0.0981  1.6158
  177MOL   H15742749   6.407   0.733   5.103 -0.2811 -0.3475 -0.5609
  177MOL   C15842750   6.241   1.141   5.021  0.4698  0.0163  0.2684
  177MOL   C15942751   6.350   1.173   5.125 -0.1212 -0.7463 -0.4357
  177MOL   O16042752   6.461   1.238   5.059  0.9928  0.1109 -1.0372
  177MOL   C16142753   6.553   1.156   5.001  0.2772 -0.1628 -0.0644
  177MOL   C16242754   6.660   1.234   4.927  0.0171  0.2266  0.0824
  177MOL   O16342755   6.558   1.034   5.011  0.3636  0.2525 -0.2632
  177MOL   H16442756   6.298   1.115   4.932  0.3316 -0.4073  0.3051
  177MOL   H16542757   6.183   1.230   4.999  1.3039  0.6624  0.6341
  177MOL   H16642758   6.389   1.079   5.162  0.4974 -0.4028 -0.2108
  177MOL   H16742759   6.673   1.329   4.978  0.6579 -0.6321  1.5602
  177MOL   H16842760   6.633   1.257   4.824  1.9983  1.4973 -0.1712
  177MOL   H16942761   6.752   1.176   4.927  0.0236  0.2302  1.1039
  177MOL   C17042762   6.293   1.262   5.238  0.0273  0.4494  0.2724
  177MOL   C17142763   6.366   1.239   5.369  0.0893  0.1396 -0.0531
  177MOL   O17242764   6.505   1.254   5.366 -0.0851  0.4226 -0.2711
  177MOL   C17342765   6.587   1.144   5.374 -0.2107 -1.0595 -0.5858
  177MOL   C17442766   6.739   1.172   5.374  0.9039 -0.5105 -0.1734
  177MOL   O17542767   6.546   1.032   5.377 -0.4382  0.6630  0.3069
  177MOL   H17642768   6.295   1.368   5.210  0.5832  0.3882  0.0635
  177MOL   H17742769   6.187   1.252   5.260 -0.4619  0.4365 -1.9143
  177MOL   H17842770   6.350   1.134   5.392  0.8836 -0.3756 -1.7781
  177MOL   H17942771   6.791   1.094   5.319  2.0861 -0.2140  0.5109
  177MOL   H18042772   6.775   1.193   5.474 -1.8715  2.1202  0.3777
  177MOL   H18142773   6.749   1.270   5.327  1.2319  0.3245  1.6150
  177MOL   C18242774   6.320   1.324   5.487 -0.4794 -0.0364  0.6127
  177MOL   C18342775   6.376   1.299   5.633  0.6650 -0.2917  0.2816
  177MOL   O18442776   6.304   1.379   5.732 -0.0033 -0.2927  0.5081
  177MOL   C18542777   6.350   1.499   5.764  0.2418  0.2515 -0.1090
  177MOL   C18642778   6.259   1.578   5.865 -0.5976  0.0429  0.0441
  177MOL   O18742779   6.450   1.560   5.723 -0.9613  0.2035 -0.0129
  177MOL   H18842780   6.330   1.430   5.467 -0.3008  0.1158  1.5184
  177MOL   H18942781   6.212   1.312   5.485 -0.4384 -0.5469  1.3751
  177MOL   H19042782   6.484   1.317   5.630  0.5117  0.3696 -1.5983
  177MOL   H19142783   6.262   1.534   5.965 -0.0044  0.8365  0.3830
  177MOL   H19242784   6.155   1.594   5.837 -0.3456 -0.9757 -1.4945
  177MOL   H19342785   6.298   1.679   5.879  2.1243 -1.1689  1.5948
  177MOL   C19442786   6.356   1.156   5.683 -0.2170 -0.1662 -0.8577
  177MOL   C19542787   6.398   1.123   5.829  0.2509 -0.2386 -1.0136
  177MOL   O19642788   6.308   1.177   5.932 -0.8879 -0.3705 -0.1190
  177MOL   C19742789   6.361   1.214   6.053  0.3703 -0.5473  0.3606
  177MOL   C19842790   6.244   1.260   6.139 -0.2865 -0.1699 -0.2545
  177MOL   O19942791   6.477   1.217   6.086 -0.1808 -0.2143  0.1652
  177MOL   H20042792   6.252   1.124   5.681 -1.0179  2.0287  2.3128
  177MOL   H20142793   6.417   1.088   5.623 -1.6036 -0.6241 -1.7842
  177MOL   H20242794   6.497   1.157   5.859 -1.3269  1.3979  2.5328
  177MOL   H20342795   6.244   1.368   6.121  1.8126  0.1574  1.4705
  177MOL   H20442796   6.273   1.240   6.242  0.0894  2.1725  0.1264
  177MOL   H20542797   6.151   1.211   6.111 -0.2974  0.2866 -1.0583
  177MOL   C20642798   6.401   0.970   5.851 -0.0698 -0.0090 -0.5172
  177MOL   C20742799   6.520   0.903   5.790 -0.5662 -0.0711 -0.2570
  177MOL   O20842800   6.640   0.932   5.873  0.1673 -0.0611 -0.5745
  177MOL   C20942801   6.758   0.984   5.816  0.3402  0.7656  0.7980
  177MOL   C21042802   6.881   0.973   5.908  0.2807 -0.8582  0.1652
  177MOL   O21142803   6.767   1.035   5.706  0.1196 -0.0912  0.0721
  177MOL   H21242804   6.405   0.945   5.957  1.4273  2.7604  0.1058
  177MOL   H21342805   6.303   0.938   5.816 -0.2619  1.0372 -0.9343
  177MOL   H21442806   6.527   0.935   5.686  0.7315  4.0811  0.9956
  177MOL   H21542807   6.972   0.950   5.852 -0.1211 -0.3297 -0.7125
  177MOL   H21642808   6.881   0.904   5.993 -0.7506  0.1376  0.9865
  177MOL   H21742809   6.899   1.067   5.959  1.5983 -1.3202  0.5678
  177MOL   C21842810   6.485   0.747   5.779 -0.0877 -0.1652 -0.4263
  177MOL   C21942811   6.595   0.661   5.707 -0.1162 -1.1654  0.1301
  177MOL   O22042812   6.560   0.523   5.693  0.2951  0.5120 -0.6042
  177MOL   C22142813   6.588   0.427   5.779  0.6468  0.1739  0.1557
  177MOL   C22242814   6.548   0.296   5.725 -0.0959 -0.3564  0.3088
  177MOL   O22342815   6.646   0.431   5.890  0.4103  0.1186  0.4143
  177MOL   H22442816   6.457   0.698   5.872  1.0565  1.9891  1.0972
  177MOL   H22542817   6.389   0.749   5.728 -0.3315  1.8909  0.0705
  177MOL   H22642818   6.684   0.664   5.770 -1.9337 -1.4936  2.8121
  177MOL   H22742819   6.586   0.212   5.783 -0.1093 -0.0664  0.7333
  177MOL   H22842820   6.575   0.279   5.621  1.5893  1.9031  0.3424
  177MOL   H22942821   6.439   0.293   5.726 -0.1010 -0.2075  0.2755
  177MOL   C23042822   6.628   0.720   5.564  0.0304  0.3149  0.2164
  177MOL   C23142823   6.739   0.643   5.496 -0.5285 -0.1619  0.4780
  177MOL   O23242824   6.768   0.683   5.359  0.4430 -0.2793 -0.3550
  177MOL   C23342825   6.861   0.613   5.298 -0.3566 -0.1254  0.2028
  177MOL   C23442826   6.866   0.652   5.156 -0.2856 -0.2448  0.1649
  177MOL   O23542827   6.919   0.512   5.345  0.4171  0.1011  0.3386
  177MOL   H23642828   6.543   0.698   5.500 -0.1353  0.0439  0.5308
  177MOL   H23742829   6.649   0.827   5.567  0.3626  0.2497  0.2370
  177MOL   H23842830   6.695   0.543   5.488 -0.3331 -0.3503  1.6808
  177MOL   H23942831   6.962   0.622   5.116  0.2818 -0.9324  2.0150
  177MOL   H24042832   6.848   0.760   5.160 -0.0113 -0.2489  1.4339
  177MOL   H24142833   6.795   0.606   5.087  1.6697 -0.0041 -2.0732
  177MOL   H24242834   6.824   0.634   5.563 -1.1772  2.3613  1.7016
  178MOL     C142835   5.402   3.874   7.416 -0.0233 -0.1729  0.4381
  178MOL     C242836   5.524   3.955   7.385 -0.4865 -0.2002 -0.2109
  178MOL     O342837   5.491   4.096   7.385  0.1888  0.7264  0.9103
  178MOL     C442838   5.568   4.185   7.321 -0.4534 -0.1116  0.3018
  178MOL     C542839   5.534   4.330   7.342  0.3795  0.2060 -0.0312
  178MOL     O642840   5.672   4.153   7.264 -0.7513  0.0252 -0.0973
  178MOL     H742841   5.410   3.766   7.413  1.6395 -0.0988  1.6989
  178MOL     H842842   5.320   3.898   7.348 -0.0660  0.3714  0.6779
  178MOL     H942843   5.561   3.920   7.289 -3.4523 -0.7634 -1.2031
  178MOL    H1042844   5.477   4.357   7.253 -0.7686 -2.9541 -0.2794
  178MOL    H1142845   5.621   4.397   7.345  0.4535  0.1986 -1.3637
  178MOL    H1242846   5.485   4.343   7.438  0.2329  3.3564 -0.4599
  178MOL    H1342847   5.365   3.892   7.517  0.8637 -1.3580  0.9829
  178MOL    C1442848   5.634   3.926   7.491 -0.1187  0.5749 -0.2724
  178MOL    C1542849   5.708   3.789   7.480  1.4548 -0.1900 -0.2917
  178MOL    O1642850   5.842   3.806   7.524  0.0304  0.6017  0.3277
  178MOL    C1742851   5.933   3.836   7.424 -0.1803  0.1860 -0.2000
  178MOL    C1842852   6.067   3.882   7.482 -0.7867 -0.4164  0.2849
  178MOL    O1942853   5.912   3.828   7.303 -0.3710 -0.4081  0.4594
  178MOL    H2042854   5.711   4.003   7.486  0.0491  0.4738  0.6641
  178MOL    H2142855   5.599   3.930   7.594 -0.2797 -1.6999 -0.2179
  178MOL    H2242856   5.699   3.743   7.381  0.1028  1.5905 -1.0143
  178MOL    H2342857   6.131   3.794   7.477  0.0092  0.0889  1.4217
  178MOL    H2442858   6.079   3.932   7.578  2.1044 -1.5413  0.5446
  178MOL    H2542859   6.110   3.956   7.414  0.5579  0.2813  1.8433
  178MOL    C2642860   5.662   3.699   7.586  0.1242  0.5639  0.5451
  178MOL    C2742861   5.727   3.555   7.578 -0.3000  0.1828 -0.1122
  178MOL    O2842862   5.862   3.545   7.620 -0.3702 -0.1903  0.0705
  178MOL    C2942863   5.957   3.490   7.547  0.7276 -0.3304  0.9738
  178MOL    C3042864   6.087   3.520   7.623 -0.2235 -0.7025  0.1431
  178MOL    O3142865   5.951   3.438   7.435 -0.4630  0.5672 -1.0303
  178MOL    H3242866   5.662   3.740   7.687 -1.0077  1.8721  0.0364
  178MOL    H3342867   5.560   3.679   7.553 -0.7729  1.6177  2.5521
  178MOL    H3442868   5.725   3.526   7.473 -0.4843 -1.7593  0.4130
  178MOL    H3542869   6.062   3.504   7.728 -0.3644  1.2394  0.4203
  178MOL    H3642870   6.111   3.626   7.628 -0.8585 -0.6560  3.7767
  178MOL    H3742871   6.172   3.461   7.587  0.5980  0.1224  0.7165
  178MOL    C3842872   5.656   3.447   7.664 -0.2812  0.1479 -0.0324
  178MOL    C3942873   5.689   3.303   7.628 -0.6701  0.1685  0.0433
  178MOL    O4042874   5.651   3.217   7.739  0.6800 -0.0753 -0.2180
  178MOL    C4142875   5.732   3.200   7.848 -0.3267 -0.6332 -0.7381
  178MOL    C4242876   5.678   3.098   7.946 -0.0985 -0.1700 -0.2527
  178MOL    O4342877   5.844   3.245   7.855  0.0116 -0.4295  0.2800
  178MOL    H4442878   5.685   3.466   7.767  0.4697  0.7844 -0.3584
  178MOL    H4542879   5.548   3.463   7.668 -0.7686 -2.2110 -2.3098
  178MOL    H4642880   5.794   3.286   7.602 -1.1369 -1.8434 -0.6007
  178MOL    H4742881   5.569   3.094   7.951 -0.0741  0.2402  0.6634
  178MOL    H4842882   5.715   3.109   0.026  0.2984 -0.0847 -0.4075
  178MOL    H4942883   5.716   3.007   7.900  1.8251  0.9307 -0.8830
  178MOL    C5042884   5.630   3.246   7.496  0.1420 -0.2938  0.2179
  178MOL    C5142885   5.672   3.095   7.460 -0.9111 -0.8730 -0.6179
  178MOL    O5242886   5.573   3.052   7.376 -0.4140  0.0302 -0.5928
  178MOL    C5342887   5.546   2.922   7.359  0.5750 -0.2258  0.0662
  178MOL    C5442888   5.445   2.902   7.245 -0.3552 -0.4404 -0.0020
  178MOL    O5542889   5.583   2.835   7.436 -0.1294  0.2337  0.6852
  178MOL    H5642890   5.521   3.252   7.494  0.0707 -0.9176  1.5462
  178MOL    H5742891   5.660   3.315   7.417 -3.0508  1.3155  0.3460
  178MOL    H5842892   5.653   3.041   7.553 -1.6446 -2.2565 -1.5550
  178MOL    H5942893   5.479   2.947   7.151 -2.9667  3.6555  0.8916
  178MOL    H6042894   5.344   2.937   7.268 -0.2596 -0.3022  0.2072
  178MOL    H6142895   5.451   2.794   7.235 -0.6968 -0.5286  0.7821
  178MOL    C6242896   5.813   3.069   7.408  0.0955 -0.0208  0.3772
  178MOL    C6342897   5.908   3.050   7.528 -0.8704  0.2466 -0.6531
  178MOL    O6442898   5.916   2.904   7.544 -0.2492 -0.4793  0.0411
  178MOL    C6542899   5.885   2.853   7.659 -0.1670  0.0362 -0.3364
  178MOL    C6642900   5.870   2.703   7.652 -0.7621  0.0517  0.2020
  178MOL    O6742901   5.869   2.913   7.762 -0.5112 -0.0036 -0.0613
  178MOL    H6842902   5.829   2.990   7.335  2.3685  1.7572 -1.1107
  178MOL    H6942903   5.840   3.159   7.353  1.3329  0.3329  1.5140
  178MOL    H7042904   5.860   3.097   7.614  0.3943  1.8099 -0.7844
  178MOL    H7142905   5.876   2.656   7.750  0.1678  1.3041  0.7598
  178MOL    H7242906   5.959   2.665   7.602  1.0926  0.7907  2.8071
  178MOL    H7342907   5.775   2.674   7.607 -0.6238 -0.7791  0.4307
  178MOL    C7442908   6.052   3.091   7.497  0.5675  0.3455 -0.9714
  178MOL    C7542909   6.151   3.063   7.608  0.3073  0.5383 -0.8251
  178MOL    O7642910   6.281   3.079   7.558  0.0919 -0.3099  0.2353
  178MOL    C7742911   6.365   2.975   7.554 -0.3223 -0.4604  0.3337
  178MOL    C7842912   6.501   3.016   7.503  0.3585 -0.1626 -0.2215
  178MOL    O7942913   6.344   2.858   7.582 -0.5140 -0.3432 -0.5627
  178MOL    H8042914   6.076   3.038   7.405  1.1292  0.0693 -0.6665
  178MOL    H8142915   6.055   3.196   7.469 -0.5265  0.0137 -2.3551
  178MOL    H8242916   6.143   2.962   7.648  2.1774 -0.0281 -1.8491
  178MOL    H8342917   6.486   3.097   7.431  0.6328 -1.7682 -2.1516
  178MOL    H8442918   6.547   2.933   7.449  0.5467 -1.0237  1.2453
  178MOL    H8542919   6.564   3.028   7.591  2.2232  1.4709 -1.7246
  178MOL    C8642920   6.147   3.168   7.717  0.6332  0.0469 -0.0346
  178MOL    C8742921   6.225   3.120   7.840 -0.0571  0.2208  0.1605
  178MOL    O8842922   6.306   3.219   7.896  0.0741  0.1449  0.4291
  178MOL    C8942923   6.438   3.199   7.895  0.0373  0.3058 -0.4864
  178MOL    C9042924   6.526   3.300   7.951 -0.3793 -0.8467 -0.7182
  178MOL    O9142925   6.492   3.103   7.843 -0.0939 -0.0518  0.7628
  178MOL    H9242926   6.188   3.258   7.672  1.5634 -0.7284 -0.7672
  178MOL    H9342927   6.044   3.195   7.743  0.3024 -0.2030 -1.0662
  178MOL    H9442928   6.281   3.028   7.822 -0.0599  0.4283 -0.9307
  178MOL    H9542929   6.629   3.272   7.927  0.1082 -0.5572  0.9431
  178MOL    H9642930   6.522   3.309   0.038  0.9625 -0.1314 -0.7241
  178MOL    H9742931   6.504   3.394   7.901 -0.7961  0.9423  2.6461
  178MOL    C9842932   6.133   3.064   7.953 -0.0368 -0.2403 -0.4925
  178MOL    C9942933   6.200   3.000   0.052  0.0292 -0.2157 -0.4002
  178MOL   O10042934   6.089   2.972   0.139 -0.3025  0.1678 -0.2168
  178MOL   C10142935   6.072   3.042   0.252  0.0346  0.3070  0.5914
  178MOL   C10242936   5.964   2.985   0.338  0.5413  0.2639  0.1995
  178MOL   O10342937   6.126   3.148   0.275  0.1249  0.1008 -0.4422
  178MOL   H10442938   6.064   3.143   7.982  1.1544  0.1153  1.4238
  178MOL   H10542939   6.081   2.984   7.900 -0.0385 -0.0776 -0.7372
  178MOL   H10642940   6.280   3.065   0.087  0.0375  0.9124 -2.4328
  178MOL   H10742941   5.901   2.916   0.281 -1.1738 -0.8819  3.3800
  178MOL   H10842942   5.902   3.065   0.376 -0.0253  0.4562 -1.1078
  178MOL   H10942943   6.013   2.937   0.423  1.9265 -1.7689 -1.6661
  178MOL   C11042944   6.276   2.861   0.030 -0.7295  0.1689 -0.4237
  178MOL   C11142945   6.355   2.807   0.145 -0.0046 -0.2015 -0.4604
  178MOL   O11242946   6.266   2.761   0.247  0.2235 -0.4612  0.3797
  178MOL   C11342947   6.289   2.796   0.375  0.1801 -0.1714  0.4836
  178MOL   C11442948   6.194   2.728   0.460  0.2879 -0.6888 -0.0875
  178MOL   O11542949   6.364   2.883   0.419  0.4383  0.3794  0.2119
  178MOL   H11642950   6.197   2.787   0.016 -1.3361  0.4791  1.2604
  178MOL   H11742951   6.326   2.873   7.956 -2.6339 -3.4747 -1.9874
  178MOL   H11842952   6.410   2.896   0.178 -1.7073  0.9172 -0.5929
  178MOL   H11942953   6.239   2.638   0.501 -1.4268 -1.4280  0.2140
  178MOL   H12042954   6.110   2.702   0.396  1.4625 -1.1280 -1.4958
  178MOL   H12142955   6.155   2.792   0.539  1.3300  0.1882 -0.2617
  178MOL   C12242956   6.457   2.699   0.109 -0.5628  0.0363 -0.0576
  178MOL   C12342957   6.397   2.558   0.066 -0.4635  0.8609 -0.1322
  178MOL   O12442958   6.333   2.582   7.960  0.1785 -0.0770  0.2302
  178MOL   C12542959   6.235   2.491   7.922  0.2746  0.7694 -0.6109
  178MOL   C12642960   6.154   2.546   7.809  0.1520 -0.0724  1.1154
  178MOL   O12742961   6.201   2.379   7.972 -0.0354  0.5748 -0.1531
  178MOL   H12842962   6.514   2.747   0.029  1.9819 -1.6185  0.7019
  178MOL   H12942963   6.511   2.682   0.202 -1.5459  0.3092  0.5766
  178MOL   H13042964   6.327   2.529   0.144 -0.3654 -0.8779 -0.6819
  178MOL   H13142965   6.095   2.467   7.763 -1.7376  1.4084  0.9510
  178MOL   H13242966   6.217   2.594   7.734 -2.2625  0.0315 -0.9020
  178MOL   H13342967   6.073   2.602   7.854  0.4715  2.2878 -1.1588
  178MOL   C13442968   6.513   2.452   0.072  0.4379  0.5162 -0.0509
  178MOL   C13542969   6.613   2.448   7.977  0.4061 -0.0750  0.3461
  178MOL   O13642970   6.650   2.581   7.946  0.3681  0.1780  0.4042
  178MOL   C13742971   6.708   2.618   7.826 -0.1205 -0.7752  0.0354
  178MOL   C13842972   6.724   2.770   7.821  0.1897 -0.3251 -0.2201
  178MOL   O13942973   6.728   2.544   7.730 -0.7246  0.3282 -0.2427
  178MOL   H14042974   6.571   2.463   0.164  0.2493 -0.5285  0.1980
  178MOL   H14142975   6.460   2.357   0.081 -2.1795  1.6945 -2.1690
  178MOL   H14242976   6.563   2.402   7.891 -0.4131  1.9298 -0.2693
  178MOL   H14342977   6.830   2.788   7.803  0.2648  0.8313  1.2883
  178MOL   H14442978   6.695   2.816   7.915  1.6790 -0.9102  0.5392
  178MOL   H14542979   6.659   2.813   7.745  1.7478  1.8265 -0.3695
  178MOL   C14642980   6.741   2.372   8.008 -0.2912  0.3036 -1.1500
  178MOL   C14742981   6.716   2.222   0.011  0.4012 -0.2607 -0.3202
  178MOL   O14842982   6.680   2.164   7.906  0.0920  0.0381  0.2881
  178MOL   C14942983   6.556   2.118   7.889  0.0829 -0.1254  0.3936
  178MOL   C15042984   6.528   2.073   7.743  0.1640 -0.6445 -0.2400
  178MOL   O15142985   6.471   2.098   7.975 -0.3060 -0.4394 -0.2132
  178MOL   H15242986   6.809   2.377   7.923  0.2863  0.7398 -0.6699
  178MOL   H15342987   6.795   2.425   0.066  0.8771 -0.8963 -1.1268
  178MOL   H15442988   6.628   2.209   0.074 -0.3848  1.9311 -0.8870
  178MOL   H15542989   6.425   2.065   7.707  0.8994  1.4307 -2.9666
  178MOL   H15642990   6.564   1.971   7.730 -0.4390 -0.6732 -1.7390
  178MOL   H15742991   6.584   2.135   7.673  0.2200  0.4311  0.7493
  178MOL   C15842992   6.831   2.152   0.085  0.3874  0.1466 -1.2061
  178MOL   C15942993   6.797   2.030   0.166 -0.5893  0.5422  0.0320
  178MOL   O16042994   6.777   1.926   0.072 -0.4622 -0.1176  0.1777
  178MOL   C16142995   6.688   1.832   0.100 -0.0955 -0.2096  0.4197
  178MOL   C16242996   6.639   1.760   7.998 -0.9279 -0.1417 -0.2693
  178MOL   O16342997   6.629   1.816   0.211  0.0873  0.0053 -0.4476
  178MOL   H16442998   6.925   2.130   0.035  1.5787 -1.1291  1.4678
  178MOL   H16542999   6.865   2.229   0.155  0.3330 -2.1440  1.4102
  178MOL   H16643000   6.704   2.047   0.220 -1.5939 -0.6946 -1.2536
  178MOL   H16743001   6.697   1.668   8.007 -0.9959 -0.2242 -0.6557
  178MOL   H16843002   6.657   1.816   7.906 -1.8675  1.1791  0.3322
  178MOL   H16943003   6.532   1.751   8.016 -1.0261  2.8465  0.8464
  178MOL   C17043004   6.909   2.000   0.261 -0.4376 -0.2353 -0.4608
  178MOL   C17143005   6.888   2.080   0.398  0.3011  0.9836  0.1715
  178MOL   O17243006   6.773   2.028   0.446  0.4315 -0.2565 -0.4453
  178MOL   C17343007   6.667   2.102   0.478 -0.0199  0.0707 -0.1178
  178MOL   C17443008   6.548   2.025   0.541 -0.2380  0.0966  0.0643
  178MOL   O17543009   6.648   2.215   0.446 -0.0095 -0.6439  0.0584
  178MOL   H17643010   6.911   1.893   0.282  3.3283 -0.2729 -0.6867
  178MOL   H17743011   7.008   2.030   0.225  0.9242 -2.5214  1.2412
  178MOL   H17843012   6.885   2.188   0.384 -0.1989  0.6839 -2.4211
  178MOL   H17943013   6.499   1.973   0.459 -2.0779  1.0643  0.5171
  178MOL   H18043014   6.478   2.093   0.591  1.1277  0.6088  1.3158
  178MOL   H18143015   6.588   1.963   0.621  1.7299  0.6541 -0.4639
  178MOL   C18243016   7.003   2.061   0.489 -0.6041  0.2787 -0.7994
  178MOL   C18343017   7.127   2.143   0.445 -0.3213  1.1233 -0.5830
  178MOL   O18443018   7.119   2.280   0.483 -0.0906 -0.3022 -0.5488
  178MOL   C18543019   7.066   2.369   0.406  0.7464 -0.3147  0.6010
  178MOL   C18643020   7.092   2.507   0.463 -0.6397 -0.1315 -0.3069
  178MOL   O18743021   7.011   2.352   0.298 -0.3571  0.0812 -0.4452
  178MOL   H18843022   6.974   2.113   0.580 -1.1821 -0.9576 -0.2675
  178MOL   H18943023   7.027   1.955   0.500  1.3802  0.9714  2.2073
  178MOL   H19043024   7.135   2.146   0.336 -2.7519  3.2877 -0.7518
  178MOL   H19143025   7.021   2.542   0.538  0.6551  1.2161  0.3010
  178MOL   H19243026   7.087   2.590   0.393 -1.5763  0.8368  0.8732
  178MOL   H19343027   7.188   2.520   0.512 -2.6398  2.2476  3.2021
  178MOL   C19443028   7.256   2.082   0.498 -0.0221  0.5443  0.1055
  178MOL   C19543029   7.267   2.091   0.651  0.0014 -0.1395 -0.1507
  178MOL   O19643030   7.248   1.963   0.715  0.0807  0.3055 -0.6245
  178MOL   C19743031   7.349   1.877   0.746  0.3392  0.7278  0.1115
  178MOL   C19843032   7.304   1.752   0.816 -0.1719 -0.3457 -0.1941
  178MOL   O19943033   7.467   1.897   0.719 -1.0779  0.3370  0.3934
  178MOL   H20043034   7.259   1.977   0.469  0.3020  0.7808 -0.7591
  178MOL   H20143035   7.343   2.125   0.448  1.3196  0.8837  2.6734
  178MOL   H20243036   7.169   2.131   0.674  0.5395  0.9397  0.2725
  178MOL   H20343037   7.262   1.672   0.755 -0.3270 -1.2762  1.1419
  178MOL   H20443038   7.247   1.777   0.905  0.0228 -1.2019  0.1758
  178MOL   H20543039   7.388   1.704   0.866  0.2622  1.3089  0.7147
  178MOL   C20643040   7.360   2.202   0.716  0.0101  0.1562 -0.2068
  178MOL   C20743041   7.316   2.236   0.862 -0.6662 -0.0928  0.2216
  178MOL   O20843042   7.423   2.296   0.932  0.2888  0.2345 -0.1963
  178MOL   C20943043   7.503   2.221   1.015 -0.0788  0.5057 -0.8293
  178MOL   C21043044   7.626   2.299   1.065 -0.4640 -0.0238  0.2372
  178MOL   O21143045   7.484   2.102   1.045 -0.2416  0.3141  0.0007
  178MOL   H21243046   7.462   2.168   0.730  0.6863  1.4186 -1.8389
  178MOL   H21343047   7.366   2.287   0.647  1.4247 -0.5859 -1.0086
  178MOL   H21443048   7.284   2.148   0.918 -0.2030  1.0460  2.3274
  178MOL   H21543049   7.657   2.361   0.982  1.6441 -0.7719  0.4236
  178MOL   H21643050   7.699   2.224   1.095 -1.1166 -0.2433  1.3158
  178MOL   H21743051   7.598   2.349   1.158 -0.3005 -2.0638  1.4082
  178MOL   C21843052   7.203   2.347   0.857  0.2715 -0.2096 -0.3553
  178MOL   C21943053   7.129   2.373   0.989 -0.4016  0.4195  0.4042
  178MOL   O22043054   7.032   2.465   0.957  0.6575  0.2581 -0.0994
  178MOL   C22143055   7.058   2.603   0.975  1.0862  0.7493 -0.1829
  178MOL   C22243056   6.957   2.695   0.891 -0.3756 -0.7802  0.5053
  178MOL   O22343057   7.153   2.646   1.035  0.1413  0.1428  0.3089
  178MOL   H22443058   7.252   2.441   0.831  0.4498  0.0822  0.9578
  178MOL   H22543059   7.127   2.335   0.780 -0.8439  1.5374  0.4424
  178MOL   H22643060   7.188   2.418   1.069  0.1800  1.0203 -0.3542
  178MOL   H22743061   6.940   2.793   0.936 -2.2627 -1.2349  0.8352
  178MOL   H22843062   6.858   2.658   0.866  0.5620 -2.9862 -0.0275
  178MOL   H22943063   6.991   2.719   0.790 -0.0731  2.8006  1.3892
  178MOL   C23043064   7.056   2.247   1.041  0.3879 -0.2310 -0.2374
  178MOL   C23143065   7.105   2.195   1.176  0.4853 -0.7176 -0.8951
  178MOL   O23243066   7.045   2.068   1.206 -0.0504  0.4693  0.0537
  178MOL   C23343067   7.092   1.957   1.153  0.4387  0.0217 -0.2217
  178MOL   C23443068   7.018   1.831   1.211  0.2502  0.3804 -0.3022
  178MOL   O23543069   7.197   1.947   1.088  0.3992  0.9098  0.2406
  178MOL   H23643070   6.954   2.279   1.063  0.5201  0.9573 -1.3253
  178MOL   H23743071   7.047   2.169   0.965  0.7254 -1.9379  1.4382
  178MOL   H23843072   7.089   2.269   1.253  0.2782 -2.6519  0.9737
  178MOL   H23943073   6.960   1.852   1.301  0.3994  0.0066 -0.1191
  178MOL   H24043074   7.090   1.751   1.225  2.3593  1.7090 -3.2419
  178MOL   H24143075   6.964   1.795   1.123  0.1495 -1.5342  0.5186
  178MOL   H24243076   7.214   2.193   1.185  0.3652 -1.7769  0.5308
  179MOL     C143077   1.166   2.259   0.062  0.2280  0.5375 -0.6309
  179MOL     C243078   1.242   2.136   0.010  0.1257 -0.2465 -0.5659
  179MOL     O343079   1.371   2.183   7.992  0.4430  0.4478  0.6279
  179MOL     C443080   1.400   2.193   7.867  0.2706 -0.5347 -0.8701
  179MOL     C543081   1.546   2.244   7.855  0.3189 -0.5497  0.2514
  179MOL     O643082   1.329   2.184   7.770 -0.4736  0.0708 -0.0237
  179MOL     H743083   1.191   2.354   0.015  1.7239  0.2054 -0.5199
  179MOL     H843084   1.195   2.280   0.165 -1.3387 -1.3950  0.2311
  179MOL     H943085   1.176   2.099   7.954 -1.3829 -0.6605  0.8755
  179MOL    H1043086   1.548   2.349   7.884  2.2760 -0.2722 -0.8340
  179MOL    H1143087   1.584   2.253   7.754 -0.3525  1.9109  0.1841
  179MOL    H1243088   1.622   2.200   7.920 -0.6337  0.8555  2.3971
  179MOL    H1343089   1.058   2.244   0.065  0.1686  1.2175  1.5162
  179MOL    C1443090   1.259   2.037   0.126  0.7843  0.7108  0.0064
  179MOL    C1543091   1.334   1.909   0.073  0.2176  0.2782  0.3226
  179MOL    O1643092   1.395   1.836   0.184 -0.2479 -0.1416  0.0861
  179MOL    C1743093   1.513   1.770   0.166  0.1270  0.3864  0.5993
  179MOL    C1843094   1.548   1.683   0.285 -0.3121 -0.0195 -0.2788
  179MOL    O1943095   1.589   1.789   0.069 -0.0681  0.2197  0.4205
  179MOL    H2043096   1.306   2.076   0.217  0.3476 -0.5045  0.7745
  179MOL    H2143097   1.167   2.006   0.175  2.3474 -2.4579  1.0851
  179MOL    H2243098   1.399   1.937   8.011 -1.8216 -1.0743 -1.7917
  179MOL    H2343099   1.458   1.635   0.322 -0.6356  1.2205  0.5648
  179MOL    H2443100   1.563   1.756   0.365 -0.0210 -1.1232  0.6823
  179MOL    H2543101   1.635   1.618   0.277  0.6483  1.0419  1.2419
  179MOL    C2643102   1.228   1.824   0.001  1.1990  0.7883 -0.3664
  179MOL    C2743103   1.273   1.687   7.956 -0.1431  0.1396  0.1214
  179MOL    O2843104   1.164   1.615   7.896 -0.3161  0.0576  0.5604
  179MOL    C2943105   1.088   1.545   7.970  0.0616 -0.3161 -0.0679
  179MOL    C3043106   1.009   1.437   7.910  0.6378 -0.1066  0.0388
  179MOL    O3143107   1.060   1.568   0.066 -0.2285  0.6420 -0.3800
  179MOL    H3243108   1.147   1.800   0.070 -0.6184  2.4034 -1.8706
  179MOL    H3343109   1.194   1.888   7.942  0.7537  1.5608  0.4181
  179MOL    H3443110   1.317   1.633   0.019  0.6844  2.2972  1.0937
  179MOL    H3543111   1.078   1.367   7.862 -0.3118 -0.9508 -0.1186
  179MOL    H3643112   0.941   1.483   7.839  0.6004 -1.6084 -0.9395
  179MOL    H3743113   0.957   1.372   7.979 -0.4751 -3.2051 -3.5337
  179MOL    C3843114   1.374   1.703   7.840  0.1950 -0.4389  0.0023
  179MOL    C3943115   1.459   1.579   7.793 -0.3474  0.2302  0.5759
  179MOL    O4043116   1.487   1.498   7.908 -0.3510 -0.5734 -0.1888
  179MOL    C4143117   1.608   1.497   7.963  0.3634 -0.1779 -0.0918
  179MOL    C4243118   1.620   1.395   0.063  0.4522 -0.5783 -0.2660
  179MOL    O4343119   1.710   1.557   7.922  0.4561 -0.3451  0.8700
  179MOL    H4443120   1.321   1.742   7.753 -0.4905 -0.4985  0.3915
  179MOL    H4543121   1.439   1.787   7.864 -2.0364  1.0746  0.9415
  179MOL    H4643122   1.543   1.620   7.738  0.6455 -1.9307  0.4288
  179MOL    H4743123   1.714   1.340   0.066  1.3995  0.9999 -0.7685
  179MOL    H4843124   1.547   1.315   0.048  0.2545 -0.3014 -0.7925
  179MOL    H4943125   1.610   1.442   0.160 -0.7429 -1.2482 -0.0504
  179MOL    C5043126   1.386   1.493   7.686 -0.4316 -0.0777  0.4949
  179MOL    C5143127   1.468   1.380   7.622  0.0848  0.4706 -0.0211
  179MOL    O5243128   1.385   1.288   7.551  0.1565  0.3501 -0.6315
  179MOL    C5343129   1.423   1.159   7.541  0.0764 -0.3287 -0.1769
  179MOL    C5443130   1.329   1.076   7.456 -0.1453  0.2000 -0.2577
  179MOL    O5543131   1.525   1.114   7.582 -0.2497  0.5187 -0.1390
  179MOL    H5643132   1.304   1.449   7.744  0.6816 -0.0906  2.0796
  179MOL    H5743133   1.344   1.563   7.614  0.8214  0.1564 -0.0138
  179MOL    H5843134   1.517   1.323   7.702  1.2311  0.1511 -0.9262
  179MOL    H5943135   1.365   1.083   7.353 -0.5548 -1.9826 -0.5827
  179MOL    H6043136   1.235   1.131   7.448 -0.2083 -0.0243 -1.0875
  179MOL    H6143137   1.295   0.978   7.491 -3.2785  1.3547  0.0636
  179MOL    C6243138   1.569   1.430   7.525  0.0351 -0.1060  0.0716
  179MOL    C6343139   1.712   1.417   7.585  0.4251 -0.6789 -0.0276
  179MOL    O6443140   1.757   1.283   7.579  0.3165  0.4045 -0.1582
  179MOL    C6543141   1.794   1.226   7.691  0.2655  0.2607 -0.5400
  179MOL    C6643142   1.822   1.077   7.673 -0.3202 -0.0360 -0.4516
  179MOL    O6743143   1.813   1.279   7.801 -0.1779 -0.1596 -0.1964
  179MOL    H6843144   1.583   1.364   7.439  3.5346 -1.4316  1.5689
  179MOL    H6943145   1.552   1.530   7.485  3.1148 -0.5312 -2.4754
  179MOL    H7043146   1.710   1.462   7.684  0.3098  2.0716 -1.2287
  179MOL    H7143147   1.928   1.054   7.671 -0.4674 -0.7055 -1.6853
  179MOL    H7243148   1.791   1.032   7.578  1.0175 -1.1173 -0.3825
  179MOL    H7343149   1.777   1.018   7.752  0.2786 -1.9665 -1.5265
  179MOL    C7443150   1.806   1.499   7.503 -1.2182  0.4951  0.4272
  179MOL    C7543151   1.947   1.525   7.560  0.0464 -0.0653  0.4156
  179MOL    O7643152   2.032   1.592   7.464 -0.2750  0.1583 -0.0888
  179MOL    C7743153   2.137   1.525   7.405  0.4639  0.3975 -0.3766
  179MOL    C7843154   2.207   1.616   7.306 -0.2949 -0.2271 -0.6343
  179MOL    O7943155   2.174   1.404   7.433  0.0154  0.1145  0.3364
  179MOL    H8043156   1.820   1.457   7.403  0.1850 -1.4071  1.3734
  179MOL    H8143157   1.767   1.600   7.494 -3.3037 -0.2774  0.4227
  179MOL    H8243158   1.990   1.428   7.587  0.7461 -0.1159 -0.8360
  179MOL    H8343159   2.297   1.658   7.350 -0.1491 -1.3994  0.2116
  179MOL    H8443160   2.131   1.688   7.276 -1.0632 -1.6054 -2.0804
  179MOL    H8543161   2.235   1.569   7.212  2.9511  0.5076 -0.0760
  179MOL    C8643162   1.943   1.614   7.684 -0.3478 -0.3633 -0.3561
  179MOL    C8743163   2.034   1.576   7.804  0.0458  0.6127  0.7177
  179MOL    O8843164   2.168   1.575   7.761  0.3770 -0.0396  0.0101
  179MOL    C8943165   2.255   1.485   7.809 -0.8439  0.1085  0.0640
  179MOL    C9043166   2.385   1.465   7.728  0.0280  0.3248  0.1271
  179MOL    O9143167   2.234   1.411   7.904 -0.0457  0.4011  0.1213
  179MOL    H9243168   1.974   1.711   7.644 -0.4861  0.2200  0.9269
  179MOL    H9343169   1.846   1.644   7.722  0.0909  1.4563 -0.6122
  179MOL    H9443170   2.001   1.476   7.831 -2.0348  0.7508 -1.1363
  179MOL    H9543171   2.381   1.372   7.671  2.1334  1.0682 -1.2851
  179MOL    H9643172   2.468   1.459   7.798 -0.3160 -1.1919  0.4395
  179MOL    H9743173   2.398   1.553   7.666  0.8847 -0.5705 -0.9787
  179MOL    C9843174   2.017   1.676   7.930  0.3188  0.1698 -0.3089
  179MOL    C9943175   2.051   1.638   0.051  1.0713  1.0998  0.1809
  179MOL   O10043176   1.995   1.733   0.137 -0.6782 -0.0721 -0.2292
  179MOL   C10143177   2.067   1.812   0.212 -0.4182  0.4917 -0.5480
  179MOL   C10243178   1.977   1.888   0.310 -0.0028  0.2660 -0.3330
  179MOL   O10343179   2.197   1.814   0.219 -0.0363 -0.6860  0.1542
  179MOL   H10443180   2.068   1.771   7.914 -0.4308  0.8051  0.9506
  179MOL   H10543181   1.912   1.703   7.938  0.8393  1.8551  1.0764
  179MOL   H10643182   2.159   1.630   0.067  0.8293 -0.8821  0.9846
  179MOL   H10743183   1.869   1.882   0.294  0.0507  2.0672 -1.5235
  179MOL   H10843184   1.998   1.995   0.306  1.0642  0.1334  1.1348
  179MOL   H10943185   1.983   1.845   0.410 -2.3802 -0.4634 -0.4648
  179MOL   C11043186   1.992   1.505   0.103  0.0277 -0.0602  0.0067
  179MOL   C11143187   2.021   1.472   0.250  0.3646 -0.3615  0.4401
  179MOL   O11243188   1.909   1.412   0.303  0.3312 -0.6420  0.0566
  179MOL   C11343189   1.828   1.477   0.393 -0.5125  0.3906  0.3653
  179MOL   C11443190   1.723   1.385   0.453 -0.1110  0.7822  0.0265
  179MOL   O11543191   1.838   1.598   0.429 -0.1363 -0.2735  0.1582
  179MOL   H11643192   1.885   1.522   0.088  0.4910  3.9024  0.5163
  179MOL   H11743193   2.000   1.422   0.033  0.3375  0.5160 -0.6572
  179MOL   H11843194   2.042   1.566   0.302 -3.2856  0.2768  0.9370
  179MOL   H11943195   1.645   1.446   0.499  0.6605  0.9133  1.1815
  179MOL   H12043196   1.772   1.329   0.533  0.6372  1.2341 -0.1176
  179MOL   H12143197   1.681   1.307   0.390  2.4515  0.5863 -1.4829
  179MOL   C12243198   2.140   1.380   0.272 -0.0576  0.4075 -0.7142
  179MOL   C12343199   2.204   1.396   0.412 -0.4899  0.0521 -0.4590
  179MOL   O12443200   2.136   1.294   0.494  0.7663  0.1448 -0.1960
  179MOL   C12543201   2.072   1.330   0.602 -0.1742 -0.3182  0.0422
  179MOL   C12643202   2.037   1.212   0.687  0.1350  0.6589 -0.1246
  179MOL   O12743203   2.036   1.445   0.642  0.3219 -0.2088  0.0888
  179MOL   H12843204   2.109   1.277   0.256 -0.0480 -0.0571  1.9510
  179MOL   H12943205   2.213   1.399   0.193  0.9795 -1.3996 -0.2301
  179MOL   H13043206   2.193   1.497   0.450 -2.3752  0.3625 -1.7615
  179MOL   H13143207   2.123   1.148   0.707  0.3038  0.6011 -0.9854
  179MOL   H13243208   1.961   1.153   0.636  2.4822  1.2923 -4.6603
  179MOL   H13343209   2.003   1.255   0.781 -2.2654  0.7812 -1.0042
  179MOL   C13443210   2.349   1.368   0.432 -0.7370 -0.4816 -0.5961
  179MOL   C13543211   2.437   1.491   0.441 -0.8389  0.3307  0.2457
  179MOL   O13643212   2.566   1.439   0.441 -0.1007  0.6949 -0.1343
  179MOL   C13743213   2.638   1.411   0.561  0.3910  0.0196  0.0716
  179MOL   C13843214   2.769   1.333   0.535 -0.3754  0.1416  0.0189
  179MOL   O13943215   2.594   1.430   0.673  0.3150  0.4205 -0.4276
  179MOL   H14043216   2.368   1.306   0.520 -1.1612  1.2660  0.7571
  179MOL   H14143217   2.378   1.312   0.344 -1.2418 -1.5947 -0.0607
  179MOL   H14243218   2.422   1.565   0.520  0.7629  0.8291  0.1121
  179MOL   H14343219   2.742   1.228   0.522 -0.2475 -0.0870  1.5233
  179MOL   H14443220   2.843   1.345   0.614 -0.6052  1.8670 -0.0000
  179MOL   H14543221   2.809   1.387   0.449 -0.2898  0.1956  0.0929
  179MOL   C14643222   2.432   1.563   0.306 -0.3605 -0.3855 -0.1623
  179MOL   C14743223   2.548   1.665   0.271 -0.3093  0.2566  0.0962
  179MOL   O14843224   2.552   1.689   0.128 -0.5617  0.3737 -0.0458
  179MOL   C14943225   2.633   1.620   0.039 -0.2678 -0.0707 -0.1002
  179MOL   C15043226   2.618   1.676   7.922 -0.1520 -0.0825 -0.3979
  179MOL   O15143227   2.711   1.522   0.054 -0.0333 -0.0134 -0.8814
  179MOL   H15243228   2.422   1.492   0.224 -1.6677 -1.8589  1.2133
  179MOL   H15343229   2.337   1.616   0.310  0.2011  0.7078 -1.1428
  179MOL   H15443230   2.641   1.616   0.298 -0.6162 -0.7021 -0.5530
  179MOL   H15543231   2.670   1.626   7.840  1.0185  0.8123 -0.2307
  179MOL   H15643232   2.654   1.780   7.923  1.5066 -0.6245  2.1190
  179MOL   H15743233   2.511   1.686   7.905 -0.0020  0.3841 -1.0938
  179MOL   C15843234   2.551   1.796   0.340  0.1134  0.1895 -0.7971
  179MOL   C15943235   2.685   1.878   0.328 -1.1468 -0.9938  0.2296
  179MOL   O16043236   2.716   1.940   0.200 -0.2933 -0.0102  0.0976
  179MOL   C16143237   2.837   1.955   0.157  0.6178  0.0408  0.1163
  179MOL   C16243238   2.848   2.043   0.029  0.8206  0.3234  0.2884
  179MOL   O16343239   2.941   1.912   0.205  0.2704  0.3101 -0.1163
  179MOL   H16443240   2.462   1.856   0.321 -0.3192  1.0127  3.3451
  179MOL   H16543241   2.547   1.764   0.444 -0.1739 -0.3372 -0.9697
  179MOL   H16643242   2.764   1.809   0.360  2.0074  1.7937 -1.3317
  179MOL   H16743243   2.949   2.066   8.018  1.0339 -0.3640  0.4668
  179MOL   H16843244   2.788   2.134   0.028 -0.3672 -0.4295  1.3335
  179MOL   H16943245   2.810   1.984   7.968  0.8983  1.2263 -0.4028
  179MOL   C17043246   2.693   1.997   0.431  0.3915 -0.2705  0.0225
  179MOL   C17143247   2.703   1.954   0.582  0.1479 -0.2889  0.6196
  179MOL   O17243248   2.840   1.911   0.608 -0.2721 -0.3792 -0.3565
  179MOL   C17343249   2.885   1.785   0.598  0.9043 -0.2446 -0.1073
  179MOL   C17443250   3.032   1.756   0.639 -0.0100  0.0276 -0.3102
  179MOL   O17543251   2.819   1.693   0.554  0.4875  0.5448  0.2496
  179MOL   H17643252   2.765   2.076   0.412 -0.3552  0.0161 -1.7150
  179MOL   H17743253   2.593   2.038   0.418  1.9721  2.9045 -2.8248
  179MOL   H17843254   2.636   1.869   0.598 -0.0294 -0.1147  0.8148
  179MOL   H17943255   3.059   1.655   0.609  1.3031  0.2487  0.1276
  179MOL   H18043256   3.038   1.750   0.747 -2.1560 -0.6056 -0.1983
  179MOL   H18143257   3.102   1.829   0.600  0.1361  0.1553  0.1967
  179MOL   C18243258   2.656   2.060   0.691  0.1594 -0.1624  0.0900
  179MOL   C18343259   2.515   2.123   0.659 -0.4233 -0.0716 -0.3282
  179MOL   O18443260   2.412   2.029   0.668 -0.2277  0.7151  0.1636
  179MOL   C18543261   2.336   2.007   0.557  0.3383  0.0728 -0.3407
  179MOL   C18643262   2.245   1.891   0.577  0.2667 -0.5190 -0.6532
  179MOL   O18743263   2.337   2.073   0.456 -0.2366 -0.2781  0.1614
  179MOL   H18843264   2.654   2.009   0.787 -0.1268  0.2178  0.2869
  179MOL   H18943265   2.732   2.137   0.702 -1.3148  1.7152 -2.2802
  179MOL   H19043266   2.526   2.167   0.559 -1.7408  0.6450 -0.1691
  179MOL   H19143267   2.232   1.888   0.685  1.5595 -0.4241 -0.4867
  179MOL   H19243268   2.290   1.798   0.542  0.6950 -0.2761 -0.7478
  179MOL   H19343269   2.146   1.911   0.535  0.1812 -0.7838 -0.5789
  179MOL   C19443270   2.464   2.232   0.756  0.5215  0.6014  0.0657
  179MOL   C19543271   2.550   2.355   0.755 -0.6212 -0.4182  0.3976
  179MOL   O19643272   2.546   2.411   0.626  0.3840  0.0440 -0.0817
  179MOL   C19743273   2.661   2.483   0.587 -0.0377  0.5389 -0.1367
  179MOL   C19843274   2.628   2.554   0.456  1.0623 -0.2950 -0.1657
  179MOL   O19943275   2.767   2.491   0.646 -0.2416  0.5313  0.0400
  179MOL   H20043276   2.362   2.253   0.723  0.5342 -0.0355 -0.3902
  179MOL   H20143277   2.442   2.191   0.855 -1.0589 -3.4203 -1.8419
  179MOL   H20243278   2.650   2.323   0.785 -0.3736 -0.9048 -0.9116
  179MOL   H20343279   2.724   2.558   0.404  1.2306  0.6820  0.2053
  179MOL   H20443280   2.585   2.654   0.460  0.9134 -0.2517 -2.5183
  179MOL   H20543281   2.577   2.492   0.383 -0.1981  0.3938  0.1245
  179MOL   C20643282   2.497   2.472   0.839 -0.2964 -0.1557 -0.4524
  179MOL   C20743283   2.528   2.455   0.983  0.1861 -0.0583 -0.3175
  179MOL   O20843284   2.661   2.463   0.999 -0.3169  0.8359 -0.1660
  179MOL   C20943285   2.744   2.362   1.046 -0.0198  0.0566 -0.8028
  179MOL   C21043286   2.890   2.401   1.054  0.6140 -0.0317 -0.8127
  179MOL   O21143287   2.707   2.259   1.093 -0.4297  0.0230  0.0478
  179MOL   H21243288   2.524   2.573   0.809 -3.1680  0.9367  0.5747
  179MOL   H21343289   2.388   2.473   0.837 -0.3370  2.2835  0.8442
  179MOL   H21443290   2.498   2.361   1.028  1.0944  0.0798  0.5994
  179MOL   H21543291   2.903   2.459   0.962 -1.3148  1.7823  0.0057
  179MOL   H21643292   2.949   2.310   1.051  0.3468 -0.2754  0.7751
  179MOL   H21743293   2.906   2.470   1.137  2.4603 -0.3908 -0.8450
  179MOL   C21843294   2.466   2.568   1.067 -0.4263  0.0490  0.8288
  179MOL   C21943295   2.311   2.575   1.079 -1.1947  0.1551 -0.2185
  179MOL   O22043296   2.263   2.465   1.158 -0.1424  0.7325  0.1661
  179MOL   C22143297   2.222   2.349   1.103  0.1404 -0.3343 -0.4277
  179MOL   C22243298   2.162   2.246   1.201  0.2259 -1.0671 -0.6576
  179MOL   O22343299   2.228   2.325   0.987 -0.2506 -0.5449  0.7049
  179MOL   H22443300   2.509   2.551   1.166 -0.5757 -1.6238  0.6145
  179MOL   H22543301   2.502   2.667   1.039 -1.4005  0.0223 -0.5220
  179MOL   H22643302   2.268   2.562   0.980 -0.8940 -0.4828 -0.2698
  179MOL   H22743303   2.202   2.270   1.300  1.2342 -1.3640 -0.9857
  179MOL   H22843304   2.197   2.144   1.183 -0.0704 -1.4108  0.6649
  179MOL   H22943305   2.054   2.255   1.209 -0.0108 -2.7962 -1.5644
  179MOL   C23043306   2.267   2.698   1.153  0.2164 -0.0354  0.2615
  179MOL   C23143307   2.119   2.711   1.184  0.5893 -0.1438  0.4027
  179MOL   O23243308   2.101   2.758   1.319 -0.1619  0.2967  0.3436
  179MOL   C23343309   2.051   2.879   1.340  0.4252 -0.0891 -0.3346
  179MOL   C23443310   2.019   2.905   1.488 -0.1426 -0.3570  0.3495
  179MOL   O23543311   2.022   2.965   1.254 -0.8881 -0.3015  0.5797
  179MOL   H23643312   2.315   2.698   1.251  0.9971 -0.8287 -0.1149
  179MOL   H23743313   2.301   2.786   1.099  0.1053 -0.0809  0.1176
  179MOL   H23843314   2.065   2.617   1.190  0.2734 -0.0496 -0.7704
  179MOL   H23943315   2.102   2.865   1.545  0.8170  1.5304  0.3177
  179MOL   H24043316   1.925   2.860   1.518  1.0772 -1.2288  2.9720
  179MOL   H24143317   2.011   3.012   1.506 -1.4341 -0.2978 -0.5361
  179MOL   H24243318   2.058   2.766   1.112  1.1104 -1.4921 -1.1145
  180MOL     C143319   3.477   4.382   5.108  0.1530 -0.1054 -0.4159
  180MOL     C243320   3.589   4.418   5.201 -0.3387  0.1041  0.0239
  180MOL     O343321   3.615   4.309   5.288 -0.0668  0.5797 -0.9144
  180MOL     C443322   3.544   4.295   5.402  0.1170 -0.1067  0.1914
  180MOL     C543323   3.601   4.175   5.480  0.6727 -0.2641  0.3530
  180MOL     O643324   3.449   4.360   5.441 -0.0977 -0.1321  0.4570
  180MOL     H743325   3.468   4.459   5.031  2.4968  1.0923  0.4473
  180MOL     H843326   3.386   4.368   5.165  1.4293  0.6172  1.8779
  180MOL     H943327   3.560   4.506   5.258 -0.7023 -0.0325  0.0527
  180MOL    H1043328   3.665   4.121   5.409  1.5077  1.3272 -0.1341
  180MOL    H1143329   3.517   4.116   5.517 -1.2816  1.3727 -1.3695
  180MOL    H1243330   3.669   4.205   5.559  1.3740  1.4582 -0.8756
  180MOL    H1343331   3.493   4.287   5.058 -1.1620  0.1070 -1.2767
  180MOL    C1443332   3.711   4.463   5.111  1.1289  0.2814  0.0951
  180MOL    C1543333   3.842   4.482   5.195 -0.4056  0.7247 -0.9142
  180MOL    O1643334   3.895   4.351   5.234  0.1323 -0.0081  0.0598
  180MOL    C1743335   3.905   4.319   5.365  0.0277  0.2568 -0.3993
  180MOL    C1843336   3.977   4.193   5.393 -0.1978 -0.1063  0.4340
  180MOL    O1943337   3.848   4.386   5.454  0.0932 -0.7702 -0.1840
  180MOL    H2043338   3.727   4.380   5.042  0.9045 -1.5833  2.2029
  180MOL    H2143339   3.687   4.554   5.056 -1.8815 -1.8316 -2.2953
  180MOL    H2243340   3.819   4.535   5.288  0.6694 -1.3612  0.5974
  180MOL    H2343341   3.965   4.189   5.501 -1.3961  0.1815  0.3249
  180MOL    H2443342   4.075   4.217   5.353 -0.9611  0.9202 -0.8600
  180MOL    H2543343   3.922   4.112   5.344 -1.4025  1.2056 -0.4347
  180MOL    C2643344   3.950   4.562   5.126  0.2765  0.8936 -0.3567
  180MOL    C2743345   3.932   4.710   5.125 -0.5573  0.2016 -0.4739
  180MOL    O2843346   3.973   4.751   5.259  0.4660 -0.1853  0.2859
  180MOL    C2943347   3.903   4.837   5.339 -0.6692  0.1326  0.5927
  180MOL    C3043348   3.979   4.880   5.464 -0.2578 -0.3868  0.6816
  180MOL    O3143349   3.797   4.884   5.313 -0.1639  0.5382  0.0177
  180MOL    H3243350   4.046   4.535   5.170  0.8409  1.8271 -0.9815
  180MOL    H3343351   3.949   4.540   5.019  1.1504  3.8167 -1.0262
  180MOL    H3443352   3.827   4.739   5.117 -0.7317 -0.4071 -0.3759
  180MOL    H3543353   4.080   4.910   5.434 -0.3938  2.0820  2.5575
  180MOL    H3643354   3.976   4.793   5.529 -0.8113 -0.9322 -0.0697
  180MOL    H3743355   3.924   4.961   5.513 -0.7096 -0.4288  0.2383
  180MOL    C3843356   4.029   4.793   5.031  0.6679 -0.0918 -0.6201
  180MOL    C3943357   3.999   4.943   5.037 -0.1608 -0.5726  0.0992
  180MOL    O4043358   4.112   5.013   4.987  0.2333  0.2949 -0.1776
  180MOL    C4143359   4.218   5.040   5.069  0.0477 -0.3252 -0.5285
  180MOL    C4243360   4.324   5.126   5.002 -0.5356  0.4014 -0.5008
  180MOL    O4343361   4.227   5.009   5.187  0.2515 -0.0334  0.3990
  180MOL    H4443362   4.131   4.781   5.066  0.2650 -1.8988  0.0243
  180MOL    H4543363   4.013   4.753   4.930 -0.4126 -1.8180  0.2079
  180MOL    H4643364   3.967   4.979   5.135 -0.4465  0.9299 -0.5314
  180MOL    H4743365   4.418   5.071   5.002 -0.4045  0.6252 -0.7026
  180MOL    H4843366   4.346   5.204   5.075  0.0102 -1.3039  1.2028
  180MOL    H4943367   4.290   5.165   4.906  0.1417 -1.4641 -1.5288
  180MOL    C5043368   3.874   4.977   4.949  0.4070 -0.1908 -0.0530
  180MOL    C5143369   3.831   5.126   4.959  0.2907 -0.5255 -0.8666
  180MOL    O5243370   3.769   5.161   4.837 -0.5126 -0.9485 -0.0448
  180MOL    C5343371   3.835   5.244   4.745  0.4708 -0.5183 -0.0751
  180MOL    C5443372   3.754   5.295   4.630  0.1622 -0.1742  0.7086
  180MOL    O5543373   3.954   5.276   4.751  0.0984 -0.0214  0.0536
  180MOL    H5643374   3.898   4.948   4.847  1.6421  1.3011 -0.2224
  180MOL    H5743375   3.787   4.913   4.965 -0.9855  1.2544 -1.6632
  180MOL    H5843376   3.927   5.178   4.959  0.1723 -0.3032 -1.1963
  180MOL    H5943377   3.774   5.402   4.630  0.6458 -0.2551 -0.4698
  180MOL    H6043378   3.649   5.269   4.639  0.2173 -0.9547 -0.7927
  180MOL    H6143379   3.790   5.252   4.536  1.7975  1.5067  0.5279
  180MOL    C6243380   3.738   5.160   5.078  0.2019 -0.1471 -0.3242
  180MOL    C6343381   3.697   5.308   5.094 -0.1528 -0.2160 -0.4837
  180MOL    O6443382   3.605   5.343   5.001  0.2220  0.0737  0.0805
  180MOL    C6543383   3.597   5.458   4.947  0.8490  0.3683 -0.3218
  180MOL    C6643384   3.489   5.448   4.837  0.5326 -0.2832 -0.1626
  180MOL    O6743385   3.673   5.553   4.967 -0.3102 -0.3562 -0.4409
  180MOL    H6843386   3.643   5.108   5.069  1.3780 -2.1419 -1.3189
  180MOL    H6943387   3.780   5.127   5.173  1.3062  0.7248 -0.4956
  180MOL    H7043388   3.790   5.362   5.081 -0.2865 -0.0334 -0.6970
  180MOL    H7143389   3.524   5.444   4.734 -0.7687  1.4639 -0.6908
  180MOL    H7243390   3.418   5.531   4.838  1.6007  0.6841 -1.8922
  180MOL    H7343391   3.437   5.352   4.834 -1.0683  0.5512  0.2449
  180MOL    C7443392   3.641   5.336   5.240 -0.4384 -0.3760  0.8292
  180MOL    C7543393   3.721   5.297   5.368 -0.5217 -0.2817  0.9537
  180MOL    O7643394   3.848   5.368   5.353 -0.5881  0.3001  0.1293
  180MOL    C7743395   3.965   5.308   5.398  0.1705 -1.0796  0.8666
  180MOL    C7843396   4.088   5.402   5.385 -0.0668  0.1272  0.1148
  180MOL    O7943397   3.976   5.191   5.440 -0.6508  0.5138 -0.5451
  180MOL    H8043398   3.608   5.439   5.257  2.4105  0.7312 -0.0737
  180MOL    H8143399   3.549   5.279   5.251  0.0773 -1.4046 -0.1496
  180MOL    H8243400   3.728   5.189   5.372  0.7147 -0.2614 -0.2607
  180MOL    H8343401   4.175   5.355   5.429 -1.0235 -0.8888  0.9289
  180MOL    H8443402   4.078   5.499   5.433  0.6537 -0.2269  0.9799
  180MOL    H8543403   4.109   5.425   5.280  2.3117 -2.2539  0.0183
  180MOL    C8643404   3.659   5.345   5.500  0.0706  0.1345  0.2982
  180MOL    C8743405   3.735   5.310   5.628  1.1427 -0.2280 -0.1763
  180MOL    O8843406   3.688   5.398   5.732 -0.7770  0.2280  0.1260
  180MOL    C8943407   3.764   5.492   5.793 -0.9301 -0.1183 -0.0981
  180MOL    C9043408   3.696   5.586   5.895 -0.1843  0.2435 -0.1331
  180MOL    O9143409   3.887   5.506   5.772  0.3711  0.0254 -0.3137
  180MOL    H9243410   3.644   5.453   5.487  1.9932  0.3460 -0.2735
  180MOL    H9343411   3.557   5.308   5.505 -0.3681  1.1496 -0.9094
  180MOL    H9443412   3.838   5.341   5.609  1.0190  1.7315  2.1310
  180MOL    H9543413   3.771   5.620   5.967  2.5389  0.6175 -3.0339
  180MOL    H9643414   3.622   5.536   5.957 -2.1581  1.7508 -1.2034
  180MOL    H9743415   3.651   5.674   5.848 -0.4828  1.3392  2.1569
  180MOL    C9843416   3.725   5.169   5.679  0.5701  0.2845  0.2132
  180MOL    C9943417   3.777   5.144   5.822 -0.3266 -0.3468 -0.0505
  180MOL   O10043418   3.675   5.166   5.913 -0.1039 -0.3144  0.2645
  180MOL   C10143419   3.688   5.240   6.029 -0.2874 -0.3580 -0.9404
  180MOL   C10243420   3.567   5.241   6.123 -0.5721  0.2415 -0.1460
  180MOL   O10343421   3.797   5.287   6.064  0.4579  0.2768  0.2029
  180MOL   H10443422   3.624   5.128   5.684  0.9303 -0.4621  1.7343
  180MOL   H10543423   3.776   5.111   5.602  1.0803  1.0432 -0.0267
  180MOL   H10643424   3.863   5.210   5.838 -0.3500 -0.0378 -1.1747
  180MOL   H10743425   3.541   5.346   6.136  2.1197  0.9377 -0.2644
  180MOL   H10843426   3.606   5.187   6.210 -0.1399  0.8653  0.0527
  180MOL   H10943427   3.477   5.194   6.082  0.7259 -0.3438 -2.3721
  180MOL   C11043428   3.825   4.995   5.831  0.2922 -1.1915  0.4073
  180MOL   C11143429   3.863   4.940   5.968 -0.2780 -0.4343  0.0574
  180MOL   O11243430   3.758   4.915   6.059  0.0558 -0.2733 -0.4476
  180MOL   C11343431   3.771   4.934   6.186  0.1179  0.6509 -0.1102
  180MOL   C11443432   3.651   4.891   6.272  0.2643  0.3932  0.3474
  180MOL   O11543433   3.872   4.974   6.241  0.1699  0.9914  0.0262
  180MOL   H11643434   3.745   4.934   5.790 -1.4305  0.7800  0.7113
  180MOL   H11743435   3.904   4.985   5.757 -0.6237  0.8665 -0.9124
  180MOL   H11843436   3.907   5.024   6.023  0.1830 -0.4912 -0.2230
  180MOL   H11943437   3.564   4.889   6.207 -0.5436  0.9343  1.3913
  180MOL   H12043438   3.630   4.978   6.334  2.0885 -0.8652  2.8127
  180MOL   H12143439   3.659   4.807   6.341 -2.4015  0.5895  0.9526
  180MOL   C12243440   3.954   4.821   5.953 -0.6362 -0.4099  0.5327
  180MOL   C12343441   3.884   4.687   5.926 -0.1473  0.1657  0.0170
  180MOL   O12443442   3.861   4.689   5.785 -0.3537  0.4007 -0.3232
  180MOL   C12543443   3.747   4.648   5.738  0.0860 -0.2663  0.3129
  180MOL   C12643444   3.723   4.657   5.589 -0.1756  0.4784 -0.0701
  180MOL   O12743445   3.647   4.613   5.803  0.3892 -0.5422 -0.3642
  180MOL   H12843446   4.029   4.833   5.876 -1.5440  0.3007 -0.2427
  180MOL   H12943447   4.014   4.819   6.045 -0.3793  2.0922  0.4401
  180MOL   H13043448   3.790   4.666   5.977  0.0740 -1.7424 -0.3368
  180MOL   H13143449   3.656   4.583   5.545  0.2797 -0.6775  1.1703
  180MOL   H13243450   3.817   4.662   5.534 -0.1957 -0.3913 -0.1896
  180MOL   H13343451   3.679   4.755   5.574 -0.3024  0.3257 -0.7425
  180MOL   C13443452   3.969   4.562   5.958 -0.0135 -0.1175  0.2759
  180MOL   C13543453   4.001   4.527   6.102  0.2245  0.5763  0.4052
  180MOL   O13643454   3.884   4.482   6.147 -0.5247 -0.0708  0.4551
  180MOL   C13743455   3.817   4.537   6.252  0.4868  0.3001  0.0948
  180MOL   C13843456   3.661   4.525   6.245  0.0861 -0.2675  0.0147
  180MOL   O13943457   3.866   4.604   6.335  0.4573  0.3612 -0.7487
  180MOL   H14043458   3.920   4.478   5.910  1.7467 -0.6538 -0.6247
  180MOL   H14143459   4.057   4.578   5.896 -1.1909  1.6382 -1.0246
  180MOL   H14243460   4.039   4.617   6.151 -0.4243  0.0583  1.8573
  180MOL   H14343461   3.633   4.422   6.224 -0.9781  0.4789 -2.4228
  180MOL   H14443462   3.621   4.575   6.157  1.0420  0.9822  0.2767
  180MOL   H14543463   3.615   4.560   6.337 -0.6667 -1.0494 -0.0588
  180MOL   C14643464   4.111   4.415   6.115  0.0260  0.1206 -0.7203
  180MOL   C14743465   4.154   4.374   6.254 -0.6739  0.1237 -0.2651
  180MOL   O14843466   4.050   4.333   6.337 -0.7884 -0.7388  0.4033
  180MOL   C14943467   4.049   4.360   6.472 -0.4184 -0.6124 -0.2070
  180MOL   C15043468   3.914   4.335   6.543  0.2911  0.7059 -0.8661
  180MOL   O15143469   4.149   4.393   6.534  0.0418 -0.3659 -0.4135
  180MOL   H15243470   4.084   4.328   6.055  1.6934  0.1118 -1.4971
  180MOL   H15343471   4.197   4.458   6.063 -0.4047 -0.3516 -1.8448
  180MOL   H15443472   4.194   4.468   6.294  0.4274 -1.5558  2.7422
  180MOL   H15543473   3.847   4.288   6.472 -0.2791  2.5301 -1.5764
  180MOL   H15643474   3.868   4.430   6.570  0.5971  0.4615  0.5639
  180MOL   H15743475   3.922   4.273   6.632  1.2692  0.6601 -0.9817
  180MOL   C15843476   4.272   4.273   6.252 -0.1834  0.9644  0.3397
  180MOL   C15943477   4.411   4.347   6.240 -0.8246  0.1291 -0.3100
  180MOL   O16043478   4.436   4.402   6.370 -0.1780 -0.1990 -0.4806
  180MOL   C16143479   4.502   4.518   6.384 -0.2236  0.1402 -0.2243
  180MOL   C16243480   4.540   4.556   6.522 -0.6378  0.0314  0.5202
  180MOL   O16343481   4.535   4.589   6.286  0.3846  0.5689 -0.1897
  180MOL   H16443482   4.282   4.202   6.334 -1.3015 -0.1790 -0.5068
  180MOL   H16543483   4.255   4.217   6.161 -0.1440 -0.6668  1.3216
  180MOL   H16643484   4.413   4.426   6.165  0.1261  1.3742  0.9969
  180MOL   H16743485   4.649   4.558   6.529 -0.5901 -2.3436  0.8448
  180MOL   H16843486   4.503   4.485   6.596 -1.4391 -2.7638 -2.4765
  180MOL   H16943487   4.494   4.651   6.548 -0.3603  1.0941 -2.6618
  180MOL   C17043488   4.531   4.250   6.217  0.1346  0.7256  0.4688
  180MOL   C17143489   4.635   4.310   6.118 -0.3789 -0.4320  0.4524
  180MOL   O17243490   4.753   4.237   6.133  0.5032  0.3325 -0.0052
  180MOL   C17343491   4.861   4.279   6.195  0.1931  0.1092 -0.7414
  180MOL   C17443492   4.977   4.178   6.203  0.4676  0.1973  0.2964
  180MOL   O17543493   4.878   4.387   6.241 -0.4134  0.4246  0.2455
  180MOL   H17643494   4.577   4.238   6.315 -0.5225 -1.2034  0.5573
  180MOL   H17743495   4.494   4.156   6.176  0.7576  0.5819  0.2320
  180MOL   H17843496   4.638   4.417   6.138 -3.6725 -0.1749 -0.2408
  180MOL   H17943497   5.045   4.189   6.119  0.4439 -2.4339 -0.1030
  180MOL   H18043498   4.933   4.078   6.203  0.9506 -0.0184  0.1878
  180MOL   H18143499   5.046   4.196   6.286  0.9558  0.2016 -0.1090
  180MOL   C18243500   4.587   4.297   5.972  0.3851 -0.0066 -0.3590
  180MOL   C18343501   4.647   4.409   5.882 -0.4173  0.2393 -0.1707
  180MOL   O18443502   4.778   4.356   5.833  0.0104  1.4019 -0.9196
  180MOL   C18543503   4.887   4.436   5.815 -0.0786 -0.5119 -1.1191
  180MOL   C18643504   5.007   4.351   5.787 -0.0396  0.7318  0.1738
  180MOL   O18743505   4.897   4.561   5.826  0.1429  0.0396  0.2666
  180MOL   H18843506   4.595   4.197   5.929  0.1195 -1.1120  2.0809
  180MOL   H18943507   4.480   4.313   5.962  0.0215 -2.1227 -0.1441
  180MOL   H19043508   4.665   4.497   5.943  1.0930 -0.2257  0.0575
  180MOL   H19143509   5.081   4.394   5.719 -0.0489  0.3364 -0.0842
  180MOL   H19243510   4.972   4.255   5.750  0.3893  0.8294 -0.5074
  180MOL   H19343511   5.060   4.325   5.878  1.5826 -0.3745 -1.0548
  180MOL   C19443512   4.556   4.453   5.768  0.9541 -0.4367  0.2907
  180MOL   C19543513   4.432   4.528   5.820  0.3914 -1.2835  0.0439
  180MOL   O19643514   4.472   4.641   5.887 -0.0296 -0.3655  0.5327
  180MOL   C19743515   4.399   4.709   5.972  0.0766 -0.1263  0.5685
  180MOL   C19843516   4.477   4.820   6.041  0.5945 -0.2118  0.3260
  180MOL   O19943517   4.279   4.692   5.996  0.2053 -0.4360  0.2427
  180MOL   H20043518   4.605   4.521   5.699 -0.3366  2.7342  2.3665
  180MOL   H20143519   4.533   4.357   5.720 -2.5991  0.7177 -0.5324
  180MOL   H20243520   4.370   4.459   5.877  0.2147  0.6885  2.3368
  180MOL   H20343521   4.407   4.903   6.057 -2.5219 -2.0146 -3.1945
  180MOL   H20443522   4.548   4.861   5.969 -1.5658  0.5865 -1.4211
  180MOL   H20543523   4.533   4.787   6.128  0.7171  0.3193  0.4529
  180MOL   C20643524   4.351   4.580   5.695  0.3245  0.2641  0.0203
  180MOL   C20743525   4.299   4.460   5.597 -0.1118  0.2834 -0.2597
  180MOL   O20843526   4.216   4.370   5.665  0.3027 -0.0251  0.1764
  180MOL   C20943527   4.248   4.252   5.692 -0.0250  0.8013 -0.0361
  180MOL   C21043528   4.137   4.180   5.764 -0.3036  0.4278 -0.0266
  180MOL   O21143529   4.355   4.197   5.661 -0.3917  0.0809  0.6967
  180MOL   H21243530   4.261   4.633   5.725 -0.3911 -0.8124 -0.1762
  180MOL   H21343531   4.409   4.644   5.629 -1.3093  0.2666 -1.4480
  180MOL   H21443532   4.383   4.409   5.551 -0.3213 -0.6976  0.4286
  180MOL   H21543533   4.042   4.234   5.764  1.6083  3.9194  0.2623
  180MOL   H21643534   4.156   4.169   5.871 -0.7488  2.3669  0.2723
  180MOL   H21743535   4.121   4.082   5.719  0.6898  0.6978 -0.9716
  180MOL   C21843536   4.221   4.511   5.477 -0.5928  0.1855  0.2663
  180MOL   C21943537   4.302   4.533   5.344  0.2178  0.6560 -0.1429
  180MOL   O22043538   4.371   4.656   5.353 -0.8749  0.2395 -0.2050
  180MOL   C22143539   4.397   4.729   5.251 -0.4687 -0.3380  0.0744
  180MOL   C22243540   4.488   4.852   5.286  1.4795 -0.0760 -0.1466
  180MOL   O22343541   4.370   4.695   5.136 -0.7003  0.4532  0.1331
  180MOL   H22443542   4.150   4.434   5.447 -1.5162  1.5450 -1.0856
  180MOL   H22543543   4.160   4.594   5.511  0.4487  0.9606  0.2839
  180MOL   H22643544   4.222   4.546   5.271 -0.3760 -0.5339  0.2886
  180MOL   H22743545   4.481   4.855   5.395  0.6865 -1.5837 -0.1453
  180MOL   H22843546   4.445   4.944   5.246  1.3140  1.3708  3.1296
  180MOL   H22943547   4.592   4.839   5.255  1.2461 -0.0692 -0.9390
  180MOL   C23043548   4.391   4.413   5.300  0.3356 -0.5107 -0.6575
  180MOL   C23143549   4.337   4.270   5.325  0.0009  0.1697  0.2463
  180MOL   O23243550   4.451   4.176   5.322  0.1925 -0.1948 -0.0097
  180MOL   C23343551   4.427   4.043   5.300  0.7245  0.7594  0.1608
  180MOL   C23443552   4.555   3.967   5.275  0.3769  0.1039 -0.3980
  180MOL   O23543553   4.313   3.996   5.288  0.3284 -0.6205 -0.4058
  180MOL   H23643554   4.412   4.420   5.194 -1.6890  1.5852 -0.9513
  180MOL   H23743555   4.481   4.427   5.360  0.0343 -0.6181 -0.1726
  180MOL   H23843556   4.262   4.251   5.248  0.2546  0.7257 -0.1362
  180MOL   H23943557   4.631   4.018   5.334  1.2291 -1.7124  0.1222
  180MOL   H24043558   4.594   3.980   5.174  0.8042  0.9083 -0.1348
  180MOL   H24143559   4.556   3.864   5.311  0.7663  0.5707  0.9478
  180MOL   H24243560   4.286   4.260   5.420 -2.1119 -3.3295 -1.1218
  181MOL     C143561   3.068   5.710   0.533  0.0066 -0.5207  0.2584
  181MOL     C243562   3.001   5.631   0.645 -0.3454  0.1165  0.9757
  181MOL     O343563   3.046   5.673   0.771 -0.0997  0.2418 -0.6552
  181MOL     C443564   3.175   5.661   0.809 -1.0604  0.3851 -0.0386
  181MOL     C543565   3.194   5.725   0.944  0.2804 -0.1729  0.7795
  181MOL     O643566   3.271   5.605   0.748  0.2091  0.1160  0.2359
  181MOL     H743567   3.020   5.700   0.436  0.9022  2.3388 -0.5271
  181MOL     H843568   3.174   5.688   0.523  0.5420  1.4007  1.4690
  181MOL     H943569   3.016   5.524   0.629 -0.6268  0.0385  1.2224
  181MOL    H1043570   3.095   5.747   0.984 -0.1591  1.6591 -1.2569
  181MOL    H1143571   3.256   5.814   0.938 -1.4821  0.9592 -1.8102
  181MOL    H1243572   3.250   5.659   1.010  1.8131  1.3332  1.0233
  181MOL    H1343573   3.067   5.814   0.566  1.0352 -0.6565  0.7123
  181MOL    C1443574   2.844   5.647   0.651 -0.4863  0.1377 -0.6600
  181MOL    C1543575   2.780   5.552   0.751  0.3770 -0.1518 -0.0489
  181MOL    O1643576   2.637   5.570   0.746 -0.3824 -0.5995  0.0489
  181MOL    C1743577   2.566   5.577   0.861 -0.1117 -0.3133 -0.5455
  181MOL    C1843578   2.418   5.628   0.836 -0.6534  0.1867 -0.3587
  181MOL    O1943579   2.614   5.554   0.969 -0.4214  0.3608 -0.0858
  181MOL    H2043580   2.820   5.751   0.675 -0.1092 -0.1458  1.0082
  181MOL    H2143581   2.796   5.621   0.557 -0.8323 -2.8106  0.3016
  181MOL    H2243582   2.823   5.587   0.844 -0.4664  1.0199 -0.0917
  181MOL    H2343583   2.377   5.688   0.918 -0.2072  0.7217 -0.5246
  181MOL    H2443584   2.353   5.543   0.815 -1.4683  1.1509 -1.8229
  181MOL    H2543585   2.410   5.685   0.744 -0.9042  0.4828 -0.1570
  181MOL    C2643586   2.803   5.402   0.735  0.7085  0.4085  0.0832
  181MOL    C2743587   2.912   5.348   0.828 -0.3776 -0.0130 -0.4261
  181MOL    O2843588   2.869   5.340   0.966  0.0782  0.8289  0.1926
  181MOL    C2943589   2.928   5.409   1.059 -0.0155  0.0639  0.0956
  181MOL    C3043590   2.868   5.379   1.195 -0.4026  0.0564 -0.1861
  181MOL    O3143591   3.009   5.504   1.044 -1.3539  0.1578  0.6162
  181MOL    H3243592   2.716   5.341   0.760  1.9535 -1.7624 -0.8192
  181MOL    H3343593   2.820   5.381   0.630 -1.5715  1.1690 -0.4702
  181MOL    H3443594   3.008   5.399   0.834 -0.1532 -0.5149  0.3319
  181MOL    H3543595   2.941   5.351   1.271 -1.3829 -0.0336  0.7270
  181MOL    H3643596   2.792   5.301   1.200 -2.5302  2.1440  0.9929
  181MOL    H3743597   2.821   5.472   1.228  2.1235  1.5512 -0.6835
  181MOL    C3843598   2.955   5.206   0.780 -0.0595  0.3097  0.1137
  181MOL    C3943599   3.046   5.111   0.859  0.3217 -0.4322 -0.1123
  181MOL    O4043600   3.165   5.176   0.903 -0.6957  0.0973 -0.1561
  181MOL    C4143601   3.269   5.213   0.820 -0.3539 -0.1136  0.0269
  181MOL    C4243602   3.380   5.286   0.903  0.4811  0.4125  0.8063
  181MOL    O4343603   3.280   5.191   0.700 -0.1257 -0.0368 -0.5613
  181MOL    H4443604   2.859   5.157   0.760 -1.3366  2.6233  0.4251
  181MOL    H4543605   2.999   5.216   0.681  0.5251 -0.3931  0.2948
  181MOL    H4643606   3.083   5.035   0.789 -0.9594  1.4303 -2.9031
  181MOL    H4743607   3.393   5.232   0.996  0.6461  0.2429  0.6864
  181MOL    H4843608   3.357   5.392   0.909  1.5026  0.7702 -1.0430
  181MOL    H4943609   3.479   5.275   0.858 -0.2593  0.1818 -0.8145
  181MOL    C5043610   2.971   5.055   0.979  0.0118 -0.5162  0.7799
  181MOL    C5143611   3.045   4.955   1.068  0.4686 -0.1721  0.1859
  181MOL    O5243612   2.941   4.895   1.151 -0.4421 -0.1676 -0.2093
  181MOL    C5343613   2.899   4.956   1.260 -0.6561 -1.0536 -0.7516
  181MOL    C5443614   2.806   4.870   1.342 -0.2127 -0.2883  0.3763
  181MOL    O5543615   2.926   5.073   1.289  0.6892  0.0881  0.0904
  181MOL    H5643616   2.944   5.140   1.042 -2.7911 -1.3498  0.7597
  181MOL    H5743617   2.882   5.012   0.934  0.0846  1.5971 -1.4974
  181MOL    H5843618   3.116   5.003   1.135 -2.3528  2.7577  1.2209
  181MOL    H5943619   2.846   4.866   1.443 -1.4653 -0.4867  0.8576
  181MOL    H6043620   2.797   4.770   1.301 -0.5692  0.1420 -0.6093
  181MOL    H6143621   2.713   4.926   1.348 -0.8751 -1.5112  1.9513
  181MOL    C6243622   3.111   4.842   0.994  0.0713 -0.5549  1.0898
  181MOL    C6343623   3.255   4.863   0.933 -0.5223  0.0922  0.9757
  181MOL    O6443624   3.334   4.910   1.040 -0.6638  0.1128 -0.2271
  181MOL    C6543625   3.454   4.957   1.020  0.1562  0.6578  0.2031
  181MOL    C6643626   3.517   4.988   1.153  0.2291 -0.0258 -0.3000
  181MOL    O6743627   3.506   4.977   0.913  0.1042 -0.4434 -0.3242
  181MOL    H6843628   3.114   4.752   1.055  0.3473 -0.4501  1.2270
  181MOL    H6943629   3.044   4.818   0.911 -0.0893  0.2670  0.9735
  181MOL    H7043630   3.247   4.949   0.867  1.6424  0.4943  1.2079
  181MOL    H7143631   3.608   4.930   1.168  0.9190  1.0855 -0.0952
  181MOL    H7243632   3.457   4.962   1.240 -0.8392 -0.7399 -1.2466
  181MOL    H7343633   3.535   5.096   1.155 -1.4905  0.2939 -1.5987
  181MOL    C7443634   3.304   4.739   0.860 -0.4277  0.2807  0.3480
  181MOL    C7543635   3.272   4.722   0.709  0.3706  0.2086 -0.3292
  181MOL    O7643636   3.137   4.709   0.674  0.0914  0.7029 -0.4129
  181MOL    C7743637   3.096   4.601   0.594  0.3293  0.4476  0.5314
  181MOL    C7843638   2.944   4.578   0.592 -0.3643 -0.2252  0.0086
  181MOL    O7943639   3.166   4.516   0.548 -1.0022  0.6021  0.1927
  181MOL    H8043640   3.413   4.743   0.865 -0.3105 -0.4958 -1.3794
  181MOL    H8143641   3.269   4.649   0.911  1.2546  0.0997  1.2213
  181MOL    H8243642   3.329   4.634   0.679  3.9066  1.4846  2.3340
  181MOL    H8343643   2.924   4.471   0.600 -2.8333  0.0549 -2.1113
  181MOL    H8443644   2.904   4.613   0.497 -2.5251 -2.1719  0.1707
  181MOL    H8543645   2.898   4.639   0.669 -0.1199  0.2709 -0.2388
  181MOL    C8643646   3.329   4.831   0.620  0.6006  0.0260  0.4427
  181MOL    C8743647   3.479   4.835   0.603  0.8759  0.3977  0.1757
  181MOL    O8843648   3.524   4.717   0.534 -0.2215  0.6274  0.3550
  181MOL    C8943649   3.601   4.624   0.598 -0.6944 -0.4019  0.4540
  181MOL    C9043650   3.645   4.508   0.502  0.4630 -0.3433  0.5223
  181MOL    O9143651   3.633   4.622   0.714  0.5267  0.0372 -0.2243
  181MOL    H9243652   3.278   4.835   0.524  2.2015  2.7708 -0.3431
  181MOL    H9343653   3.278   4.918   0.662  0.9138 -0.6436  2.2538
  181MOL    H9443654   3.524   4.833   0.702  1.7438  0.2465 -0.2212
  181MOL    H9543655   3.656   4.423   0.569  1.4582 -0.9842 -0.4364
  181MOL    H9643656   3.745   4.521   0.461  0.5677  0.0159  0.8831
  181MOL    H9743657   3.574   4.489   0.421  0.3724 -1.4647  0.8569
  181MOL    C9843658   3.540   4.955   0.524 -0.2652  0.1633 -0.5145
  181MOL    C9943659   3.696   4.972   0.535  0.6481  0.1825 -0.6603
  181MOL   O10043660   3.750   4.906   0.421 -0.1026 -0.5915  0.5379
  181MOL   C10143661   3.829   4.797   0.420 -0.0820  0.1188  0.1551
  181MOL   C10243662   3.872   4.744   0.287  0.2433  0.3458 -0.3530
  181MOL   O10343663   3.887   4.757   0.519  0.5002  0.4185  0.7005
  181MOL   H10443664   3.513   4.943   0.419  2.5629 -0.6639 -1.1740
  181MOL   H10543665   3.490   5.047   0.557  0.3670  0.7420 -1.1463
  181MOL   H10643666   3.723   4.922   0.628 -2.7911  0.6968  0.7026
  181MOL   H10743667   3.933   4.658   0.315 -0.5093 -0.9957 -2.7343
  181MOL   H10843668   3.938   4.814   0.236  1.0131  0.7631  1.1832
  181MOL   H10943669   3.794   4.698   0.226 -0.1300  0.5071 -0.0016
  181MOL   C11043670   3.735   5.120   0.530  0.4041 -0.3210 -0.6170
  181MOL   C11143671   3.857   5.157   0.620  0.7414  0.3667  1.0397
  181MOL   O11243672   3.889   5.296   0.585  0.2461  0.5536 -0.4904
  181MOL   C11343673   3.983   5.320   0.492  0.1679  0.2757 -0.5801
  181MOL   C11443674   3.978   5.466   0.445 -0.0437  0.6606  0.1655
  181MOL   O11543675   4.059   5.241   0.441 -0.4336 -0.0218  0.0146
  181MOL   H11643676   3.751   5.145   0.425 -0.7456 -0.9241 -0.9468
  181MOL   H11743677   3.654   5.186   0.562 -0.1461 -0.2162 -2.1779
  181MOL   H11843678   3.946   5.101   0.592  1.1902  0.8072  1.5717
  181MOL   H11943679   3.982   5.517   0.541 -1.9162 -0.8691  1.0958
  181MOL   H12043680   3.879   5.502   0.418 -0.2935  0.1365  0.3786
  181MOL   H12143681   4.066   5.492   0.386 -0.2485  0.7485 -0.1024
  181MOL   C12243682   3.834   5.150   0.768  0.3492  0.1574 -0.2860
  181MOL   C12343683   3.935   5.214   0.863  0.1774  0.7899 -0.4274
  181MOL   O12443684   3.908   5.174   0.994  0.8337 -0.1287  0.0128
  181MOL   C12543685   3.821   5.238   1.078  0.7607  0.2813 -0.8746
  181MOL   C12643686   3.806   5.183   1.217 -0.5106  1.2244  0.0635
  181MOL   O12743687   3.755   5.335   1.046  0.1438 -0.2113 -0.3542
  181MOL   H12843688   3.740   5.201   0.788  0.9589  0.6418  1.4174
  181MOL   H12943689   3.819   5.047   0.802 -1.0149  1.1656  2.3440
  181MOL   H13043690   3.912   5.320   0.861 -2.5414  0.2382 -0.4860
  181MOL   H13143691   3.827   5.078   1.235 -0.5441  0.8363 -1.9775
  181MOL   H13243692   3.706   5.205   1.254 -0.7658  0.0143  0.1159
  181MOL   H13343693   3.882   5.233   1.276 -1.4128  0.5364  1.8312
  181MOL   C13443694   4.086   5.204   0.842  0.1911 -0.5900  0.1743
  181MOL   C13543695   4.171   5.317   0.911  0.9920  0.1077 -0.0394
  181MOL   O13643696   4.115   5.443   0.888  0.0829  0.4259  0.2344
  181MOL   C13743697   4.157   5.520   0.782  0.1700 -0.1935  0.5399
  181MOL   C13843698   4.076   5.656   0.773  0.2656  0.6511 -0.3278
  181MOL   O13943699   4.248   5.501   0.701 -0.0551  0.6749 -0.0642
  181MOL   H14043700   4.123   5.108   0.878 -0.6804 -1.3162 -0.8191
  181MOL   H14143701   4.110   5.196   0.736 -0.9578 -2.2824  0.0136
  181MOL   H14243702   4.270   5.317   0.865  0.9620 -0.2561 -0.1030
  181MOL   H14343703   4.067   5.694   0.671  0.9539 -0.0801 -0.6652
  181MOL   H14443704   4.146   5.725   0.821  2.1371 -1.1388 -0.4041
  181MOL   H14543705   3.976   5.667   0.815  0.6658  0.6255  0.6515
  181MOL   C14643706   4.185   5.312   1.071  0.4050 -0.1364  0.2051
  181MOL   C14743707   4.270   5.198   1.130 -0.7648  0.6016 -0.5234
  181MOL   O14843708   4.370   5.265   1.204  0.1494  0.6244 -0.5235
  181MOL   C14943709   4.489   5.278   1.158 -0.1339 -0.3580 -0.7637
  181MOL   C15043710   4.586   5.373   1.231  0.1716  0.2404  0.3151
  181MOL   O15143711   4.539   5.234   1.050 -0.1443 -0.2705 -0.6007
  181MOL   H15243712   4.215   5.414   1.093 -1.8699  0.3125  1.3898
  181MOL   H15343713   4.091   5.309   1.126  1.0261  2.8232  1.4882
  181MOL   H15443714   4.322   5.143   1.052 -2.0409  0.8670 -1.5843
  181MOL   H15543715   4.590   5.466   1.173  1.1499 -1.0607 -1.7800
  181MOL   H15643716   4.690   5.342   1.239 -0.0142 -0.6175 -0.5052
  181MOL   H15743717   4.559   5.386   1.336  0.7441  1.1784  0.3578
  181MOL   C15843718   4.188   5.095   1.214 -0.0430 -0.3005  1.0482
  181MOL   C15943719   4.253   4.949   1.188 -0.5700 -0.4538 -0.5054
  181MOL   O16043720   4.385   4.955   1.246  0.5133  0.0208  0.3203
  181MOL   C16143721   4.490   4.925   1.167 -0.5787  0.6981 -0.3842
  181MOL   C16243722   4.627   4.945   1.234 -0.2371  0.0327 -0.0399
  181MOL   O16343723   4.488   4.882   1.052 -0.4938  0.1851 -0.5514
  181MOL   H16443724   4.204   5.112   1.320  2.5124 -1.2356  0.8376
  181MOL   H16543725   4.080   5.098   1.199  0.3243  0.7483 -1.5765
  181MOL   H16643726   4.248   4.919   1.083 -2.1790 -1.5593 -0.1331
  181MOL   H16743727   4.647   4.847   1.275  1.2635  0.6876  0.8165
  181MOL   H16843728   4.625   5.019   1.314  2.9349 -0.0231  0.1403
  181MOL   H16943729   4.708   4.977   1.169 -0.0792  0.1239  0.2035
  181MOL   C17043730   4.172   4.838   1.261 -0.7208 -0.1828  0.0082
  181MOL   C17143731   4.036   4.802   1.199  0.2474  0.1152 -0.7373
  181MOL   O17243732   4.052   4.809   1.063 -0.5926 -0.1742 -0.2585
  181MOL   C17343733   3.954   4.827   0.976  0.0725 -0.1256 -0.4853
  181MOL   C17443734   4.002   4.806   0.839 -0.1349 -0.0911  0.3759
  181MOL   O17543735   3.839   4.852   1.000 -1.2532  0.8700  0.1546
  181MOL   H17643736   4.232   4.748   1.257  0.1128  0.4333 -2.3356
  181MOL   H17743737   4.168   4.857   1.368  0.0940 -1.2511  0.2345
  181MOL   H17843738   3.961   4.875   1.231 -0.0441 -0.9230  1.0432
  181MOL   H17943739   3.915   4.798   0.775 -0.1817  0.9302  0.3086
  181MOL   H18043740   4.057   4.712   0.830 -0.0693  0.3845 -6.2889
  181MOL   H18143741   4.062   4.891   0.807 -0.7565 -0.1065 -0.8441
  181MOL   C18243742   3.989   4.663   1.246  0.8607  0.8993  0.5562
  181MOL   C18343743   3.939   4.653   1.393 -0.5678 -0.8993 -0.7774
  181MOL   O18443744   3.816   4.736   1.396 -0.1021  0.3043 -0.0371
  181MOL   C18543745   3.822   4.863   1.457  0.0525  0.1337 -0.2155
  181MOL   C18643746   3.687   4.943   1.445 -0.4925  0.7591 -0.0488
  181MOL   O18743747   3.920   4.906   1.518 -0.3715  0.1460 -0.1520
  181MOL   H18843748   3.903   4.634   1.185  1.3373  0.6957 -0.0255
  181MOL   H18943749   4.074   4.598   1.230 -0.2095 -0.4863  0.3910
  181MOL   H19043750   4.013   4.687   1.466 -1.6949 -1.6193  0.7317
  181MOL   H19143751   3.643   4.923   1.543 -0.2185 -2.5007 -0.5427
  181MOL   H19243752   3.627   4.903   1.364 -0.2017 -0.7409  0.4648
  181MOL   H19343753   3.706   5.050   1.436  2.2426  0.2197 -1.1969
  181MOL   C19443754   3.896   4.508   1.427  0.2576  0.3462 -0.2236
  181MOL   C19543755   3.907   4.472   1.577  0.0523  0.2489 -0.1884
  181MOL   O19643756   3.844   4.570   1.658  0.5084 -0.5794  0.6213
  181MOL   C19743757   3.904   4.618   1.768 -0.1965  0.0928  0.1367
  181MOL   C19843758   3.815   4.733   1.833  0.0732 -0.1129  0.6174
  181MOL   O19943759   4.016   4.589   1.808 -0.0459 -0.0125 -0.1043
  181MOL   H20043760   3.794   4.481   1.397  0.8218 -0.9983 -0.9756
  181MOL   H20143761   3.968   4.436   1.391 -0.1549 -1.8183  3.0326
  181MOL   H20243762   4.012   4.464   1.603  0.1114  0.6726 -0.2971
  181MOL   H20343763   3.715   4.732   1.790 -0.2862  2.4052  1.3081
  181MOL   H20443764   3.862   4.829   1.812  2.0929 -0.9711  1.0842
  181MOL   H20543765   3.796   4.724   1.940  0.1031 -1.4301  0.5293
  181MOL   C20643766   3.838   4.337   1.590  0.1013 -0.2024 -0.0674
  181MOL   C20743767   3.863   4.255   1.719  0.4585  0.0251 -0.2111
  181MOL   O20843768   3.812   4.118   1.694  0.0779  0.2929  0.5713
  181MOL   C20943769   3.685   4.088   1.722 -0.4071 -0.8418 -0.3930
  181MOL   C21043770   3.665   3.936   1.727 -0.1171  0.0573 -0.1240
  181MOL   O21143771   3.593   4.164   1.745  0.0989 -0.5225 -0.3424
  181MOL   H21243772   3.731   4.354   1.579 -0.2195 -1.4080  1.0396
  181MOL   H21343773   3.869   4.275   1.506  0.6512 -0.1883  0.1252
  181MOL   H21443774   3.816   4.300   1.806 -1.2230 -1.1473 -0.4791
  181MOL   H21543775   3.562   3.901   1.734  0.2624 -0.9133  0.6723
  181MOL   H21643776   3.713   3.900   1.818  1.4957 -1.6994 -1.6457
  181MOL   H21743777   3.701   3.888   1.637 -2.1048 -0.1570 -0.8300
  181MOL   C21843778   4.013   4.231   1.752 -0.7395  0.1485 -0.5003
  181MOL   C21943779   4.031   4.143   1.872 -0.3546  0.1013 -1.0108
  181MOL   O22043780   4.173   4.122   1.888  0.0588  0.3547  0.6041
  181MOL   C22143781   4.247   4.057   1.790 -0.0184 -0.5436 -0.1588
  181MOL   C22243782   4.399   4.074   1.799 -0.2109 -0.2531 -0.4768
  181MOL   O22343783   4.202   3.983   1.702 -0.1233 -0.5074 -0.4915
  181MOL   H22443784   4.066   4.195   1.664  0.7921  1.8755 -0.2983
  181MOL   H22543785   4.051   4.333   1.759 -0.2044 -0.1062  0.3291
  181MOL   H22643786   3.980   4.047   1.864 -2.5591  1.1608 -0.1971
  181MOL   H22743787   4.454   3.984   1.826 -0.1848  0.1822  0.9763
  181MOL   H22843788   4.424   4.152   1.871 -0.3622 -0.6578  0.0212
  181MOL   H22943789   4.436   4.100   1.700  0.6050 -1.0382 -0.3817
  181MOL   C23043790   3.984   4.194   2.008  0.6172  0.2088  0.3260
  181MOL   C23143791   4.013   4.103   2.124 -0.2766  0.1061  0.6734
  181MOL   O23243792   3.993   4.167   2.247  0.1610  0.3286 -0.2540
  181MOL   C23343793   4.015   4.106   2.372 -0.0670  0.7199 -0.1225
  181MOL   C23443794   3.998   4.189   2.494 -0.1003 -0.3082  0.4502
  181MOL   O23543795   4.053   3.992   2.379  0.1463  0.1275 -0.3780
  181MOL   H23643796   4.049   4.281   2.023  0.7411  0.3019 -0.7180
  181MOL   H23743797   3.885   4.239   2.011  0.5310  0.0210  0.2875
  181MOL   H23843798   4.120   4.080   2.129 -0.3220 -0.2381 -0.0070
  181MOL   H23943799   3.935   4.272   2.462  2.6656  1.0690 -1.5808
  181MOL   H24043800   4.089   4.233   2.533 -0.5246 -0.1032  1.2223
  181MOL   H24143801   3.938   4.136   2.569  1.4003 -0.5004  1.5306
  181MOL   H24243802   3.949   4.016   2.109  1.1865 -0.5179 -2.2830
  182MOL     C143803   4.588   2.343   7.268 -0.5086 -0.2998 -0.4823
  182MOL     C243804   4.719   2.372   7.209 -0.2540 -0.3843 -0.3973
  182MOL     O343805   4.771   2.251   7.160  0.0432  0.2726 -0.2388
  182MOL     C443806   4.898   2.215   7.182 -0.5439 -0.3215 -0.1637
  182MOL     C543807   4.928   2.070   7.141 -0.3860  0.3406 -0.7484
  182MOL     O643808   4.987   2.276   7.234 -0.4991  0.4715  0.4099
  182MOL     H743809   4.518   2.298   7.197 -1.3363  1.3282 -0.7402
  182MOL     H843810   4.544   2.437   7.303  2.9023  0.9543  0.5869
  182MOL     H943811   4.779   2.415   7.289  0.9591 -2.1564 -0.3206
  182MOL    H1043812   5.004   2.080   7.064 -0.3582 -1.5052 -0.9853
  182MOL    H1143813   4.836   2.029   7.099  0.8228 -1.7549 -1.4374
  182MOL    H1243814   4.974   2.004   7.215  0.4183 -0.9422 -2.3725
  182MOL    H1343815   4.604   2.275   7.351  0.3064 -0.2560 -0.6070
  182MOL    C1443816   4.700   2.473   7.099  0.9273 -0.5292  0.2631
  182MOL    C1543817   4.819   2.530   7.033 -0.4154  0.2576  0.3781
  182MOL    O1643818   4.787   2.604   6.918 -0.1697  0.4117  0.8673
  182MOL    C1743819   4.795   2.548   6.793 -0.4342 -0.1074  0.1135
  182MOL    C1843820   4.745   2.646   6.682  0.1998 -0.4436 -0.8010
  182MOL    O1943821   4.844   2.444   6.763  0.3185  0.1829 -0.6698
  182MOL    H2043822   4.636   2.434   7.019  2.4210 -0.7525 -0.8515
  182MOL    H2143823   4.642   2.559   7.133 -1.4839 -1.2837 -1.7434
  182MOL    H2243824   4.887   2.452   6.998 -0.1738  0.6945 -0.1387
  182MOL    H2343825   4.647   2.618   6.643 -0.1310 -0.1500 -0.1844
  182MOL    H2443826   4.815   2.655   6.600  0.6240  1.4530 -0.2611
  182MOL    H2543827   4.743   2.749   6.718 -0.5326 -1.1257  1.2480
  182MOL    C2643828   4.901   2.622   7.128 -0.3327 -0.0551 -0.2789
  182MOL    C2743829   5.050   2.624   7.107  1.2199  0.4630 -0.3384
  182MOL    O2843830   5.069   2.679   6.977  0.1279 -0.2557  0.5843
  182MOL    C2943831   5.134   2.610   6.882 -0.1678  0.4235 -0.0427
  182MOL    C3043832   5.134   2.688   6.752  0.2197  0.6838 -0.3742
  182MOL    O3143833   5.197   2.509   6.896 -0.4335  0.0996 -0.2997
  182MOL    H3243834   4.854   2.721   7.131 -0.5687 -0.0952 -1.9074
  182MOL    H3343835   4.892   2.579   7.228 -0.4897  0.7834  0.0714
  182MOL    H3443836   5.097   2.527   7.122  1.6176  0.9789  1.8743
  182MOL    H3543837   5.189   2.778   6.779 -0.6643  0.5573  1.9978
  182MOL    H3643838   5.032   2.706   6.720  0.5756 -1.6950 -3.0941
  182MOL    H3743839   5.181   2.624   6.677 -0.7766 -0.0588 -0.3720
  182MOL    C3843840   5.127   2.732   7.197  0.9333  0.0907  0.3519
  182MOL    C3943841   5.122   2.698   7.342  0.2197  0.8534  0.1057
  182MOL    O4043842   5.233   2.610   7.380 -0.3830  1.3483  0.0846
  182MOL    C4143843   5.222   2.520   7.478 -0.6032 -0.3771 -0.0523
  182MOL    C4243844   5.353   2.450   7.511 -1.2019 -0.2453 -0.1828
  182MOL    O4343845   5.115   2.479   7.525 -0.0071 -0.4469 -0.0055
  182MOL    H4443846   5.228   2.737   7.155  0.6651 -2.3419 -0.6442
  182MOL    H4543847   5.091   2.833   7.178 -2.4192 -0.8280  1.4762
  182MOL    H4643848   5.038   2.630   7.355  0.9537 -0.1745 -0.3482
  182MOL    H4743849   5.343   2.374   7.589 -1.0183 -0.8275 -0.7226
  182MOL    H4843850   5.424   2.521   7.552 -0.0611 -1.2979 -0.3295
  182MOL    H4943851   5.392   2.415   7.415  0.4786  1.8203 -0.2773
  182MOL    C5043852   5.104   2.822   7.429  0.3496 -0.0827  0.0718
  182MOL    C5143853   4.958   2.873   7.431  0.2258  1.2239  0.1808
  182MOL    O5243854   4.861   2.778   7.473  0.0104 -0.1907 -0.3322
  182MOL    C5343855   4.734   2.782   7.416 -0.4613 -0.8480 -0.2463
  182MOL    C5443856   4.638   2.673   7.464  0.3938 -0.1985  0.0177
  182MOL    O5543857   4.695   2.850   7.321  0.0519  0.3548 -0.0535
  182MOL    H5643858   5.126   2.783   7.528 -1.2955 -0.9003  0.1316
  182MOL    H5743859   5.183   2.890   7.398 -0.0601 -0.7898 -2.7075
  182MOL    H5843860   4.929   2.910   7.332  3.6521  0.3980 -1.2360
  182MOL    H5943861   4.661   2.669   7.571 -1.3582  0.8337  0.4529
  182MOL    H6043862   4.658   2.579   7.413 -1.9429 -0.6992  0.0164
  182MOL    H6143863   4.539   2.715   7.446 -0.0430 -0.9592  0.6369
  182MOL    C6243864   4.941   3.000   7.524 -0.2061  0.2868  0.3251
  182MOL    C6343865   5.021   3.128   7.489 -0.0129 -0.5588  0.3829
  182MOL    O6443866   4.958   3.182   7.377  0.1225  0.9727 -0.6156
  182MOL    C6543867   5.004   3.162   7.255 -0.0187  0.2284  0.2904
  182MOL    C6643868   4.950   3.264   7.151 -0.0766  0.9548 -0.5392
  182MOL    O6743869   5.095   3.084   7.234  0.7158 -0.2618 -0.7743
  182MOL    H6843870   4.835   3.023   7.529 -0.6366 -1.9543  2.0481
  182MOL    H6943871   4.978   2.972   7.623  3.1564 -2.7992 -1.6393
  182MOL    H7043872   5.127   3.114   7.470  0.3357 -0.0042  1.8012
  182MOL    H7143873   4.982   3.237   7.050  1.7712  2.3772 -0.3661
  182MOL    H7243874   4.974   3.364   7.188  0.9848  0.0052  1.4523
  182MOL    H7343875   4.842   3.251   7.154  0.1714 -1.3040 -0.3786
  182MOL    C7443876   4.997   3.225   7.605 -0.2968  0.4738  0.0007
  182MOL    C7543877   5.112   3.331   7.610  0.0275 -0.5294  0.8109
  182MOL    O7643878   5.136   3.382   7.472 -0.2648 -0.2666  0.2189
  182MOL    C7743879   5.258   3.440   7.443  0.6701 -0.2326  0.4331
  182MOL    C7843880   5.290   3.443   7.286  0.0200  1.0201 -0.5641
  182MOL    O7943881   5.345   3.479   7.521  0.1311 -0.3053 -0.0605
  182MOL    H8043882   4.892   3.254   7.603 -0.2741  0.6417  1.2808
  182MOL    H8143883   5.001   3.179   7.703  0.6441 -1.7451 -1.0461
  182MOL    H8243884   5.203   3.293   7.655  0.1765 -0.1628  0.8122
  182MOL    H8343885   5.379   3.383   7.268 -0.0635  0.8921 -0.5533
  182MOL    H8443886   5.308   3.543   7.247  0.0900  0.5534 -1.7541
  182MOL    H8543887   5.208   3.401   7.227  2.5190 -0.8746 -2.7855
  182MOL    C8643888   5.068   3.459   7.696  0.0569  0.0870 -0.5874
  182MOL    C8743889   5.043   3.430   7.849  0.3554  0.7357 -0.6659
  182MOL    O8843890   5.163   3.388   7.910  0.0644 -0.3210 -0.2104
  182MOL    C8943891   5.178   3.284   7.997  0.3303 -0.2066  0.5561
  182MOL    C9043892   5.313   3.273   0.033 -0.8042 -0.5467  0.1524
  182MOL    O9143893   5.088   3.206   0.011 -0.3026  0.1888  0.4764
  182MOL    H9243894   5.140   3.541   7.693  0.6522 -0.4850 -2.4310
  182MOL    H9343895   4.985   3.498   7.638  1.0161 -0.9133 -2.6784
  182MOL    H9443896   4.965   3.356   7.867  0.7341 -0.2438 -2.8704
  182MOL    H9543897   5.353   3.172   0.019  0.3232  0.1937 -2.1634
  182MOL    H9643898   5.293   3.285   0.139 -2.4862  0.3961 -0.2611
  182MOL    H9743899   5.373   3.362   0.013 -0.6103 -0.4060  1.3194
  182MOL    C9843900   5.006   3.565   7.916  0.1733  1.0531  0.3376
  182MOL    C9943901   4.855   3.602   7.880 -0.0903  0.2322 -0.0301
  182MOL   O10043902   4.771   3.527   7.960  0.4757 -0.1704  0.5044
  182MOL   C10143903   4.685   3.437   7.912  0.2542 -0.5845 -0.4884
  182MOL   C10243904   4.636   3.342   0.004 -0.9853  0.3154  0.1492
  182MOL   O10343905   4.679   3.396   7.800  0.3403  0.1711  0.6736
  182MOL   H10443906   5.020   3.556   0.002 -0.3289 -0.1547  0.3038
  182MOL   H10543907   5.081   3.638   7.884  0.3664  1.8496  2.5183
  182MOL   H10643908   4.842   3.568   7.777  0.5677  1.1798 -0.4335
  182MOL   H10743909   4.701   3.337   0.091 -3.3318 -0.7544  1.8967
  182MOL   H10843910   4.607   3.246   7.983  0.7956 -0.5281  0.7927
  182MOL   H10943911   4.548   3.393   0.043 -0.8181  1.3183 -0.7496
  182MOL   C11043912   4.817   3.754   7.881 -0.7197  0.0053  0.8025
  182MOL   C11143913   4.884   3.831   7.763 -0.0832  0.2180  0.5861
  182MOL   O11243914   4.881   3.766   7.633  0.2164  0.3342 -0.6737
  182MOL   C11343915   4.991   3.764   7.556 -0.2582 -0.2389 -0.6347
  182MOL   C11443916   4.959   3.750   7.409  0.1273  0.6054  0.0428
  182MOL   O11543917   5.109   3.785   7.592 -0.1302  0.3351 -0.3106
  182MOL   H11643918   4.710   3.759   7.866 -0.6590  1.1413  0.7389
  182MOL   H11743919   4.841   3.801   7.977  0.6700 -0.6138  0.7877
  182MOL   H11843920   4.986   3.833   7.799  0.3740  0.8309 -0.7369
  182MOL   H11943921   4.941   3.850   7.370  0.1643  1.0587  1.1706
  182MOL   H12043922   4.874   3.684   7.390 -1.0652  2.1782 -0.2365
  182MOL   H12143923   5.042   3.709   7.350 -0.4548  1.1134 -1.1602
  182MOL   C12243924   4.820   3.969   7.751 -0.2745  0.6043 -0.3018
  182MOL   C12343925   4.897   4.071   7.654  0.4176  0.7206 -0.6961
  182MOL   O12443926   4.814   4.182   7.634  0.1105 -0.1427  0.4569
  182MOL   C12543927   4.779   4.213   7.505 -0.2234 -0.4173 -0.5963
  182MOL   C12643928   4.712   4.351   7.497  0.2155 -0.4481  0.8060
  182MOL   O12743929   4.801   4.141   7.408 -0.0376  0.3513  0.1985
  182MOL   H12843930   4.720   3.963   7.710 -0.8361  1.1835  0.9556
  182MOL   H12943931   4.820   4.016   7.849 -0.9953  1.9997 -0.9497
  182MOL   H13043932   4.917   4.013   7.564  1.7975  0.0816  0.0053
  182MOL   H13143933   4.645   4.352   7.583  1.0130  1.5127  1.4261
  182MOL   H13243934   4.654   4.380   7.410  0.9120  0.7333  0.7245
  182MOL   H13343935   4.787   4.429   7.510 -1.3119  0.9076  1.5841
  182MOL   C13443936   5.027   4.129   7.717 -0.6310  0.7499  0.2660
  182MOL   C13543937   5.136   4.129   7.622 -0.1702  0.2036  0.2360
  182MOL   O13643938   5.099   4.222   7.519 -0.4792 -0.0684  0.0094
  182MOL   C13743939   5.116   4.197   7.382 -0.2110 -0.0111  0.1426
  182MOL   C13843940   5.066   4.311   7.295  0.3539 -0.3027 -0.4059
  182MOL   O13943941   5.162   4.096   7.336 -0.0879  0.6205  0.1512
  182MOL   H14043942   5.005   4.231   7.748 -0.6527 -0.1976  3.5751
  182MOL   H14143943   5.067   4.070   7.799  0.0043 -1.4280 -1.5475
  182MOL   H14243944   5.147   4.035   7.567 -0.2305  0.1303  0.3499
  182MOL   H14343945   4.978   4.359   7.338  2.1267  2.0301  0.7012
  182MOL   H14443946   5.025   4.279   7.199 -0.1504  2.3642 -1.1079
  182MOL   H14543947   5.144   4.386   7.284 -0.5325  0.2038 -3.8749
  182MOL   C14643948   5.271   4.173   7.681 -0.5356 -0.1610  0.1700
  182MOL   C14743949   5.334   4.091   7.790  0.1434  0.2999 -0.2443
  182MOL   O14843950   5.361   3.954   7.759  0.3903 -0.6055 -0.5717
  182MOL   C14943951   5.320   3.855   7.834  0.2441  0.7108 -0.5941
  182MOL   C15043952   5.384   3.723   7.798  0.0895 -0.6863 -1.0695
  182MOL   O15143953   5.241   3.870   7.925 -0.5967 -0.1168 -0.5868
  182MOL   H15243954   5.350   4.178   7.607  0.0922  0.6763  0.8836
  182MOL   H15343955   5.273   4.272   7.726 -1.2650 -0.2970  0.5272
  182MOL   H15443956   5.261   4.101   7.870 -2.3224  1.8149 -2.6269
  182MOL   H15543957   5.338   3.631   7.835 -0.7241 -0.0924 -0.5809
  182MOL   H15643958   5.470   3.722   7.866 -1.7811 -3.4428  1.4287
  182MOL   H15743959   5.426   3.716   7.698 -0.3453  0.4551 -1.3427
  182MOL   C15843960   5.473   4.139   7.838 -0.6384 -0.1956 -0.5410
  182MOL   C15943961   5.527   4.064   7.967 -0.2600  0.5461  0.5592
  182MOL   O16043962   5.667   4.065   7.940 -0.1851 -0.4473 -0.2053
  182MOL   C16143963   5.733   3.951   7.943 -0.3260  0.3809  0.1047
  182MOL   C16243964   5.867   3.963   7.865  0.8315 -0.7041  0.2537
  182MOL   O16343965   5.693   3.845   7.992 -0.1660 -0.1004 -0.7806
  182MOL   H16443966   5.542   4.161   7.757  0.9068 -1.6714  0.3419
  182MOL   H16543967   5.467   4.242   7.875  1.3535 -0.7962  1.5770
  182MOL   H16643968   5.486   3.964   7.956 -1.7230  1.1060  0.8150
  182MOL   H16743969   5.859   3.931   7.761 -2.7631  3.2211 -0.8368
  182MOL   H16843970   5.939   3.904   7.922  0.7251  0.8039  2.0132
  182MOL   H16943971   5.910   4.062   7.879  2.0302 -1.0304 -1.0353
  182MOL   C17043972   5.481   4.126   0.081 -0.3589  0.1291 -0.6204
  182MOL   C17143973   5.502   4.018   0.194 -0.1069  0.8823 -0.2789
  182MOL   O17243974   5.484   4.105   0.308  0.5063 -0.1579 -0.2047
  182MOL   C17343975   5.582   4.123   0.399 -0.5972  0.3274  0.1054
  182MOL   C17443976   5.544   4.237   0.491  0.1279 -0.1241  0.3324
  182MOL   O17543977   5.677   4.046   0.412 -0.2830  0.0024 -0.4087
  182MOL   H17643978   5.536   4.219   0.095  1.6782 -0.8359 -1.9875
  182MOL   H17743979   5.376   4.156   0.088 -0.6234 -1.3526  2.8115
  182MOL   H17843980   5.604   3.982   0.181  0.1430  0.2485  2.9554
  182MOL   H17943981   5.586   4.221   0.591  0.1156  1.6256  0.6337
  182MOL   H18043982   5.435   4.242   0.489  0.0937 -1.0092 -0.0835
  182MOL   H18143983   5.596   4.320   0.444  0.7836  0.7062  2.4625
  182MOL   C18243984   5.408   3.890   0.184 -0.0804  0.0393  1.3682
  182MOL   C18343985   5.438   3.767   0.277  0.5660 -0.3050  0.1045
  182MOL   O18443986   5.341   3.671   0.240 -0.2438  0.3345 -0.1096
  182MOL   C18543987   5.255   3.626   0.329  0.7324  0.2210 -0.7787
  182MOL   C18643988   5.154   3.526   0.275 -0.7871  0.0867 -0.5313
  182MOL   O18743989   5.250   3.663   0.448 -0.1438 -0.8746 -0.7286
  182MOL   H18843990   5.301   3.913   0.187  0.1558  1.0809  2.1771
  182MOL   H18943991   5.424   3.849   0.084  0.3788  2.0157  0.6040
  182MOL   H19043992   5.428   3.799   0.380  0.3432  2.1721 -0.6530
  182MOL   H19143993   5.171   3.422   0.301 -1.9102  0.5850  2.4170
  182MOL   H19243994   5.155   3.529   0.166  1.7666 -0.6521 -0.5537
  182MOL   H19343995   5.055   3.558   0.308 -1.4119 -1.2243 -1.1181
  182MOL   C19443996   5.572   3.693   0.238  0.5499 -0.2941 -0.5411
  182MOL   C19543997   5.622   3.579   0.331  0.7928  0.0371 -0.3196
  182MOL   O19643998   5.736   3.518   0.279 -0.1037 -0.5448  0.5686
  182MOL   C19743999   5.720   3.404   0.205  0.0199 -0.3092  0.3295
  182MOL   C19844000   5.851   3.341   0.181 -0.0188  0.3418 -0.3205
  182MOL   O19944001   5.611   3.363   0.161 -0.4894 -0.5687  0.4149
  182MOL   H20044002   5.546   3.653   0.140 -0.7341  0.0609 -0.3554
  182MOL   H20144003   5.648   3.769   0.219 -0.0637 -0.0014 -1.8935
  182MOL   H20244004   5.552   3.496   0.346 -0.8199  1.5687  0.9625
  182MOL   H20344005   5.846   3.235   0.204  1.8593  0.6736  1.8970
  182MOL   H20444006   5.927   3.380   0.250  0.2602 -1.9166  0.6868
  182MOL   H20544007   5.883   3.347   0.077 -3.3288 -1.1691 -1.4816
  182MOL   C20644008   5.652   3.641   0.467 -0.0404  1.2503 -0.0417
  182MOL   C20744009   5.727   3.544   0.565 -0.0049  0.5265  0.1425
  182MOL   O20844010   5.867   3.548   0.539 -1.1041  0.4187  0.1338
  182MOL   C20944011   5.934   3.430   0.516 -0.1721  0.4853 -0.3259
  182MOL   C21044012   6.074   3.457   0.461  0.1972  0.1255 -0.0892
  182MOL   O21144013   5.881   3.321   0.520  0.7653  0.9755 -0.4573
  182MOL   H21244014   5.710   3.733   0.461  2.0521 -0.1152 -1.9532
  182MOL   H21344015   5.557   3.671   0.510 -0.7740  0.6892 -1.2479
  182MOL   H21444016   5.671   3.450   0.571  0.3570  0.2219 -1.1579
  182MOL   H21544017   6.087   3.560   0.427 -2.7945  0.7037  0.4164
  182MOL   H21644018   6.101   3.387   0.382  0.2460  0.3137 -0.2405
  182MOL   H21744019   6.145   3.449   0.544  0.8100 -0.7375 -0.6917
  182MOL   C21844020   5.715   3.607   0.701 -0.1883  0.0211 -0.1396
  182MOL   C21944021   5.761   3.528   0.822 -0.6400  0.4156  0.5877
  182MOL   O22044022   5.761   3.619   0.927 -0.0688  0.6895 -0.1031
  182MOL   C22144023   5.870   3.676   0.973  1.1322  0.6489 -0.4675
  182MOL   C22244024   5.843   3.793   1.069 -0.0161 -0.4498  0.2665
  182MOL   O22344025   5.984   3.634   0.951 -0.4269  0.0205 -0.2094
  182MOL   H22444026   5.764   3.704   0.692  2.4882 -1.2542  0.2545
  182MOL   H22544027   5.612   3.635   0.723  0.5321  1.2919  1.6368
  182MOL   H22644028   5.853   3.477   0.794 -1.0803  0.5758 -1.2460
  182MOL   H22744029   5.878   3.768   1.170 -0.4671 -2.3329 -0.0163
  182MOL   H22844030   5.736   3.810   1.079  0.1625 -0.0718  1.7119
  182MOL   H22944031   5.897   3.883   1.040  0.1311 -0.3460  0.8610
  182MOL   C23044032   5.654   3.423   0.854 -0.9669  0.5634  0.1257
  182MOL   C23144033   5.685   3.331   0.969 -0.7033  0.4454 -0.4959
  182MOL   O23244034   5.779   3.234   0.917 -0.1462 -0.0475  0.4016
  182MOL   C23344035   5.739   3.130   0.847  0.3270 -0.5566 -0.5812
  182MOL   C23444036   5.849   3.027   0.827  0.0150 -0.9071  0.3578
  182MOL   O23544037   5.624   3.117   0.812 -0.3318  0.2234  0.6866
  182MOL   H23644038   5.555   3.468   0.866  0.1406  2.3644  2.9675
  182MOL   H23744039   5.645   3.373   0.757  1.6782  1.4000 -0.5923
  182MOL   H23844040   5.600   3.289   1.022  0.4531 -1.9386 -0.4835
  182MOL   H23944041   5.942   3.069   0.867 -0.3382  0.0287  0.2224
  182MOL   H24044042   5.870   3.017   0.720 -2.1235  1.0138 -0.2983
  182MOL   H24144043   5.819   2.936   0.878  0.0127  0.3125  2.5681
  182MOL   H24244044   5.743   3.379   1.049 -2.4013 -0.4808  1.3275
  183MOL     C144045   4.200   6.856   6.740 -0.3279 -0.2814  0.3034
  183MOL     C244046   4.303   6.883   6.845 -0.4416  0.6611 -0.0018
  183MOL     O344047   4.263   7.005   6.910 -0.2287 -0.6222 -0.9111
  183MOL     C444048   4.346   7.078   6.986  0.0431 -0.4080 -0.5376
  183MOL     C544049   4.276   7.189   7.064 -0.2995 -0.5690 -0.3179
  183MOL     O644050   4.464   7.054   7.011  0.1489 -0.0138 -0.4304
  183MOL     H744051   4.223   6.764   6.685 -3.4795 -0.8369 -0.2384
  183MOL     H844052   4.192   6.941   6.672  3.3303  1.0634  1.4791
  183MOL     H944053   4.398   6.895   6.794 -0.2491  0.3448  0.2811
  183MOL    H1044054   4.183   7.219   7.015  0.0794 -0.7349 -1.1511
  183MOL    H1144055   4.338   7.278   7.070  0.4407 -1.1785  1.2124
  183MOL    H1244056   4.244   7.183   7.168  1.2592  1.9959  0.3505
  183MOL    H1344057   4.103   6.831   6.784 -0.1577 -2.3729 -0.4222
  183MOL    C1444058   4.310   6.768   6.956 -0.2398 -0.0587  0.2106
  183MOL    C1544059   4.189   6.721   7.032  0.0185 -0.7742  0.3450
  183MOL    O1644060   4.207   6.591   7.085  1.2149  0.1548 -0.3500
  183MOL    C1744061   4.156   6.485   7.017  0.2523  0.0811  0.3211
  183MOL    C1844062   4.166   6.363   7.103 -0.5735 -0.1228 -0.1868
  183MOL    O1944063   4.122   6.484   6.901  0.1683 -0.0310  0.0344
  183MOL    H2044064   4.353   6.683   6.903 -1.2687 -1.1871  1.1476
  183MOL    H2144065   4.376   6.808   7.034 -0.7251  1.5908 -0.2131
  183MOL    H2244066   4.106   6.721   6.961  0.8343  2.0266 -0.6637
  183MOL    H2344067   4.070   6.354   7.153 -0.3976 -0.5192  0.0783
  183MOL    H2444068   4.251   6.365   7.171 -0.6221  2.2097 -0.1554
  183MOL    H2544069   4.183   6.266   7.055  2.1891  0.9370 -1.4804
  183MOL    C2644070   4.175   6.818   7.152 -0.0162 -0.3833  0.1205
  183MOL    C2744071   4.069   6.791   7.261  0.5031 -0.2777 -0.2190
  183MOL    O2844072   4.050   6.898   7.356  0.4217 -0.1544  0.3888
  183MOL    C2944073   4.063   6.876   7.481  0.0708  0.3098  0.3327
  183MOL    C3044074   4.041   6.996   7.563  0.1742  0.5608 -0.2462
  183MOL    O3144075   4.097   6.772   7.536  0.1742 -0.7516  0.2016
  183MOL    H3244076   4.270   6.827   7.206  1.1031 -1.1920 -1.6847
  183MOL    H3344077   4.153   6.916   7.109 -1.0143 -0.4920  0.3803
  183MOL    H3444078   4.102   6.700   7.310  3.4791 -0.1135 -1.7895
  183MOL    H3544079   4.035   6.963   7.666 -1.6078  1.3829 -0.0560
  183MOL    H3644080   3.941   7.032   7.538 -0.1464  0.3207  0.6854
  183MOL    H3744081   4.109   7.080   7.548  0.6172  0.4031  0.8565
  183MOL    C3844082   3.932   6.763   7.211 -0.1752 -0.1689 -0.1876
  183MOL    C3944083   3.843   6.877   7.155  0.4741  1.0096  0.1139
  183MOL    O4044084   3.884   6.913   7.024 -0.5299  0.0306  0.9513
  183MOL    C4144085   3.874   7.043   6.978 -0.3334 -0.1328  0.0040
  183MOL    C4244086   3.913   7.065   6.832 -0.0834  0.0866  0.1081
  183MOL    O4344087   3.849   7.142   7.050 -0.3659  0.1129  0.1344
  183MOL    H4444088   3.948   6.691   7.131  0.1923  2.1531 -2.2520
  183MOL    H4544089   3.875   6.721   7.294 -0.2259 -0.5301 -0.4047
  183MOL    H4644090   3.865   6.953   7.230  3.6618  1.1320 -0.8434
  183MOL    H4744091   3.916   6.968   6.782 -0.9786  0.4998 -0.7575
  183MOL    H4844092   4.002   7.128   6.831 -1.3671  1.9140  0.0441
  183MOL    H4944093   3.837   7.133   6.795  2.9408  1.0042 -4.8170
  183MOL    C5044094   3.694   6.851   7.168 -0.7549  0.6535  0.5310
  183MOL    C5144095   3.626   6.792   7.047 -0.8414  0.2545  0.6684
  183MOL    O5244096   3.676   6.655   7.035  0.3223  0.6217 -0.4743
  183MOL    C5344097   3.751   6.620   6.931  0.1194 -0.5133 -0.6613
  183MOL    C5444098   3.800   6.480   6.943 -0.6021 -0.0947 -0.2396
  183MOL    O5544099   3.782   6.695   6.838 -0.9312 -0.9538 -0.3714
  183MOL    H5644100   3.666   6.796   7.258  0.0174 -1.4250 -0.4535
  183MOL    H5744101   3.648   6.949   7.185 -2.3027  0.1249 -0.5150
  183MOL    H5844102   3.652   6.847   6.957  0.3640 -1.8785 -0.3177
  183MOL    H5944103   3.823   6.465   7.049 -0.6713 -2.1808 -0.4919
  183MOL    H6044104   3.890   6.467   6.884 -0.7275  1.0403 -0.6792
  183MOL    H6144105   3.725   6.411   6.903 -0.2821 -1.1437  0.9452
  183MOL    C6244106   3.473   6.798   7.052  0.1528  0.0509  0.2117
  183MOL    C6344107   3.385   6.744   6.932 -0.8453 -0.0969  0.0370
  183MOL    O6444108   3.294   6.648   6.984  0.3607  0.2709  0.4847
  183MOL    C6544109   3.323   6.516   6.981 -0.4982  0.2642 -0.9738
  183MOL    C6644110   3.195   6.432   7.004 -0.1781 -0.1134  0.4009
  183MOL    O6744111   3.433   6.458   6.962  0.7476 -0.4501  0.0442
  183MOL    H6844112   3.447   6.757   7.149  2.9648  0.5489  1.2264
  183MOL    H6944113   3.448   6.904   7.048 -0.8411 -0.1758  0.3969
  183MOL    H7044114   3.441   6.692   6.854  0.8824  0.1333  1.0939
  183MOL    H7144115   3.105   6.488   7.033 -0.2745 -0.2233  0.3149
  183MOL    H7244116   3.210   6.373   7.095 -0.4311 -1.1733 -0.2396
  183MOL    H7344117   3.184   6.361   6.922 -1.1932  0.6561 -0.1418
  183MOL    C7444118   3.306   6.849   6.861  0.9328 -0.0871 -0.4936
  183MOL    C7544119   3.388   6.946   6.776  0.3087  0.4088  0.2090
  183MOL    O7644120   3.416   6.889   6.653 -0.1398 -0.6124  0.0233
  183MOL    C7744121   3.538   6.908   6.601 -0.2803 -0.0793 -0.6152
  183MOL    C7844122   3.557   6.845   6.468  0.1643 -0.1333  0.3581
  183MOL    O7944123   3.633   6.967   6.658  0.4244  0.6621 -0.3059
  183MOL    H8044124   3.233   6.809   6.790  0.4966 -1.6972  0.8324
  183MOL    H8144125   3.246   6.919   6.920  1.9796  0.7062 -0.3731
  183MOL    H8244126   3.481   6.958   6.832 -0.3641  1.7485  1.0898
  183MOL    H8344127   3.590   6.921   6.397  0.1144  0.3373  0.8388
  183MOL    H8444128   3.459   6.807   6.436  0.9740  0.0285 -2.4556
  183MOL    H8544129   3.630   6.765   6.485  0.4207  0.2151  0.9033
  183MOL    C8644130   3.318   7.091   6.747 -0.5820  0.0656 -0.2393
  183MOL    C8744131   3.358   7.217   6.835  0.0573 -0.4314  0.4142
  183MOL    O8844132   3.359   7.182   6.978 -0.7416  0.0815  0.2177
  183MOL    C8944133   3.252   7.210   7.061 -0.2795  0.3779  0.3109
  183MOL    C9044134   3.244   7.122   7.187  0.1521  0.5537 -0.2834
  183MOL    O9144135   3.157   7.286   7.036  0.3038 -0.1907 -0.0114
  183MOL    H9244136   3.350   7.120   6.647 -0.6779  3.9122  0.7567
  183MOL    H9344137   3.209   7.079   6.747 -0.5164 -0.8911 -3.1159
  183MOL    H9444138   3.279   7.291   6.821 -0.1790 -0.5148  1.2789
  183MOL    H9544139   3.320   7.044   7.180  2.4609  2.3146  3.2560
  183MOL    H9644140   3.146   7.077   7.201  0.0315  0.0336 -2.5575
  183MOL    H9744141   3.271   7.183   7.274 -0.2928  0.0609  0.2057
  183MOL    C9844142   3.495   7.283   6.798 -0.0001  0.2109 -0.5282
  183MOL    C9944143   3.545   7.409   6.877  0.2350 -0.4263  0.4011
  183MOL   O10044144   3.667   7.449   6.809 -0.3100  0.3733  0.4122
  183MOL   C10144145   3.784   7.479   6.876  0.5378  0.3449  0.0396
  183MOL   C10244146   3.903   7.491   6.780 -0.1387 -0.4688  0.9836
  183MOL   O10344147   3.802   7.490   7.003  0.0508 -1.2346 -0.0025
  183MOL   H10444148   3.563   7.203   6.824 -0.0311  0.2063 -0.4640
  183MOL   H10544149   3.488   7.309   6.692  1.5327  1.8809 -0.2301
  183MOL   H10644150   3.563   7.395   6.984  2.6625  1.1788  0.2273
  183MOL   H10744151   3.994   7.499   6.840  0.6504  0.4033 -0.2971
  183MOL   H10844152   3.893   7.586   6.728  0.2007 -1.0306 -0.1176
  183MOL   H10944153   3.909   7.411   6.707  0.3814 -0.0819  0.6000
  183MOL   C11044154   3.440   7.524   6.863  0.3540 -0.1290 -0.4189
  183MOL   C11144155   3.483   7.669   6.904  0.5610  0.3606  0.2098
  183MOL   O11244156   3.389   7.766   6.858  0.2171  0.5411  0.1841
  183MOL   C11344157   3.407   7.824   6.742  0.4316 -0.1226 -0.1129
  183MOL   C11444158   3.296   7.920   6.710  0.3355  0.2165 -0.2466
  183MOL   O11544159   3.495   7.801   6.662  0.1933  0.3455 -0.1169
  183MOL   H11644160   3.408   7.525   6.759  0.6948 -1.1551 -0.5433
  183MOL   H11744161   3.352   7.503   6.923  1.8418  1.2210  2.3345
  183MOL   H11844162   3.576   7.692   6.852 -1.4195  0.3771 -3.4985
  183MOL   H11944163   3.336   8.021   6.703 -0.6810  0.5307 -1.9329
  183MOL   H12044164   3.234   7.907   6.799 -1.3248  0.9170 -1.2803
  183MOL   H12144165   3.229   7.888   6.630  0.1445 -1.9191  0.7152
  183MOL   C12244166   3.476   7.679   7.059  0.2600  0.7324  0.1860
  183MOL   C12344167   3.490   7.808   7.131 -0.0533 -0.2915 -0.5984
  183MOL   O12444168   3.610   7.876   7.079  0.9144  0.0962  0.7169
  183MOL   C12544169   3.730   7.857   7.137 -0.3200  0.5136  0.7980
  183MOL   C12644170   3.846   7.913   7.056  0.1989  0.8851  0.1714
  183MOL   O12744171   3.748   7.797   7.242  0.9554  0.4344 -0.1904
  183MOL   H12844172   3.398   7.620   7.108 -0.7497  0.9368 -1.1362
  183MOL   H12944173   3.567   7.624   7.081 -0.4563 -1.4520 -2.0478
  183MOL   H13044174   3.506   7.799   7.238  0.3700  0.6036 -0.5810
  183MOL   H13144175   3.857   7.869   6.957 -3.0545 -0.2313  0.2436
  183MOL   H13244176   3.925   7.889   7.127 -0.1099  0.0621  0.2423
  183MOL   H13344177   3.847   8.021   7.041 -0.2091  0.6580 -1.6147
  183MOL   C13444178   3.370   7.908   7.114 -0.3202  0.7217 -0.0611
  183MOL   C13544179   3.228   7.841   7.136  0.3941 -0.2611 -0.2112
  183MOL   O13644180   3.233   7.787   7.270  0.6277  0.3576  0.1019
  183MOL   C13744181   3.196   7.664   7.289 -0.0340  0.0615  0.1263
  183MOL   C13844182   3.216   7.618   7.427  0.7647 -0.5402 -0.2341
  183MOL   O13944183   3.159   7.584   7.205  0.7257  0.2755 -0.4666
  183MOL   H14044184   3.391   7.988   7.185 -0.6113 -0.5061  1.4269
  183MOL   H14144185   3.358   7.963   7.020  0.2682  0.3800 -0.3354
  183MOL   H14244186   3.234   7.761   7.061  0.0716 -0.7188  0.2458
  183MOL   H14344187   3.129   7.632   7.491  0.7402 -0.5155 -0.2717
  183MOL   H14444188   3.300   7.664   7.478  0.1830 -0.0782  0.3193
  183MOL   H14544189   3.253   7.516   7.417 -1.6308 -1.3120 -1.8303
  183MOL   C14644190   3.098   7.925   7.106  0.1813 -0.4217 -0.4083
  183MOL   C14744191   2.978   7.835   7.063  0.4070 -0.3180  0.5859
  183MOL   O14844192   2.847   7.887   7.089 -0.3428  0.2282  0.0880
  183MOL   C14944193   2.798   7.888   7.210  0.1692 -1.0168  0.5039
  183MOL   C15044194   2.661   7.954   7.215 -0.5376  1.1501 -0.3309
  183MOL   O15144195   2.837   7.825   7.303  0.2749  0.0248 -0.6420
  183MOL   H15244196   3.075   7.989   7.191 -0.8741 -0.1867 -0.8731
  183MOL   H15344197   3.112   7.998   7.026 -1.1581  1.3057  0.9128
  183MOL   H15444198   3.000   7.749   7.128  1.3413  0.3749  1.1993
  183MOL   H15544199   2.592   7.908   7.144 -0.2399  0.8367 -0.4184
  183MOL   H15644200   2.659   0.032   7.169 -0.4107  1.0747 -0.4991
  183MOL   H15744201   2.619   7.951   7.315 -1.5418 -0.9088 -0.7844
  183MOL   C15844202   2.990   7.781   6.917  0.2714 -0.1360  0.3572
  183MOL   C15944203   2.899   7.663   6.875 -0.6682 -0.1998  0.0847
  183MOL   O16044204   2.769   7.716   6.851 -0.4627  0.0445  0.5482
  183MOL   C16144205   2.655   7.645   6.890  0.2833 -0.7433 -0.0172
  183MOL   C16244206   2.538   7.743   6.867  0.3813 -0.5342  0.4237
  183MOL   O16344207   2.642   7.546   6.953 -0.5984  0.1555  0.0312
  183MOL   H16444208   2.961   7.857   6.844 -1.1397 -2.4485 -1.5783
  183MOL   H16544209   3.094   7.755   6.894  0.1481 -1.5948  1.3878
  183MOL   H16644210   2.899   7.589   6.956 -2.6101  1.5652  1.7212
  183MOL   H16744211   2.557   7.832   6.926  0.0782 -1.3922  1.8295
  183MOL   H16844212   2.443   7.706   6.906 -0.0991  0.9786  0.7308
  183MOL   H16944213   2.524   7.770   6.762 -0.5686 -0.4196  0.5712
  183MOL   C17044214   2.961   7.588   6.744 -0.3724 -0.4096 -0.4718
  183MOL   C17144215   2.897   7.456   6.711  0.5626  0.4524  0.1577
  183MOL   O17244216   2.934   7.431   6.579  0.0853  0.3472  0.1751
  183MOL   C17344217   2.840   7.415   6.482 -0.1876 -0.0129  0.0889
  183MOL   C17444218   2.902   7.380   6.346  0.2292 -0.0765 -0.1398
  183MOL   O17544219   2.718   7.417   6.489 -0.6832 -0.4067  0.4776
  183MOL   H17644220   2.958   7.665   6.666 -1.6449 -0.7518 -0.7798
  183MOL   H17744221   3.069   7.578   6.756 -0.4319  1.8382  2.5550
  183MOL   H17844222   2.790   7.456   6.727  0.9489 -0.5763  2.9487
  183MOL   H17944223   2.938   7.471   6.299 -0.5350  1.1862  1.6705
  183MOL   H18044224   2.846   7.323   6.272 -0.4423  1.3553 -0.7620
  183MOL   H18144225   2.993   7.321   6.359  0.0007 -0.2677  0.6032
  183MOL   C18244226   2.942   7.340   6.800  0.1167  0.5617 -0.4208
  183MOL   C18344227   2.884   7.207   6.750 -1.2055 -0.4073 -0.2645
  183MOL   O18444228   2.984   7.138   6.676 -0.3150  0.2882 -0.1476
  183MOL   C18544229   2.955   7.072   6.568 -0.8242 -0.3499  0.1397
  183MOL   C18644230   3.082   7.031   6.492 -0.6136 -0.4309 -0.1475
  183MOL   O18744231   2.840   7.040   6.525  0.1588 -0.1922  0.2796
  183MOL   H18844232   3.051   7.334   6.801  0.1408  0.0426 -2.5507
  183MOL   H18944233   2.899   7.352   6.899  1.7647  0.1234  0.3645
  183MOL   H19044234   2.806   7.223   6.675 -1.4960  0.0645  0.1365
  183MOL   H19144235   3.073   6.976   6.398  1.9015 -0.3123 -0.4832
  183MOL   H19244236   3.121   6.959   6.564 -0.2117 -0.1803 -0.1159
  183MOL   H19344237   3.152   7.113   6.479  0.8816 -1.8041 -1.0461
  183MOL   C19444238   2.831   7.114   6.860 -0.1987 -0.1634 -0.3999
  183MOL   C19544239   2.691   7.146   6.900  0.5060  0.3520  0.4762
  183MOL   O19644240   2.613   7.123   6.783  0.4252  0.1504 -0.3466
  183MOL   C19744241   2.518   7.203   6.746  0.1113  0.4460 -0.2999
  183MOL   C19844242   2.466   7.176   6.610 -0.4219  0.7327  0.2874
  183MOL   O19944243   2.461   7.292   6.808 -0.4411 -0.2969 -0.5638
  183MOL   H20044244   2.836   7.008   6.835  1.7143 -0.1678 -0.1053
  183MOL   H20144245   2.901   7.121   6.943 -0.2533 -1.7545 -0.2102
  183MOL   H20244246   2.698   7.255   6.907 -0.5187  0.5876 -1.7164
  183MOL   H20344247   2.548   7.152   6.542 -1.3461  0.9029 -0.8910
  183MOL   H20444248   2.409   7.259   6.569  2.6575  2.8302  0.0329
  183MOL   H20544249   2.405   7.086   6.609 -0.5258  0.8128 -0.4444
  183MOL   C20644250   2.646   7.073   7.022  0.3118 -1.0551  0.0206
  183MOL   C20744251   2.734   7.106   7.149 -0.0662  0.6153  0.3976
  183MOL   O20844252   2.738   7.249   7.179  0.5128 -0.0780 -0.1516
  183MOL   C20944253   2.830   7.304   7.264 -0.1933  0.0799  0.2385
  183MOL   C21044254   2.798   7.451   7.273  0.7081 -0.1765 -0.2446
  183MOL   O21144255   2.921   7.245   7.314 -0.6442  0.2191 -0.7986
  183MOL   H21244256   2.546   7.110   7.040  0.5787  0.2733 -1.1894
  183MOL   H21344257   2.632   6.965   7.012  0.5642 -1.0138 -0.8360
  183MOL   H21444258   2.835   7.066   7.136  0.3536  1.2415  1.5684
  183MOL   H21544259   2.700   7.482   7.310 -0.4410 -3.6028 -0.2509
  183MOL   H21644260   2.808   7.492   7.172  2.9411 -1.5674 -0.6302
  183MOL   H21744261   2.866   7.500   7.342 -0.9585  0.7407  0.7812
  183MOL   C21844262   2.681   7.033   7.275 -0.3027 -0.1460 -0.5376
  183MOL   C21944263   2.667   6.880   7.275  0.4045  0.7251  0.2554
  183MOL   O22044264   2.784   6.799   7.279  0.1912 -0.1779 -0.0948
  183MOL   C22144265   2.858   6.781   7.163 -0.3048  0.6852 -0.2350
  183MOL   C22244266   3.000   6.729   7.190  0.2363 -0.0773 -0.6715
  183MOL   O22344267   2.841   6.824   7.046 -0.4574 -0.0063  0.6201
  183MOL   H22444268   2.732   7.069   7.365 -0.9650 -3.7746  1.3520
  183MOL   H22544269   2.586   7.081   7.300  0.7499  1.4130  0.6566
  183MOL   H22644270   2.613   6.853   7.184 -1.0033  0.3380  1.1951
  183MOL   H22744271   3.010   6.645   7.258  0.8676  1.8397  1.6745
  183MOL   H22844272   3.059   6.800   7.248  0.7480  0.0120 -1.3016
  183MOL   H22944273   3.060   6.706   7.102 -0.9426  1.1842 -1.8343
  183MOL   C23044274   2.563   6.825   7.372 -0.2603  0.0461  0.3654
  183MOL   C23144275   2.603   6.828   7.522  0.2196  0.0816  0.1661
  183MOL   O23244276   2.615   6.962   7.571 -0.0060 -0.3949  0.3575
  183MOL   C23344277   2.551   6.990   7.687  0.9109 -0.3341  0.2228
  183MOL   C23444278   2.549   7.130   7.739 -0.5891 -0.2202  0.6068
  183MOL   O23544279   2.479   6.903   7.738  0.0916  0.1157  0.8431
  183MOL   H23644280   2.480   6.895   7.370 -0.2055  0.1336  1.2375
  183MOL   H23744281   2.535   6.725   7.337  0.8459  0.0439 -0.5635
  183MOL   H23844282   2.698   6.780   7.541  0.6428  0.7363 -0.2591
  183MOL   H23944283   2.623   7.138   7.820  2.1901 -1.5684 -1.6999
  183MOL   H24044284   2.448   7.158   7.767 -0.8397 -0.9821  0.4631
  183MOL   H24144285   2.590   7.196   7.663 -2.2964 -3.9887 -3.7425
  183MOL   H24244286   2.537   6.764   7.581  1.0194 -0.6041  0.3243
  184MOL     C144287   4.417   2.576   7.937  0.1884  0.2329 -0.1656
  184MOL     C244288   4.372   2.588   7.794  0.2575  0.3672 -0.2324
  184MOL     O344289   4.360   2.449   7.748  0.4829  0.3986 -0.0282
  184MOL     C444290   4.397   2.412   7.622 -0.2670  0.7042  0.1239
  184MOL     C544291   4.331   2.272   7.586  0.0814 -0.7960 -0.4291
  184MOL     O644292   4.474   2.472   7.544  0.2594 -0.1792  0.7565
  184MOL     H744293   4.511   2.521   7.928 -0.5416 -0.7242 -2.2213
  184MOL     H844294   4.346   2.533   8.007 -0.9892 -1.3237 -2.2829
  184MOL     H944295   4.448   2.641   7.736  0.3147 -0.5833 -1.0428
  184MOL    H1044296   4.301   2.285   7.482  0.7005 -0.7620 -0.6020
  184MOL    H1144297   4.235   2.260   7.635  1.8927 -0.7202  3.2736
  184MOL    H1244298   4.391   2.183   7.599  2.5763  0.7175 -1.1438
  184MOL    H1344299   4.438   2.679   7.968  0.4508  0.1584 -0.0918
  184MOL    C1444300   4.240   2.660   7.773 -0.0514  0.1065 -0.0976
  184MOL    C1544301   4.254   2.815   7.780 -0.1605  0.0693 -1.1385
  184MOL    O1644302   4.305   2.870   7.663 -0.5230 -0.3981  0.0013
  184MOL    C1744303   4.435   2.907   7.664 -0.2627 -0.0400  0.1773
  184MOL    C1844304   4.462   3.000   7.545 -0.1225 -0.4972  0.1444
  184MOL    O1944305   4.523   2.887   7.746  0.1377 -0.3536  0.0628
  184MOL    H2044306   4.200   2.644   7.672  0.0578 -0.1401 -0.1015
  184MOL    H2144307   4.171   2.622   7.848  1.6781 -0.4617  1.2169
  184MOL    H2244308   4.320   2.843   7.862 -2.9192 -1.8052  1.8067
  184MOL    H2344309   4.511   2.943   7.466 -0.2968  0.1894 -0.4583
  184MOL    H2444310   4.514   3.093   7.564 -0.7970 -0.0221 -0.3174
  184MOL    H2544311   4.371   3.047   7.507  1.1563  1.1562 -0.9270
  184MOL    C2644312   4.117   2.887   7.799 -0.5033  0.4876  0.5949
  184MOL    C2744313   4.128   3.040   7.790  0.0140  0.4222 -0.4704
  184MOL    O2844314   3.999   3.097   7.788  0.8768  0.1272 -0.1719
  184MOL    C2944315   3.956   3.165   7.686  0.0961 -0.0897 -0.0911
  184MOL    C3044316   3.820   3.227   7.712  0.2968 -0.1043  0.2164
  184MOL    O3144317   4.019   3.198   7.587 -0.5039  0.3219 -0.2927
  184MOL    H3244318   4.062   2.859   7.709  0.4370  1.6358 -0.3579
  184MOL    H3344319   4.073   2.842   7.888  3.0729 -0.9268  1.7435
  184MOL    H3444320   4.168   3.055   7.690  0.4789  1.7829 -0.0891
  184MOL    H3544321   3.766   3.260   7.624  1.6829  2.2322  0.2138
  184MOL    H3644322   3.834   3.313   7.777  1.2021  0.2559 -0.4580
  184MOL    H3744323   3.774   3.141   7.762 -0.0469 -1.6549 -2.6480
  184MOL    C3844324   4.218   3.108   7.896 -0.1952  0.3077 -0.3800
  184MOL    C3944325   4.228   3.264   7.869  0.1270 -0.3794  0.1426
  184MOL    O4044326   4.274   3.331   7.988  0.8030  0.0429 -0.2238
  184MOL    C4144327   4.229   3.462   8.005  0.2923  0.2539 -0.3535
  184MOL    C4244328   4.273   3.514   0.117  0.0314 -0.0189  0.5897
  184MOL    O4344329   4.170   3.535   7.928  0.0964 -0.8653  0.4022
  184MOL    H4444330   4.179   3.095   7.996 -0.4461 -0.4976 -0.5782
  184MOL    H4544331   4.312   3.053   7.891 -0.9546 -1.1353  0.9422
  184MOL    H4644332   4.131   3.310   7.848  0.8967  0.8841 -0.7507
  184MOL    H4744333   4.260   3.622   0.119 -5.3987 -0.5733  2.8426
  184MOL    H4844334   4.380   3.496   0.134  0.3373  1.1015 -0.1201
  184MOL    H4944335   4.218   3.469   0.200 -1.1542  1.3692  0.5762
  184MOL    C5044336   4.328   3.300   7.750  0.4914 -0.0382 -0.1029
  184MOL    C5144337   4.327   3.436   7.677  0.0808 -0.8921  0.1291
  184MOL    O5244338   4.436   3.446   7.585  0.3459  0.4883 -0.2517
  184MOL    C5344339   4.505   3.549   7.575  0.5842 -0.3733 -0.5197
  184MOL    C5444340   4.618   3.535   7.476  0.2848 -0.3956 -0.0723
  184MOL    O5544341   4.491   3.652   7.645  0.4284 -0.5430 -0.3150
  184MOL    H5644342   4.422   3.257   7.785  0.5247  0.6739  0.7062
  184MOL    H5744343   4.304   3.230   7.670  0.1677  1.2329 -1.1324
  184MOL    H5844344   4.346   3.505   7.760 -2.3723 -2.6203  2.1891
  184MOL    H5944345   4.582   3.530   7.374 -0.8604  3.6585  0.0418
  184MOL    H6044346   4.677   3.445   7.493  2.5117  0.8546 -0.8055
  184MOL    H6144347   4.677   3.626   7.486  0.3581 -0.4481 -0.0302
  184MOL    C6244348   4.190   3.462   7.603 -0.1516 -0.9560 -0.0839
  184MOL    C6344349   4.168   3.599   7.536 -0.3699  0.5372  0.6245
  184MOL    O6444350   4.061   3.579   7.448  0.1500 -0.0489  0.2819
  184MOL    C6544351   4.053   3.642   7.328 -0.3807  0.0505 -0.0631
  184MOL    C6644352   3.932   3.597   7.244  0.1169  0.6851 -0.3284
  184MOL    O6744353   4.130   3.733   7.291  0.2041 -0.1975  0.3283
  184MOL    H6844354   4.180   3.387   7.524 -1.7045 -0.4397 -0.3917
  184MOL    H6944355   4.114   3.453   7.681 -0.2006 -0.3661 -0.0615
  184MOL    H7044356   4.247   3.618   7.463 -0.5499  1.0253  0.5554
  184MOL    H7144357   3.949   3.496   7.207 -0.3128  0.4321  0.1597
  184MOL    H7244358   3.922   3.658   7.154  0.3778  2.2665  0.7018
  184MOL    H7344359   3.844   3.585   7.307 -0.8491  0.7959 -1.6343
  184MOL    C7444360   4.130   3.709   7.635  0.6889 -0.0177 -0.8665
  184MOL    C7544361   4.123   3.856   7.589 -0.3096 -0.2465  0.4233
  184MOL    O7644362   4.068   3.939   7.699 -0.4740 -0.0238  0.1281
  184MOL    C7744363   3.939   3.961   7.705 -0.1012 -0.0652  0.0002
  184MOL    C7844364   3.909   4.038   7.833  1.0690 -0.5523 -0.4461
  184MOL    O7944365   3.849   3.939   7.619 -0.6226  0.3366 -0.1941
  184MOL    H8044366   4.032   3.686   7.678  1.4014 -1.3169  0.0715
  184MOL    H8144367   4.184   3.693   7.728 -1.1434 -0.1992  0.1945
  184MOL    H8244368   4.066   3.864   7.496 -1.8646  0.8370  1.4517
  184MOL    H8344369   3.967   3.997   7.916 -0.3562 -1.6877  0.0228
  184MOL    H8444370   3.803   4.028   7.858  0.8127  0.5670 -1.0628
  184MOL    H8544371   3.942   4.142   7.830 -0.7571  0.0142 -1.7024
  184MOL    C8644372   4.267   3.904   7.558  0.5400  0.1090  0.1192
  184MOL    C8744373   4.268   4.035   7.471 -0.6779 -0.3723  0.6531
  184MOL    O8844374   4.268   4.142   7.560 -0.1076 -0.1691  0.6004
  184MOL    C8944375   4.183   4.241   7.533  0.4311 -0.1476  0.4713
  184MOL    C9044376   4.171   4.339   7.648  0.3060 -0.3872  0.2743
  184MOL    O9144377   4.116   4.256   7.430 -0.2188  0.0583  0.2097
  184MOL    H9244378   4.318   3.916   7.654 -1.5090  1.2496  1.0917
  184MOL    H9344379   4.325   3.831   7.502  0.4738 -1.1107  1.6023
  184MOL    H9444380   4.175   4.030   7.415 -0.4024  0.2745  0.1170
  184MOL    H9544381   4.067   4.369   7.648  0.3693 -0.1102 -2.0569
  184MOL    H9644382   4.235   4.425   7.625  0.4353 -1.0637 -1.9713
  184MOL    H9744383   4.197   4.293   7.743  1.6569  2.7972  1.5222
  184MOL    C9844384   4.383   4.047   7.373  0.0912  0.6902  0.2550
  184MOL    C9944385   4.372   4.142   7.247  0.9378  0.2604  0.3159
  184MOL   O10044386   4.502   4.157   7.193 -0.0329 -0.0534  0.4191
  184MOL   C10144387   4.560   4.274   7.164 -0.1677  1.0287  0.0312
  184MOL   C10244388   4.705   4.264   7.136  0.0607  0.5635  0.3335
  184MOL   O10344389   4.500   4.375   7.160  0.1544  0.0814 -0.3599
  184MOL   H10444390   4.464   4.093   7.429  1.2383  1.2953 -1.8261
  184MOL   H10544391   4.418   3.945   7.357  0.4405  0.7793  0.4524
  184MOL   H10644392   4.326   4.234   7.284  2.1877  0.5823  1.1000
  184MOL   H10744393   4.743   4.179   7.192  1.1297  1.3196  0.7903
  184MOL   H10844394   4.745   4.354   7.184 -1.9256  0.5711  2.0521
  184MOL   H10944395   4.726   4.263   7.029  3.3105 -2.0573  0.9062
  184MOL   C11044396   4.281   4.081   7.131  0.2986 -0.4340  0.0640
  184MOL   C11144397   4.246   4.183   7.018 -0.4718  0.8757  0.5562
  184MOL   O11244398   4.222   4.114   6.893  0.5122  0.1896 -0.6116
  184MOL   C11344399   4.285   4.162   6.780  1.0621  0.0347  0.3771
  184MOL   C11444400   4.283   4.064   6.662  0.0527  0.1854 -0.2680
  184MOL   O11544401   4.346   4.267   6.772 -0.1523 -0.0792  0.3083
  184MOL   H11644402   4.329   3.991   7.094 -1.6501 -1.4317 -0.0646
  184MOL   H11744403   4.187   4.047   7.173  1.0913  0.7682  2.9563
  184MOL   H11844404   4.333   4.248   7.009  0.0904  0.0574 -0.0921
  184MOL   H11944405   4.281   4.114   6.565  4.2918  0.7506 -0.1875
  184MOL   H12044406   4.203   3.991   6.652 -0.7244  1.3701 -3.4459
  184MOL   H12144407   4.374   4.004   6.671  0.4468  0.9011  0.5795
  184MOL   C12244408   4.117   4.265   7.054 -0.3595  0.0271  0.1716
  184MOL   C12344409   4.102   4.391   6.965 -0.1971  0.8540 -0.3935
  184MOL   O12444410   3.978   4.457   6.999 -0.4341  0.3240 -0.2786
  184MOL   C12544411   3.859   4.430   6.942 -0.3945 -0.4519 -0.1845
  184MOL   C12644412   3.752   4.532   6.983  0.1595  0.1674 -0.4677
  184MOL   O12744413   3.825   4.351   6.852  0.4733  0.4750  0.2817
  184MOL   H12844414   4.031   4.200   7.038  0.5679 -1.1000 -0.2979
  184MOL   H12944415   4.121   4.299   7.157 -3.0326 -3.0153  1.3704
  184MOL   H13044416   4.087   4.362   6.861  2.5479 -0.6080 -0.4521
  184MOL   H13144417   3.799   4.622   7.020 -1.4022  0.6487  0.4069
  184MOL   H13244418   3.691   4.502   7.068 -1.0592  2.1919 -0.6036
  184MOL   H13344419   3.690   4.566   6.899 -0.5763 -1.5091 -0.6384
  184MOL   C13444420   4.222   4.480   6.977 -0.0641 -0.5567 -0.6077
  184MOL   C13544421   4.201   4.618   6.910 -0.2964  0.6404  0.2914
  184MOL   O13644422   4.326   4.685   6.933 -0.4479 -0.0913 -0.2856
  184MOL   C13744423   4.327   4.787   7.027 -0.3379  0.2350  0.0552
  184MOL   C13844424   4.458   4.866   7.042  0.5483 -0.5729  0.1653
  184MOL   O13944425   4.236   4.810   7.108  0.2151  0.0048 -0.4737
  184MOL   H14044426   4.237   4.497   7.084 -4.7715  0.1065  0.0544
  184MOL   H14144427   4.314   4.430   6.947  0.2928 -1.3007  1.6763
  184MOL   H14244428   4.111   4.658   6.958 -0.5126 -0.8308  1.1246
  184MOL   H14344429   4.540   4.805   7.005  0.8626 -0.4514  0.6578
  184MOL   H14444430   4.473   4.891   7.147 -0.1969  0.6191  0.0051
  184MOL   H14544431   4.458   4.957   6.982 -1.2434 -0.5076  0.2267
  184MOL   C14644432   4.170   4.611   6.765  0.3599  0.2522 -0.2616
  184MOL   C14744433   4.123   4.747   6.706  0.7984  0.0636  0.4815
  184MOL   O14844434   4.134   4.724   6.565  0.0838  0.0972 -0.4950
  184MOL   C14944435   4.232   4.782   6.493 -0.1546 -0.4686 -0.5838
  184MOL   C15044436   4.219   4.772   6.341  0.1523  0.2046  0.0993
  184MOL   O15144437   4.320   4.853   6.543  0.0145 -0.2486  0.1296
  184MOL   H15244438   4.265   4.589   6.717 -0.5634  1.2417 -2.6655
  184MOL   H15344439   4.098   4.531   6.745  0.9717 -0.3823  0.0611
  184MOL   H15444440   4.180   4.834   6.737  1.5846  0.5645 -2.2275
  184MOL   H15544441   4.118   4.752   6.306 -0.7347  1.6753  1.6959
  184MOL   H15644442   4.287   4.699   6.297 -1.7524 -0.5482 -1.6304
  184MOL   H15744443   4.256   4.859   6.288  2.6002 -0.0848  1.2457
  184MOL   C15844444   3.978   4.787   6.750 -0.5255  0.0459 -0.3140
  184MOL   C15944445   3.942   4.931   6.724 -0.0096 -0.0045  0.4519
  184MOL   O16044446   4.036   5.018   6.782 -0.3015 -0.9731  0.0371
  184MOL   C16144447   4.034   5.048   6.918  0.0695  0.2090  0.5844
  184MOL   C16244448   4.121   5.173   6.953  0.8346  0.1376  0.3025
  184MOL   O16344449   3.963   4.989   7.000 -0.5799 -0.2756 -0.5026
  184MOL   H16444450   3.896   4.725   6.714 -0.1781 -1.1456  0.8978
  184MOL   H16544451   3.958   4.761   6.854  1.3714 -2.4786 -0.5185
  184MOL   H16644452   3.853   4.950   6.783  0.3749  1.7607  0.4874
  184MOL   H16744453   4.071   5.244   7.019  1.6091 -0.3736  1.4618
  184MOL   H16844454   4.155   5.220   6.861  0.0047 -0.2295 -0.1944
  184MOL   H16944455   4.211   5.135   7.004  1.3297 -0.0284 -0.6791
  184MOL   C17044456   3.907   4.974   6.578 -0.5440  0.2636 -0.2363
  184MOL   C17144457   3.852   5.117   6.564 -0.5757 -0.0892 -0.3843
  184MOL   O17244458   3.746   5.125   6.663 -0.5182  0.0577  0.0062
  184MOL   C17344459   3.633   5.195   6.634 -0.0485  0.9674  0.9924
  184MOL   C17444460   3.555   5.213   6.763  0.3515  0.0847  0.0415
  184MOL   O17544461   3.595   5.238   6.521  0.5324 -0.3753 -0.2387
  184MOL   H17644462   3.996   4.961   6.517 -0.6429  0.3202 -0.3925
  184MOL   H17744463   3.829   4.905   6.544 -1.8173  1.6671 -0.2403
  184MOL   H17844464   3.803   5.118   6.467  0.1419 -0.7287 -0.7515
  184MOL   H17944465   3.609   5.175   6.849  2.4802  0.5453 -1.0527
  184MOL   H18044466   3.462   5.157   6.762  0.8283 -0.7303 -2.3743
  184MOL   H18144467   3.538   5.321   6.768 -1.0312 -0.2064  2.3054
  184MOL   C18244468   3.948   5.233   6.571 -0.7142 -0.0607 -0.0919
  184MOL   C18344469   4.072   5.244   6.479 -0.7950  0.1448  0.1052
  184MOL   O18444470   4.184   5.171   6.531 -0.3003  0.9267  0.1906
  184MOL   C18544471   4.270   5.220   6.623 -0.0233 -0.8545  0.4367
  184MOL   C18644472   4.356   5.114   6.696 -0.0678  0.0580  0.0230
  184MOL   O18744473   4.275   5.337   6.652 -0.4595  0.7499 -0.8493
  184MOL   H18844474   3.886   5.322   6.565 -0.6231  0.2967  3.0837
  184MOL   H18944475   3.981   5.235   6.675  1.3694 -0.6177 -0.7205
  184MOL   H19044476   4.104   5.347   6.466 -0.6713  0.1649  0.5661
  184MOL   H19144477   4.429   5.069   6.630  0.0743 -0.0461  0.2521
  184MOL   H19244478   4.307   5.041   6.761  1.7585 -1.6201 -0.4791
  184MOL   H19344479   4.409   5.180   6.766 -1.9235  1.9499 -0.2843
  184MOL   C19444480   4.065   5.173   6.339 -0.0749  0.6478 -0.0470
  184MOL   C19544481   4.175   5.205   6.238 -0.3193  0.4077  0.2460
  184MOL   O19644482   4.294   5.140   6.272  0.3749  0.2957 -0.1638
  184MOL   C19744483   4.411   5.201   6.272 -0.7080 -0.0842  0.6078
  184MOL   C19844484   4.514   5.102   6.321 -0.2970 -0.6425  0.0677
  184MOL   O19944485   4.431   5.317   6.240  0.7191 -0.1919  0.1995
  184MOL   H20044486   4.062   5.065   6.344 -0.7503  0.6590 -0.1243
  184MOL   H20144487   3.965   5.189   6.298 -0.4517  1.0711  1.0334
  184MOL   H20244488   4.189   5.313   6.230  0.1442  0.5555  2.5824
  184MOL   H20344489   4.610   5.149   6.297 -1.0349  0.6052 -0.4885
  184MOL   H20444490   4.494   5.009   6.269 -0.7473  0.8550 -2.5241
  184MOL   H20544491   4.515   5.076   6.427  1.7672 -0.4882  0.1212
  184MOL   C20644492   4.130   5.153   6.097  0.1800 -0.0378  0.0136
  184MOL   C20744493   4.232   5.196   5.983  0.4929 -0.1151  0.0135
  184MOL   O20844494   4.191   5.121   5.859 -0.5575 -0.2236  0.0790
  184MOL   C20944495   4.275   5.036   5.794  0.1383 -0.4279  0.2647
  184MOL   C21044496   4.213   4.976   5.668  0.3295  0.5267 -0.1020
  184MOL   O21144497   4.393   5.014   5.830 -0.1142  0.3358 -0.2031
  184MOL   H21244498   4.133   5.044   6.100  0.0802 -0.0273  0.4840
  184MOL   H21344499   4.024   5.174   6.080  0.4140  1.7030  0.5768
  184MOL   H21444500   4.336   5.182   6.013  0.0558 -0.8483  1.2420
  184MOL   H21544501   4.161   4.885   5.697 -0.5777  0.8858 -0.5750
  184MOL   H21644502   4.283   4.943   5.591 -0.6974  0.6032 -1.0706
  184MOL   H21744503   4.140   5.034   5.612 -0.0104  0.5577  0.3698
  184MOL   C21844504   4.224   5.348   5.958 -0.3557  0.2947  0.5960
  184MOL   C21944505   4.308   5.403   5.853 -0.7338 -0.8851  0.1340
  184MOL   O22044506   4.294   5.544   5.841 -0.0073  0.1649 -0.3550
  184MOL   C22144507   4.225   5.596   5.739  0.4019  0.1474  0.1712
  184MOL   C22244508   4.233   5.747   5.745  0.2263 -0.2791  0.3876
  184MOL   O22344509   4.173   5.532   5.650  0.6002  0.1113  0.1446
  184MOL   H22444510   4.119   5.373   5.944  0.0557  0.9862 -1.4135
  184MOL   H22544511   4.244   5.409   6.046 -0.3288  1.0921  0.0493
  184MOL   H22644512   4.288   5.367   5.752  0.1396 -1.5223  0.1810
  184MOL   H22744513   4.192   5.788   5.837  1.8791 -0.6618  1.3182
  184MOL   H22844514   4.193   5.781   5.650  0.6872 -1.9951 -0.4472
  184MOL   H22944515   4.336   5.780   5.732 -0.6622  1.8944 -1.5925
  184MOL   C23044516   4.458   5.370   5.879 -0.0449  0.1000  0.0803
  184MOL   C23144517   4.544   5.412   5.758 -0.3554  0.4242  0.1175
  184MOL   O23244518   4.663   5.339   5.740 -0.4089 -0.5413  0.4194
  184MOL   C23344519   4.751   5.380   5.643 -0.1249  0.2326  0.1106
  184MOL   C23444520   4.887   5.304   5.654  0.3478  0.3521 -0.0860
  184MOL   O23544521   4.731   5.474   5.569  0.1336 -0.1459  0.2357
  184MOL   H23644522   4.489   5.417   5.972 -1.5297  0.2660  0.5116
  184MOL   H23744523   4.467   5.262   5.895 -2.2723  0.2447  2.6430
  184MOL   H23844524   4.579   5.513   5.778  2.0154 -0.1135 -1.1031
  184MOL   H23944525   4.934   5.363   5.733 -1.3318  1.4288  0.1285
  184MOL   H24044526   4.939   5.289   5.560 -0.3565 -1.2928 -0.2468
  184MOL   H24144527   4.875   5.201   5.691  1.1376  0.2812 -0.0194
  184MOL   H24244528   4.490   5.407   5.664 -2.0418 -0.0869  1.0827
  185MOL     C144529   6.109   5.041   1.117 -0.8345 -0.2984 -0.0292
  185MOL     C244530   6.016   5.014   1.232  0.3790  0.1706 -0.4772
  185MOL     O344531   6.084   4.995   1.352  0.1200  0.1217  0.2754
  185MOL     C444532   6.137   4.875   1.389 -0.1321  0.4680 -0.1720
  185MOL     C544533   6.198   4.882   1.526  0.0530 -0.1255  0.1652
  185MOL     O644534   6.136   4.775   1.323  0.3629  0.4379 -0.4696
  185MOL     H744535   6.159   5.138   1.122  0.9615 -1.2653  1.6333
  185MOL     H844536   6.057   5.030   1.022  0.3112 -0.2781 -0.6617
  185MOL     H944537   5.961   4.925   1.200 -1.1660  0.9275  0.0527
  185MOL    H1044538   6.255   4.792   1.548 -0.2686 -1.3027 -3.5665
  185MOL    H1144539   6.112   4.914   1.584 -0.7242 -1.8695 -0.0048
  185MOL    H1244540   6.264   4.969   1.534 -1.3602  0.8310  1.6618
  185MOL    H1344541   6.183   4.962   1.102  0.7201  1.4352 -1.8646
  185MOL    C1444542   5.923   5.129   1.256  0.5937  0.0830  0.4435
  185MOL    C1544543   5.811   5.147   1.162  0.1593 -0.0882  0.4020
  185MOL    O1644544   5.687   5.154   1.225 -0.2219  0.7240  0.0559
  185MOL    C1744545   5.610   5.042   1.261 -0.1164 -0.3265  0.2088
  185MOL    C1844546   5.486   5.094   1.325 -0.4377 -0.4696 -1.1412
  185MOL    O1944547   5.653   4.928   1.262  0.7717  0.6039  0.2507
  185MOL    H2044548   5.883   5.117   1.357 -0.8048 -0.5883 -0.1779
  185MOL    H2144549   5.982   5.220   1.268  1.3875 -0.4477  0.5836
  185MOL    H2244550   5.815   5.057   1.100 -2.2009 -1.4438  2.1244
  185MOL    H2344551   5.413   5.025   1.367  0.5188 -0.9475 -0.2233
  185MOL    H2444552   5.430   5.130   1.239  1.8365  2.4668 -1.4812
  185MOL    H2544553   5.517   5.175   1.392  0.2907 -0.6313 -1.2796
  185MOL    C2644554   5.826   5.275   1.064  0.7810 -0.4170 -1.4045
  185MOL    C2744555   5.752   5.247   0.932  0.7529  0.6121 -0.4632
  185MOL    O2844556   5.619   5.274   0.959  0.4249  0.3852  0.2701
  185MOL    C2944557   5.517   5.202   0.910  0.3943 -0.7178 -1.1922
  185MOL    C3044558   5.384   5.249   0.964  0.4360 -0.5487  0.2043
  185MOL    O3144559   5.526   5.103   0.836 -0.0357  0.0228 -0.2299
  185MOL    H3244560   5.796   5.369   1.111 -1.0633 -1.3167 -0.7367
  185MOL    H3344561   5.931   5.296   1.044  0.9546 -2.7115 -3.1047
  185MOL    H3444562   5.771   5.142   0.907  1.3693  0.7609 -0.6193
  185MOL    H3544563   5.330   5.307   0.889  0.0971 -0.2844  0.6493
  185MOL    H3644564   5.400   5.298   1.060 -0.5148  0.8438 -0.3332
  185MOL    H3744565   5.318   5.167   0.990 -1.0294  0.0415 -1.5237
  185MOL    C3844566   5.799   5.346   0.821 -0.3985 -0.5389 -0.5502
  185MOL    C3944567   5.786   5.301   0.674 -0.9217 -0.8814 -0.5433
  185MOL    O4044568   5.657   5.305   0.618 -0.3462  0.0951  0.0080
  185MOL    C4144569   5.582   5.410   0.627  0.1978 -0.2228  0.5246
  185MOL    C4244570   5.436   5.383   0.576 -0.4308 -0.6577 -0.2786
  185MOL    O4344571   5.618   5.524   0.662  0.0219  0.8860  0.0525
  185MOL    H4444572   5.763   5.447   0.839  0.4867 -0.0886 -1.3083
  185MOL    H4544573   5.906   5.347   0.839 -0.5765 -0.4732  0.5584
  185MOL    H4644574   5.809   5.194   0.672  0.7934 -0.5699  1.1241
  185MOL    H4744575   5.420   5.283   0.538 -0.9216 -0.7024  0.0390
  185MOL    H4844576   5.403   5.464   0.511 -1.6498 -0.0632  1.0579
  185MOL    H4944577   5.381   5.395   0.669 -0.9759 -2.6999 -0.3317
  185MOL    C5044578   5.886   5.364   0.577 -0.8041  1.2301 -0.9903
  185MOL    C5144579   6.041   5.348   0.611  0.0614 -0.2770  0.4147
  185MOL    O5244580   6.073   5.213   0.606 -0.0712  0.1186  0.3813
  185MOL    C5344581   6.121   5.157   0.724 -0.0916 -0.2733 -0.4031
  185MOL    C5444582   6.133   5.000   0.712  0.7961 -0.6632  0.3578
  185MOL    O5544583   6.161   5.216   0.826  0.6065 -0.1481 -0.6369
  185MOL    H5644584   5.863   5.326   0.478  0.1076 -0.5560 -0.5523
  185MOL    H5744585   5.865   5.471   0.580  1.0052  1.5686  2.4505
  185MOL    H5844586   6.054   5.397   0.708 -1.5181  1.9523 -0.4667
  185MOL    H5944587   6.151   4.945   0.804  2.7213 -0.0703  0.3696
  185MOL    H6044588   6.211   4.977   0.640  1.8409  0.5677  1.0660
  185MOL    H6144589   6.037   4.966   0.672 -2.0762  3.3580  3.4493
  185MOL    C6244590   6.135   5.422   0.515 -0.3959 -0.2698 -0.1889
  185MOL    C6344591   6.278   5.439   0.570  1.0331 -0.0294  0.1103
  185MOL    O6444592   6.364   5.329   0.525  0.0496 -0.3473  0.3279
  185MOL    C6544593   6.474   5.286   0.590 -0.4352 -0.2697  0.8243
  185MOL    C6644594   6.510   5.149   0.555 -0.3775  0.7109 -0.3115
  185MOL    O6744595   6.535   5.355   0.675 -0.0581 -0.3672  0.4768
  185MOL    H6844596   6.127   5.376   0.416 -0.8110  1.4549 -0.9677
  185MOL    H6944597   6.089   5.521   0.519 -0.9183 -0.5040 -0.3027
  185MOL    H7044598   6.277   5.439   0.679 -0.3024 -0.9905  0.1172
  185MOL    H7144599   6.585   5.156   0.476  0.8596  1.7282  0.9386
  185MOL    H7244600   6.432   5.086   0.511 -0.2408  0.4902 -0.2393
  185MOL    H7344601   6.555   5.102   0.642  1.0621 -0.7017 -1.7741
  185MOL    C7444602   6.337   5.570   0.526  0.0488 -0.1951  0.4076
  185MOL    C7544603   6.293   5.688   0.605 -0.4942 -0.2326  0.5765
  185MOL    O7644604   6.391   5.711   0.708 -0.0271  1.0647  0.3551
  185MOL    C7744605   6.363   5.658   0.827  0.1868 -0.8807  0.1618
  185MOL    C7844606   6.482   5.665   0.916 -0.0360  0.2246  0.2722
  185MOL    O7944607   6.258   5.614   0.871  0.2600 -0.3216 -0.0164
  185MOL    H8044608   6.445   5.563   0.534  0.1837  2.2461  1.1333
  185MOL    H8144609   6.311   5.568   0.420 -3.3683  0.7156  1.1454
  185MOL    H8244610   6.196   5.661   0.646 -0.3288  0.4309  1.4283
  185MOL    H8344611   6.529   5.568   0.931 -1.5130 -0.6568 -0.6409
  185MOL    H8444612   6.458   5.711   1.011  0.2035 -0.4550  0.6601
  185MOL    H8544613   6.558   5.732   0.874 -1.0824 -0.0284 -2.1013
  185MOL    C8644614   6.275   5.813   0.513  0.3589  0.0060  0.3178
  185MOL    C8744615   6.212   5.936   0.597  0.3554  0.8867  0.4004
  185MOL    O8844616   6.283   6.049   0.568  0.7348  0.6242  0.1903
  185MOL    C8944617   6.379   6.094   0.652  0.4403 -0.3486 -0.4086
  185MOL    C9044618   6.431   6.228   0.592 -0.3107  0.1061  0.7979
  185MOL    O9144619   6.422   6.040   0.752 -0.0560  0.2693 -0.1860
  185MOL    H9244620   6.371   5.852   0.479  1.2322 -2.3685 -0.0878
  185MOL    H9344621   6.218   5.787   0.423 -1.1373  1.9766  0.6818
  185MOL    H9444622   6.227   5.907   0.701 -0.7786  0.4422  0.4494
  185MOL    H9544623   6.346   6.273   0.541 -0.6606  0.0190  1.3019
  185MOL    H9644624   6.506   6.220   0.513 -1.6061 -1.1310 -0.3306
  185MOL    H9744625   6.469   6.301   0.664  1.1203 -1.1288  1.3300
  185MOL    C9844626   6.067   5.966   0.581 -0.2374  0.5008  0.2211
  185MOL    C9944627   5.982   5.857   0.647 -0.0547 -0.5214 -0.8125
  185MOL   O10044628   5.998   5.854   0.786 -0.2807  0.3065  0.2069
  185MOL   C10144629   5.963   5.747   0.867 -0.6001  0.3702 -0.2175
  185MOL   C10244630   5.995   5.769   1.019 -0.1027 -0.4009  0.2709
  185MOL   O10344631   5.928   5.637   0.825 -0.5727 -0.1280  0.5661
  185MOL   H10444632   6.049   6.059   0.636 -1.4685  0.9140 -0.8538
  185MOL   H10544633   6.041   5.989   0.478 -0.4022  2.0050  0.5846
  185MOL   H10644634   6.006   5.759   0.605 -0.5226 -1.4655  1.0735
  185MOL   H10744635   5.922   5.817   1.084  0.1501  0.2385  0.0843
  185MOL   H10844636   6.084   5.831   1.011  0.5596 -1.3952 -0.1541
  185MOL   H10944637   6.012   5.672   1.066  2.6906 -1.0216 -1.9024
  185MOL   C11044638   5.829   5.884   0.631 -0.3192  0.3664 -0.0513
  185MOL   C11144639   5.775   5.887   0.484  0.4223 -0.7087  0.2483
  185MOL   O11244640   5.792   5.762   0.414 -0.2270 -0.5394 -0.4077
  185MOL   C11344641   5.892   5.750   0.319 -0.1333 -0.3525 -0.2006
  185MOL   C11444642   5.901   5.614   0.253  0.0274  0.1145 -0.2687
  185MOL   O11544643   5.975   5.837   0.297  0.0118 -0.6957 -0.0184
  185MOL   H11644644   5.776   5.796   0.668  0.7576 -0.4191 -0.3369
  185MOL   H11744645   5.799   5.971   0.688  1.7747  0.4808  0.9600
  185MOL   H11844646   5.818   5.974   0.435  2.4875 -0.4631  2.4137
  185MOL   H11944647   5.948   5.536   0.312 -0.5568 -2.2185 -2.7642
  185MOL   H12044648   5.944   5.633   0.154  0.0064  1.4755 -0.0279
  185MOL   H12144649   5.804   5.579   0.217  0.3837  1.5048 -2.6804
  185MOL   C12244650   5.623   5.921   0.464  0.2525  0.1084 -0.4442
  185MOL   C12344651   5.571   6.055   0.530  0.2726 -0.4828  0.1860
  185MOL   O12444652   5.470   6.116   0.449  0.0862 -0.4196  0.1728
  185MOL   C12544653   5.508   6.218   0.369 -0.6756  0.5967  0.1752
  185MOL   C12644654   5.390   6.302   0.322  0.0431 -0.2001 -0.3430
  185MOL   O12744655   5.616   6.234   0.315 -0.5977 -0.1782  0.3967
  185MOL   H12844656   5.607   5.932   0.356  1.7937  0.6994 -0.6208
  185MOL   H12944657   5.558   5.841   0.501 -2.3378  1.9960 -0.7767
  185MOL   H13044658   5.655   6.124   0.533  1.9525 -2.5211  1.9869
  185MOL   H13144659   5.408   6.332   0.219  1.0322 -0.2248 -0.1881
  185MOL   H13244660   5.363   6.390   0.380  0.4738  0.6696 -1.4432
  185MOL   H13344661   5.303   6.239   0.302 -0.9694  0.9088  0.5061
  185MOL   C13444662   5.521   6.045   0.674  0.4890 -0.7842 -0.2587
  185MOL   C13544663   5.497   6.173   0.755 -0.1977 -0.3895 -0.1495
  185MOL   O13644664   5.393   6.249   0.681 -0.6352  0.1656 -0.1773
  185MOL   C13744665   5.398   6.384   0.670 -0.4158  0.1689 -0.4354
  185MOL   C13844666   5.268   6.444   0.621 -0.6227  0.0606  0.3044
  185MOL   O13944667   5.494   6.458   0.710  0.1360 -0.3393  0.5648
  185MOL   H14044668   5.427   5.990   0.671  0.6688 -1.1141  0.0493
  185MOL   H14144669   5.594   5.991   0.735  1.2609  0.6237  0.1081
  185MOL   H14244670   5.584   6.234   0.779 -1.1786  0.7920  0.4496
  185MOL   H14344671   5.223   6.499   0.702 -0.1301  1.5090 -0.3910
  185MOL   H14444672   5.202   6.374   0.569  1.5289 -2.9053  1.3945
  185MOL   H14544673   5.293   6.524   0.552  0.8479  0.3643  1.1670
  185MOL   C14644674   5.436   6.143   0.899  0.3715  0.3991 -0.0587
  185MOL   C14744675   5.546   6.097   1.001 -0.2459 -1.4452 -0.7145
  185MOL   O14844676   5.626   6.201   1.026  0.0422  0.2694 -0.2490
  185MOL   C14944677   5.753   6.202   1.010 -0.5200 -0.7229 -0.2744
  185MOL   C15044678   5.816   6.331   1.067  0.0501 -0.3437 -0.4172
  185MOL   O15144679   5.815   6.125   0.934  0.0854 -0.4064  0.8370
  185MOL   H15244680   5.363   6.214   0.937 -1.0025 -0.1502 -1.6241
  185MOL   H15344681   5.370   6.058   0.880  1.0211 -0.2518  0.5575
  185MOL   H15444682   5.606   6.013   0.967  2.0237 -0.8558  1.6750
  185MOL   H15544683   5.900   6.304   1.131  0.8286 -1.0634 -1.7013
  185MOL   H15644684   5.748   6.401   1.115 -0.7886 -1.7925  0.5154
  185MOL   H15744685   5.854   6.389   0.982  0.5903  0.8601  0.6296
  185MOL   C15844686   5.489   6.051   1.139 -0.6868 -0.9769  0.0680
  185MOL   C15944687   5.412   5.928   1.125  0.3268  0.5754  0.5686
  185MOL   O16044688   5.496   5.815   1.120 -0.1053 -0.6014  0.5416
  185MOL   C16144689   5.520   5.756   1.013  0.6431  0.1663  0.2229
  185MOL   C16244690   5.625   5.650   1.038 -0.7506 -0.0683 -0.6930
  185MOL   O16344691   5.479   5.785   0.900 -0.8540  0.3120 -0.1818
  185MOL   H16444692   5.565   6.054   1.218 -2.1511  1.6856  1.4759
  185MOL   H16544693   5.439   6.143   1.171 -0.8697 -0.5974 -1.2769
  185MOL   H16644694   5.338   5.937   1.045 -0.4848 -1.3869  1.0708
  185MOL   H16744695   5.688   5.675   1.123 -1.1917 -1.9386  0.2154
  185MOL   H16844696   5.681   5.647   0.944 -1.6624  2.9897 -1.3970
  185MOL   H16944697   5.574   5.558   1.069  1.0755 -0.6286  0.7279
  185MOL   C17044698   5.329   5.911   1.246  0.7390 -0.1507 -0.3438
  185MOL   C17144699   5.194   5.985   1.263 -0.0680 -0.2807  0.7792
  185MOL   O17244700   5.207   6.111   1.198  0.0598 -0.5517  0.0861
  185MOL   C17344701   5.149   6.217   1.238 -0.2745  0.6817  0.0097
  185MOL   C17444702   5.205   6.348   1.175  0.8432  0.7413  0.0248
  185MOL   O17544703   5.069   6.220   1.332 -0.2129  0.2489  0.1834
  185MOL   H17644704   5.301   5.806   1.254  0.2014 -0.0105 -0.4072
  185MOL   H17744705   5.389   5.919   1.337 -2.3746  1.8414  1.6270
  185MOL   H17844706   5.172   5.997   1.369  0.5635  0.4438  0.8356
  185MOL   H17944707   5.264   6.398   1.252 -0.1048 -0.1052  1.3340
  185MOL   H18044708   5.126   6.419   1.152 -0.5579 -0.0335  2.2424
  185MOL   H18144709   5.277   6.331   1.095  1.2922  2.4816  0.0465
  185MOL   C18244710   5.073   5.918   1.197 -0.5179  0.4684 -0.3624
  185MOL   C18344711   4.995   5.831   1.296 -0.1619 -1.1021 -0.7090
  185MOL   O18444712   4.919   5.920   1.374  0.1310 -0.2495 -0.0103
  185MOL   C18544713   4.937   5.937   1.508 -0.0648  0.2645 -1.3085
  185MOL   C18644714   4.837   6.027   1.567 -0.0847 -0.1250  0.4444
  185MOL   O18744715   5.021   5.881   1.581 -0.1730 -1.0599 -0.4723
  185MOL   H18844716   5.000   5.989   1.158 -1.0043 -0.6847 -1.5578
  185MOL   H18944717   5.107   5.855   1.115  0.4697 -0.4256  0.7186
  185MOL   H19044718   5.055   5.773   1.366 -1.6165  0.1275  1.6068
  185MOL   H19144719   4.864   6.027   1.673  0.9116 -4.2199  0.2529
  185MOL   H19244720   4.744   5.976   1.541 -0.5456  0.7959  0.2182
  185MOL   H19344721   4.836   6.123   1.515  1.1956 -1.6502 -2.4789
  185MOL   C19444722   4.903   5.728   1.228 -0.2754  0.3079  0.5230
  185MOL   C19544723   4.977   5.610   1.156  0.2425  0.0940 -0.0546
  185MOL   O19644724   5.039   5.539   1.262  0.0688  0.4217 -0.7157
  185MOL   C19744725   5.160   5.483   1.247  0.2135  0.4937  0.4799
  185MOL   C19844726   5.196   5.387   1.358 -0.3531  0.1055  0.5920
  185MOL   O19944727   5.237   5.509   1.148 -0.3592  0.3337 -0.7072
  185MOL   H20044728   4.833   5.697   1.306 -0.5221  1.1431  0.6368
  185MOL   H20144729   4.840   5.776   1.153 -1.6731 -1.2894  0.6363
  185MOL   H20244730   5.060   5.644   1.094 -1.9177  1.7468 -2.1662
  185MOL   H20344731   5.287   5.334   1.330 -0.8273  0.9970 -2.8635
  185MOL   H20444732   5.108   5.326   1.380 -2.1586  2.5359  0.2466
  185MOL   H20544733   5.200   5.448   1.448 -0.4494  1.8683 -0.5684
  185MOL   C20644734   4.899   5.513   1.068 -0.4959  0.0888  0.7194
  185MOL   C20744735   4.845   5.570   0.934  0.2178  0.3023  0.1819
  185MOL   O20844736   4.958   5.601   0.849 -0.5867 -0.4842 -0.5090
  185MOL   C20944737   5.015   5.714   0.843 -0.3258 -0.6101  0.9681
  185MOL   C21044738   5.153   5.700   0.775  0.1844 -0.1720  0.5605
  185MOL   O21144739   4.979   5.816   0.898 -0.0920  0.3800  0.1589
  185MOL   H21244740   4.964   5.428   1.044 -1.8998 -1.4714  2.3323
  185MOL   H21344741   4.818   5.471   1.127  0.9260 -1.4311  1.6186
  185MOL   H21444742   4.786   5.660   0.951 -0.6919 -0.6603  2.4538
  185MOL   H21544743   5.141   5.685   0.668  2.7463  0.4898  0.1445
  185MOL   H21644744   5.208   5.616   0.819  0.9595  1.3146  2.5319
  185MOL   H21744745   5.219   5.787   0.775  2.9102 -2.1290  2.0436
  185MOL   C21844746   4.767   5.465   0.852  0.2522  0.0159  0.6985
  185MOL   C21944747   4.659   5.524   0.753  0.2222 -0.3821 -0.3756
  185MOL   O22044748   4.730   5.592   0.650  0.2917  0.0839 -0.9669
  185MOL   C22144749   4.697   5.711   0.609 -0.1344  0.2965 -0.0680
  185MOL   C22244750   4.786   5.761   0.499 -0.4013 -0.3414  0.6857
  185MOL   O22344751   4.600   5.777   0.648 -0.2407  0.1047 -0.1043
  185MOL   H22444752   4.837   5.410   0.789  0.5786 -1.0117  1.9362
  185MOL   H22544753   4.715   5.388   0.910  2.3042 -1.5025  0.6011
  185MOL   H22644754   4.608   5.599   0.814  1.0910 -0.3257  0.3010
  185MOL   H22744755   4.861   5.822   0.549 -0.5026 -0.0874  0.5313
  185MOL   H22844756   4.725   5.829   0.440 -0.9110 -0.8547  0.6190
  185MOL   H22944757   4.842   5.687   0.442 -0.3474 -0.7816  1.3032
  185MOL   C23044758   4.570   5.415   0.695 -0.0542 -0.3389 -0.9713
  185MOL   C23144759   4.646   5.320   0.607 -0.6493  0.4080  0.1621
  185MOL   O23244760   4.567   5.234   0.537 -0.4811 -0.1675 -0.4399
  185MOL   C23344761   4.513   5.126   0.589 -0.2126  0.4501 -0.2995
  185MOL   C23444762   4.401   5.070   0.500  0.0094 -0.0826 -0.2218
  185MOL   O23544763   4.531   5.082   0.704 -0.6319  0.0918 -0.6830
  185MOL   H23644764   4.542   5.368   0.790  3.1116  1.8904  1.1260
  185MOL   H23744765   4.479   5.465   0.661 -0.1582 -0.7170 -1.2591
  185MOL   H23844766   4.711   5.258   0.669  1.1627  2.4371  0.3537
  185MOL   H23944767   4.356   4.983   0.547 -0.0787 -0.4434 -0.9636
  185MOL   H24044768   4.435   5.036   0.403  2.7930  0.7699  0.4097
  185MOL   H24144769   4.328   5.151   0.494 -0.5775 -0.6111 -0.3082
  185MOL   H24244770   4.697   5.384   0.535 -0.7096 -0.2670 -0.4878
  186MOL     C144771   1.011   3.832   0.978  0.7842  0.0724 -0.1497
  186MOL     C244772   0.905   3.940   0.955 -0.1177  0.5490  0.3478
  186MOL     O344773   0.787   3.870   0.908 -0.2953  0.2406  0.5574
  186MOL     C444774   0.731   3.898   0.793  0.2405  0.2714 -0.4529
  186MOL     C544775   0.640   3.792   0.735 -0.2751  0.6898  0.5690
  186MOL     O644776   0.741   4.002   0.736 -0.4416  0.3572 -0.1230
  186MOL     H744777   1.008   3.761   0.895 -0.2323 -2.2050  1.7746
  186MOL     H844778   0.975   3.767   1.058 -0.1639 -0.2044 -0.7910
  186MOL     H944779   0.940   4.011   0.881  2.3038 -1.9013 -0.9667
  186MOL    H1044780   0.548   3.777   0.792 -1.1580  2.0706 -0.4622
  186MOL    H1144781   0.688   3.694   0.738 -1.6569 -0.0259 -0.0104
  186MOL    H1244782   0.611   3.821   0.634  0.5732 -1.6512 -0.3768
  186MOL    H1344783   1.113   3.864   0.996  0.3122  1.6673 -0.2858
  186MOL    C1444784   0.877   4.027   1.080  0.1744  0.0839  0.5341
  186MOL    C1544785   0.965   4.150   1.086  0.7595  0.1601  0.6224
  186MOL    O1644786   0.948   4.232   0.970 -0.1489  0.2997 -0.0593
  186MOL    C1744787   1.053   4.272   0.902 -0.8834 -0.3647  0.3117
  186MOL    C1844788   1.015   4.347   0.783  0.7638  0.7259  0.2568
  186MOL    O1944789   1.168   4.246   0.928 -0.1903  0.2088 -0.0286
  186MOL    H2044790   0.774   4.062   1.082 -0.1989 -1.0359  1.2594
  186MOL    H2144791   0.894   3.966   1.169 -0.2099 -2.0328 -0.8246
  186MOL    H2244792   1.063   4.103   1.078 -0.0442 -1.4491 -0.0845
  186MOL    H2344793   0.924   4.404   0.802  0.4167  0.3821 -0.3406
  186MOL    H2444794   0.991   4.274   0.705  0.6711  1.6609 -0.6081
  186MOL    H2544795   1.098   4.407   0.744  2.8921 -1.0934  1.8731
  186MOL    C2644796   0.967   4.235   1.211 -0.2400  0.2054  0.5376
  186MOL    C2744797   1.035   4.178   1.337 -0.5491  0.0916  0.4761
  186MOL    O2844798   0.964   4.060   1.378 -0.2374 -0.0545  0.0654
  186MOL    C2944799   0.880   4.057   1.480 -0.8313 -0.3794 -0.1262
  186MOL    C3044800   0.848   3.915   1.523  0.2080  0.0772 -0.7991
  186MOL    O3144801   0.836   4.158   1.532  0.7119 -0.2881 -0.0696
  186MOL    H3244802   1.003   4.335   1.192  3.6914 -0.9093  1.6881
  186MOL    H3344803   0.868   4.264   1.246 -0.3024 -1.2134  1.6040
  186MOL    H3444804   1.025   4.253   1.415  0.8164  0.2325  0.5224
  186MOL    H3544805   0.925   3.873   1.587 -0.3326  1.2684  0.6727
  186MOL    H3644806   0.855   3.850   1.436 -1.5676 -0.1262 -0.8141
  186MOL    H3744807   0.751   3.915   1.574  0.7789 -0.0807  0.3093
  186MOL    C3844808   1.177   4.126   1.309 -0.1370  0.0458 -0.5962
  186MOL    C3944809   1.280   4.241   1.286 -0.5122  0.3190  0.2087
  186MOL    O4044810   1.268   4.344   1.384 -0.6696 -0.3993  0.1998
  186MOL    C4144811   1.264   4.468   1.353 -0.3415  0.5258  0.4422
  186MOL    C4244812   1.201   4.539   1.471 -0.0613  0.3953  0.0836
  186MOL    O4344813   1.282   4.521   1.246  0.3181 -0.3721 -0.3303
  186MOL    H4444814   1.215   4.063   1.389  0.8806 -0.0778 -1.1642
  186MOL    H4544815   1.182   4.053   1.228 -0.1570 -1.4293  0.7146
  186MOL    H4644816   1.265   4.281   1.186  0.0530  0.2473  0.0912
  186MOL    H4744817   1.208   4.483   1.564  1.8650  2.5220  1.2616
  186MOL    H4844818   1.096   4.545   1.442 -0.2642  2.2635  1.1713
  186MOL    H4944819   1.234   4.642   1.482  1.0388 -0.0561  1.1436
  186MOL    C5044820   1.426   4.194   1.287  0.4414 -0.2643 -0.0890
  186MOL    C5144821   1.514   4.273   1.190 -0.1173  0.7072 -0.2519
  186MOL    O5244822   1.655   4.270   1.228  0.0274 -0.4067 -0.4003
  186MOL    C5344823   1.732   4.375   1.232 -0.0504  0.3709 -0.3044
  186MOL    C5444824   1.858   4.347   1.307 -0.0037  0.1328  0.3833
  186MOL    O5544825   1.700   4.488   1.196 -0.2135 -0.3217  0.1922
  186MOL    H5644826   1.465   4.208   1.388  1.3719 -1.3853 -0.2869
  186MOL    H5744827   1.429   4.086   1.276 -2.1995 -0.5590  1.4847
  186MOL    H5844828   1.466   4.370   1.202 -0.5449  0.2596  1.9502
  186MOL    H5944829   1.848   4.371   1.413  0.4550 -2.6495  1.0964
  186MOL    H6044830   1.933   4.419   1.274 -0.3149  1.2508  2.0270
  186MOL    H6144831   1.891   4.243   1.311 -0.6521 -0.1686 -1.4126
  186MOL    C6244832   1.498   4.218   1.046  0.7800 -0.0789  0.5471
  186MOL    C6344833   1.536   4.322   0.936  0.5920 -0.2674 -0.2776
  186MOL    O6444834   1.553   4.250   0.809  0.7836  0.2197  0.0585
  186MOL    C6544835   1.648   4.282   0.731  0.4531 -0.2289  0.1432
  186MOL    C6644836   1.633   4.223   0.588  0.5193 -0.2096  0.6455
  186MOL    O6744837   1.745   4.349   0.763 -0.4713 -0.6122 -0.2984
  186MOL    H6844838   1.568   4.135   1.039  0.5340 -0.1645 -1.0866
  186MOL    H6944839   1.404   4.175   1.011  0.3350  0.8186  0.6191
  186MOL    H7044840   1.628   4.371   0.967 -0.4241  1.5024  0.0243
  186MOL    H7144841   1.545   4.268   0.542 -0.8481 -1.6502  1.7763
  186MOL    H7244842   1.609   4.117   0.590 -2.8519  0.4986 -0.3448
  186MOL    H7344843   1.727   4.223   0.533  0.1832  0.9869  0.0556
  186MOL    C7444844   1.433   4.443   0.922 -0.1525 -0.1122 -0.9087
  186MOL    C7544845   1.494   4.567   0.843  0.1492  0.1329 -0.0647
  186MOL    O7644846   1.462   4.555   0.702 -0.6396  0.0752  0.1854
  186MOL    C7744847   1.551   4.605   0.610  0.0212  0.1126  0.0804
  186MOL    C7844848   1.521   4.559   0.468 -0.1425  0.3478  0.1377
  186MOL    O7944849   1.643   4.679   0.632 -0.0223 -0.4024 -0.0807
  186MOL    H8044850   1.337   4.410   0.882 -1.2817  1.7753  0.1999
  186MOL    H8144851   1.411   4.482   1.022 -1.4653 -1.9307 -0.4462
  186MOL    H8244852   1.596   4.595   0.870  0.4898 -0.9419 -0.2270
  186MOL    H8344853   1.617   4.556   0.417  1.2224  1.7680  2.4965
  186MOL    H8444854   1.454   4.626   0.415  1.6947 -0.6260 -3.5225
  186MOL    H8544855   1.478   4.459   0.466  2.7706 -0.9397 -0.7935
  186MOL    C8644856   1.423   4.690   0.902 -0.1130  0.4230  0.9488
  186MOL    C8744857   1.503   4.745   1.020 -0.0927 -0.5741  0.1012
  186MOL    O8844858   1.644   4.783   0.996  0.1544  0.6361 -0.3689
  186MOL    C8944859   1.678   4.872   0.906  0.2234  0.1629 -0.0241
  186MOL    C9044860   1.828   4.905   0.903 -0.9095  0.1415 -0.4243
  186MOL    O9144861   1.606   4.945   0.841  0.6711  0.0495  0.7763
  186MOL    H9244862   1.421   4.778   0.838  0.0256 -0.8152 -0.7925
  186MOL    H9344863   1.321   4.655   0.918 -0.6117  0.4432 -1.9527
  186MOL    H9444864   1.513   4.662   1.089 -1.2009 -0.1164  0.8310
  186MOL    H9544865   1.839   5.013   0.913 -0.3464 -0.0212  0.9007
  186MOL    H9644866   1.864   4.865   0.809  0.6975 -0.6670  0.5123
  186MOL    H9744867   1.878   4.845   0.979 -2.5699 -2.1903 -1.1286
  186MOL    C9844868   1.421   4.847   1.109  0.1943 -0.3304  0.3454
  186MOL    C9944869   1.480   4.884   1.245  0.1754  0.4222  1.0418
  186MOL   O10044870   1.395   4.989   1.298  0.5585  0.1632  0.4506
  186MOL   C10144871   1.452   5.108   1.341 -0.8095  0.3093 -1.0379
  186MOL   C10244872   1.343   5.202   1.376 -0.1628  0.3905  0.1412
  186MOL   O10344873   1.576   5.138   1.346 -0.2760 -0.1398  0.3021
  186MOL   H10444874   1.401   4.933   1.044  2.8648 -0.2235 -0.3838
  186MOL   H10544875   1.324   4.798   1.121  0.4371 -0.4383  1.9635
  186MOL   H10644876   1.579   4.920   1.217 -0.3371 -0.9713 -2.8715
  186MOL   H10744877   1.320   5.206   1.482 -1.9505 -1.3812 -0.1586
  186MOL   H10844878   1.249   5.180   1.326 -0.9370  1.6133  1.0254
  186MOL   H10944879   1.381   5.300   1.345 -0.8695  0.2154 -1.3309
  186MOL   C11044880   1.483   4.768   1.341  0.1057 -0.7482 -0.5054
  186MOL   C11144881   1.598   4.784   1.445  0.2755 -1.2052 -0.3169
  186MOL   O11244882   1.566   4.873   1.555  0.1227 -0.6441 -0.2456
  186MOL   C11344883   1.656   4.970   1.590  0.0153 -1.0965 -0.4208
  186MOL   C11444884   1.607   5.072   1.693  0.1043 -0.5627 -0.9920
  186MOL   O11544885   1.776   4.974   1.555  0.2578 -0.2584 -0.0323
  186MOL   H11644886   1.395   4.744   1.401  0.2997 -0.5111 -0.1292
  186MOL   H11744887   1.508   4.675   1.288  1.4300 -0.0112 -1.2104
  186MOL   H11844888   1.682   4.831   1.395 -1.6404  0.1469 -2.3927
  186MOL   H11944889   1.678   5.141   1.739  0.7867 -0.8215 -1.6520
  186MOL   H12044890   1.582   4.999   1.770 -1.2994 -2.0596 -2.8027
  186MOL   H12144891   1.520   5.131   1.664 -1.0891 -1.5605  0.5173
  186MOL   C12244892   1.653   4.654   1.518  0.0145  0.3137  0.3257
  186MOL   C12344893   1.798   4.660   1.574  0.1367 -0.0156  0.1332
  186MOL   O12444894   1.817   4.532   1.633 -0.3365  0.2307 -0.0557
  186MOL   C12544895   1.871   4.527   1.764 -0.0206  0.0174 -0.5478
  186MOL   C12644896   1.875   4.393   1.827 -0.7732 -0.8195  0.7919
  186MOL   O12744897   1.913   4.626   1.832  0.1174 -0.0220  0.8873
  186MOL   H12844898   1.585   4.622   1.596  2.1837 -1.3170  1.5852
  186MOL   H12944899   1.657   4.570   1.449 -0.4326  0.6538 -0.1225
  186MOL   H13044900   1.802   4.741   1.646  0.2526 -0.1770  0.3073
  186MOL   H13144901   1.791   4.391   1.895 -0.8542 -1.6999  0.6801
  186MOL   H13244902   1.972   4.388   1.877 -0.1211  0.8963 -0.2640
  186MOL   H13344903   1.877   4.317   1.748 -1.1466  0.9171 -0.9170
  186MOL   C13444904   1.910   4.674   1.467  0.2565 -0.3479  0.3811
  186MOL   C13544905   2.062   4.676   1.510 -0.0169 -0.0567 -0.8612
  186MOL   O13644906   2.129   4.561   1.460 -0.1770 -0.3173 -0.1920
  186MOL   C13744907   2.155   4.456   1.541 -0.3286 -0.3935 -0.3709
  186MOL   C13844908   2.192   4.335   1.455 -0.0346  0.2395 -0.1826
  186MOL   O13944909   2.138   4.441   1.661 -0.5833 -0.9780  0.0534
  186MOL   H14044910   1.899   4.583   1.407 -1.6974 -1.7307  2.7355
  186MOL   H14144911   1.888   4.767   1.413  0.4103 -0.0500  0.8352
  186MOL   H14244912   2.055   4.678   1.619  1.2423  0.6806 -0.7889
  186MOL   H14344913   2.298   4.313   1.457 -0.3540 -1.2463  1.0415
  186MOL   H14444914   2.146   4.344   1.356  1.0172 -0.3411 -0.7230
  186MOL   H14544915   2.138   4.250   1.496  0.3136 -0.1800 -0.5876
  186MOL   C14644916   2.137   4.807   1.479  1.1141 -1.1916  0.2744
  186MOL   C14744917   2.279   4.826   1.540 -0.0070 -0.0135  0.5061
  186MOL   O14844918   2.319   4.943   1.485  0.2560  0.0584 -0.3297
  186MOL   C14944919   2.398   4.936   1.369 -0.1691  0.4795 -0.7915
  186MOL   C15044920   2.436   5.078   1.319 -0.1481 -0.6298  0.3332
  186MOL   O15144921   2.441   4.831   1.318  0.3510 -0.1851  0.2259
  186MOL   H15244922   2.137   4.816   1.370  0.1173 -0.9097  0.2902
  186MOL   H15344923   2.081   4.897   1.505  0.7790 -0.7296 -1.8660
  186MOL   H15444924   2.343   4.743   1.509 -1.5256 -0.1808 -2.3966
  186MOL   H15544925   2.544   5.082   1.301 -0.3378  4.8039 -0.1635
  186MOL   H15644926   2.412   5.164   1.381  1.2567  0.3454 -0.4503
  186MOL   H15744927   2.391   5.100   1.223  2.2948 -0.9552 -0.9209
  186MOL   C15844928   2.279   4.832   1.692 -0.9900  0.5335 -0.9595
  186MOL   C15944929   2.426   4.820   1.750 -0.0309  0.6425  0.3493
  186MOL   O16044930   2.504   4.933   1.702 -0.5225  0.0235 -0.3867
  186MOL   C16144931   2.631   4.926   1.657  0.4077  0.0084  0.2627
  186MOL   C16244932   2.679   5.057   1.591 -0.3186  0.4883 -0.5808
  186MOL   O16344933   2.706   4.831   1.671  0.4573  0.1261  0.1690
  186MOL   H16444934   2.225   4.919   1.730  0.0143  1.0466 -0.6926
  186MOL   H16544935   2.235   4.741   1.732  1.5909 -0.0346  0.7107
  186MOL   H16644936   2.465   4.719   1.737 -0.8853  0.1146  1.7415
  186MOL   H16744937   2.779   5.047   1.549  0.2137  2.0112  0.3161
  186MOL   H16844938   2.672   5.136   1.665 -2.9661 -0.8009  0.6336
  186MOL   H16944939   2.613   5.072   1.506 -0.8823  2.1023  0.1319
  186MOL   C17044940   2.425   4.827   1.908 -0.1989 -0.5846 -0.0333
  186MOL   C17144941   2.336   4.721   1.983 -0.0131 -0.1392 -0.5787
  186MOL   O17244942   2.393   4.591   1.969 -0.0669 -0.4918 -0.3477
  186MOL   C17344943   2.324   4.477   1.951  0.3390 -0.0886 -0.7136
  186MOL   C17444944   2.413   4.361   1.913  0.1187  0.4287 -0.6302
  186MOL   O17544945   2.202   4.459   1.947 -0.6102  0.2251 -0.3757
  186MOL   H17644946   2.526   4.822   1.949  0.1123  0.6885 -0.6020
  186MOL   H17744947   2.387   4.928   1.919  1.3333  0.2279 -1.8414
  186MOL   H17844948   2.236   4.724   1.940  0.7150 -1.0206 -2.3891
  186MOL   H17944949   2.431   4.352   1.806 -1.6255 -2.1139 -0.7516
  186MOL   H18044950   2.374   4.269   1.956 -0.3377  0.0361 -1.8533
  186MOL   H18144951   2.513   4.381   1.954  0.3571  1.2971 -1.6190
  186MOL   C18244952   2.325   4.757   2.130  0.7231  0.3091  0.4882
  186MOL   C18344953   2.216   4.695   2.218  0.3799  0.5770 -0.1213
  186MOL   O18444954   2.229   4.744   2.359 -0.0226 -0.0078 -0.4544
  186MOL   C18544955   2.191   4.661   2.462  0.4114  0.4425  0.8730
  186MOL   C18644956   2.201   4.723   2.590  0.4357  0.4489 -0.5343
  186MOL   O18744957   2.151   4.548   2.450 -0.6409  0.1560  0.3359
  186MOL   H18844958   2.423   4.744   2.176  1.4396  0.6233 -0.8962
  186MOL   H18944959   2.302   4.864   2.130 -0.5283  0.0412 -0.9018
  186MOL   H19044960   2.229   4.588   2.230  1.0579  0.8890  2.3599
  186MOL   H19144961   2.117   4.793   2.591 -1.1027 -1.2931 -3.6586
  186MOL   H19244962   2.299   4.761   2.619  0.3064  0.7539 -0.4898
  186MOL   H19344963   2.177   4.634   2.648 -0.5300 -0.0593 -1.7000
  186MOL   C19444964   2.067   4.722   2.174 -0.2293  0.5263 -0.8401
  186MOL   C19544965   2.018   4.877   2.185 -0.0226  0.1558 -0.2766
  186MOL   O19644966   1.936   4.915   2.071  0.1881 -0.3610 -0.3471
  186MOL   C19744967   1.997   4.959   1.962  0.4101  0.2761 -0.0612
  186MOL   C19844968   1.903   4.991   1.847  0.5567  0.5508 -0.3645
  186MOL   O19944969   2.122   4.970   1.949  0.0064  0.1359 -0.1913
  186MOL   H20044970   2.050   4.684   2.074 -0.4493 -1.8784  0.0835
  186MOL   H20144971   2.002   4.665   2.240  0.5738 -0.1796 -0.6502
  186MOL   H20244972   2.116   4.926   2.182 -0.1397  0.3559 -0.8329
  186MOL   H20344973   1.956   5.034   1.762  0.4269  1.7105  0.1277
  186MOL   H20444974   1.823   5.063   1.866  2.2336  2.4916 -0.5283
  186MOL   H20544975   1.869   4.890   1.823  1.3498  0.2110 -0.0789
  186MOL   C20644976   1.950   4.902   2.318 -0.0965 -0.2149 -0.5207
  186MOL   C20744977   1.952   5.050   2.373  0.1301 -0.6323 -0.2377
  186MOL   O20844978   2.086   5.082   2.400  0.1590  0.0216  0.3023
  186MOL   C20944979   2.130   5.089   2.528 -0.1764  0.2543  0.1285
  186MOL   C21044980   2.281   5.080   2.532 -0.1332 -0.2619  0.1454
  186MOL   O21144981   2.073   5.090   2.636 -0.7048 -0.4395 -0.3537
  186MOL   H21244982   1.845   4.877   2.304  0.1094 -0.4965 -1.6174
  186MOL   H21344983   1.976   4.831   2.398  1.7146 -1.4668 -2.1695
  186MOL   H21444984   1.905   5.043   2.471  0.7504 -0.4644  0.0727
  186MOL   H21544985   2.316   4.982   2.499  1.2592  0.3404 -0.2177
  186MOL   H21644986   2.322   5.104   2.630 -1.0941 -1.2022  0.7846
  186MOL   H21744987   2.312   5.160   2.465 -0.0081 -0.3677  0.0765
  186MOL   C21844988   1.895   5.164   2.289  0.2302  0.1294  0.9901
  186MOL   C21944989   1.749   5.147   2.237 -0.2332  0.3355 -0.2216
  186MOL   O22044990   1.669   5.093   2.345 -0.2556  0.1150 -0.7075
  186MOL   C22144991   1.578   4.994   2.328  0.4924  0.5409  0.4370
  186MOL   C22244992   1.512   4.945   2.458  1.0325  0.7159 -0.0843
  186MOL   O22344993   1.531   4.950   2.218  0.8066  0.1788  0.0007
  186MOL   H22444994   1.904   5.265   2.329 -0.5101  0.8267 -0.5312
  186MOL   H22544995   1.963   5.164   2.204 -1.4443 -0.1407 -0.3880
  186MOL   H22644996   1.747   5.080   2.151  0.2555 -0.4397  0.3598
  186MOL   H22744997   1.445   5.026   2.488 -0.1866  0.3419 -1.7072
  186MOL   H22844998   1.594   4.926   2.527  1.5518 -1.9270 -1.3533
  186MOL   H22944999   1.468   4.845   2.449  0.6640  0.6967  1.8162
  186MOL   C23045000   1.692   5.280   2.186  0.1521 -0.5525  0.4028
  186MOL   C23145001   1.595   5.290   2.066 -0.2903  0.9796 -0.1661
  186MOL   O23245002   1.583   5.422   2.010 -1.2224 -0.2542 -0.4693
  186MOL   C23345003   1.567   5.451   1.881 -0.6591 -0.5092 -1.1248
  186MOL   C23445004   1.553   5.601   1.853 -0.0245  0.7334 -0.1581
  186MOL   O23545005   1.558   5.368   1.788 -0.0385  0.6571  0.1504
  186MOL   H23645006   1.658   5.349   2.264 -1.4071  1.9596 -2.4194
  186MOL   H23745007   1.787   5.330   2.164 -0.5614  0.5290 -0.2508
  186MOL   H23845008   1.500   5.252   2.105  1.0646 -2.0064  0.3749
  186MOL   H23945009   1.450   5.631   1.871 -0.7344 -1.2549 -0.6776
  186MOL   H24045010   1.568   5.619   1.747 -0.4804 -0.3511 -0.4204
  186MOL   H24145011   1.614   5.670   1.911 -0.6449  1.8862 -0.8727
  186MOL   H24245012   1.623   5.215   1.992  0.3213 -1.7837  2.7589
  187MOL     C145013   2.137   6.732   1.638 -0.2978  0.4311  0.3526
  187MOL     C245014   2.269   6.693   1.561  0.8979  0.0426  0.5309
  187MOL     O345015   2.296   6.555   1.598  0.1088  0.3006  0.4738
  187MOL     C445016   2.425   6.507   1.596 -0.1054  0.0478 -0.7323
  187MOL     C545017   2.439   6.360   1.643  0.6445  0.0300 -0.8683
  187MOL     O645018   2.524   6.572   1.558  0.0119  0.0072 -0.1526
  187MOL     H745019   2.120   6.840   1.637 -0.3069  0.4335  0.6434
  187MOL     H845020   2.147   6.721   1.746  0.6924  1.2646  0.3615
  187MOL     H945021   2.349   6.755   1.601  0.5107  0.5414  0.5417
  187MOL    H1045022   2.456   6.354   1.750 -3.3174 -0.0681 -0.1851
  187MOL    H1145023   2.522   6.323   1.584  1.2993  3.6933 -2.4024
  187MOL    H1245024   2.353   6.301   1.611  1.3859 -0.8640 -1.2233
  187MOL    H1345025   2.055   6.672   1.599  1.4949 -0.5154 -2.0535
  187MOL    C1445026   2.277   6.718   1.414  0.0618 -0.1172  0.2760
  187MOL    C1545027   2.215   6.851   1.363 -0.2904  0.1197 -0.2246
  187MOL    O1645028   2.304   6.956   1.394 -0.6651 -0.0871  0.0744
  187MOL    C1745029   2.261   7.081   1.410 -0.7945 -1.2230  0.9132
  187MOL    C1845030   2.376   7.179   1.421  0.4921  0.1208  0.5477
  187MOL    O1945031   2.146   7.122   1.421 -0.3354  0.4321  0.7253
  187MOL    H2045032   2.380   6.706   1.382  0.1807  1.9021 -0.2051
  187MOL    H2145033   2.217   6.639   1.369 -0.0630  0.8477 -1.2900
  187MOL    H2245034   2.120   6.867   1.414 -0.7657  0.9994 -1.3601
  187MOL    H2345035   2.416   7.172   1.320  0.9102 -0.9652  0.7744
  187MOL    H2445036   2.453   7.137   1.486 -1.4202 -3.1044  0.8176
  187MOL    H2545037   2.342   7.280   1.445  1.4650  0.5063  0.3255
  187MOL    C2645038   2.177   6.856   1.217  0.2381  0.6764  0.1990
  187MOL    C2745039   2.075   6.751   1.165  0.3271  0.3364 -0.2214
  187MOL    O2845040   1.958   6.760   1.248 -0.5961 -0.1679  0.1584
  187MOL    C2945041   1.918   6.646   1.313  0.0348 -0.6459  0.4465
  187MOL    C3045042   1.834   6.681   1.433  0.3978 -0.4737  1.3377
  187MOL    O3145043   1.971   6.538   1.305 -0.1119 -0.3328  0.1702
  187MOL    H3245044   2.137   6.954   1.191  1.1929  0.5999 -1.6768
  187MOL    H3345045   2.261   6.846   1.149  0.6129 -0.4804  0.8218
  187MOL    H3445046   2.128   6.657   1.183  0.6638  0.9151  1.8613
  187MOL    H3545047   1.730   6.705   1.412  1.1075  0.3998 -1.5127
  187MOL    H3645048   1.877   6.772   1.475  1.1244 -0.6669  1.0339
  187MOL    H3745049   1.834   6.597   1.502 -0.5945 -0.0101  1.9182
  187MOL    C3845050   2.057   6.764   1.004  0.5165 -0.8942 -0.2582
  187MOL    C3945051   1.947   6.677   0.944 -0.4665 -0.3638  0.2187
  187MOL    O4045052   1.936   6.724   0.805  0.6853 -0.1793 -0.3734
  187MOL    C4145053   1.832   6.788   0.763 -0.0535  0.3059 -0.3220
  187MOL    C4245054   1.825   6.808   0.615 -0.3259  0.3387  0.6100
  187MOL    O4345055   1.742   6.832   0.834 -0.1116  0.1470 -0.4464
  187MOL    H4445056   2.046   6.870   0.981  1.7511 -0.7356 -0.1645
  187MOL    H4545057   2.157   6.751   0.964  2.2754  1.2814  3.1417
  187MOL    H4645058   1.849   6.690   0.989 -0.1368  0.6669  0.6468
  187MOL    H4745059   1.907   6.756   0.565  0.0524  1.9337 -0.4757
  187MOL    H4845060   1.828   6.913   0.584 -0.2105 -0.2152 -1.2690
  187MOL    H4945061   1.734   6.770   0.569  0.9048  0.6919 -2.1838
  187MOL    C5045062   1.990   6.530   0.941 -0.7781  0.7534 -0.8113
  187MOL    C5145063   1.877   6.443   0.892  0.2761 -0.4713 -0.3777
  187MOL    O5245064   1.865   6.441   0.749 -0.0554  0.5332 -0.2859
  187MOL    C5345065   1.737   6.437   0.684 -0.3612 -0.3781  0.1254
  187MOL    C5445066   1.745   6.471   0.539  0.1080  0.3686 -0.4196
  187MOL    O5545067   1.628   6.415   0.737 -0.5099  0.3077  0.3248
  187MOL    H5645068   2.077   6.504   0.881 -0.0389  0.3234  0.4310
  187MOL    H5745069   2.032   6.493   1.034 -0.2968 -2.3858 -2.2410
  187MOL    H5845070   1.783   6.487   0.925  0.0511 -1.2884  0.0836
  187MOL    H5945071   1.849   6.460   0.507 -0.1061 -4.0119  0.0907
  187MOL    H6045072   1.706   6.571   0.520 -2.3566 -0.9343 -2.5486
  187MOL    H6145073   1.669   6.410   0.491 -0.9014  1.6915 -0.5387
  187MOL    C6245074   1.892   6.298   0.947  0.2227  0.1281 -0.3121
  187MOL    C6345075   1.844   6.289   1.093 -0.7611 -0.5787 -0.3222
  187MOL    O6445076   1.706   6.301   1.109 -0.0933 -0.0094  0.2947
  187MOL    C6545077   1.643   6.418   1.145  0.6044  0.1852  0.0540
  187MOL    C6645078   1.517   6.390   1.230  0.5607 -0.0597 -0.7599
  187MOL    O6745079   1.677   6.535   1.127 -0.4728  0.0001 -0.1000
  187MOL    H6845080   1.820   6.248   0.882 -1.7449  2.2749  0.1156
  187MOL    H6945081   1.990   6.257   0.926 -0.8626 -1.4981 -2.3826
  187MOL    H7045082   1.889   6.372   1.148 -0.8653 -1.2427  0.7684
  187MOL    H7145083   1.447   6.473   1.225 -1.6934 -1.9142 -0.6473
  187MOL    H7245084   1.556   6.381   1.331  0.4412  1.9668 -0.5279
  187MOL    H7345085   1.471   6.300   1.187 -0.1158 -0.7228  1.3288
  187MOL    C7445086   1.879   6.159   1.163 -0.7499 -0.0560 -0.0202
  187MOL    C7545087   2.022   6.100   1.167  0.7651  0.8554 -0.8293
  187MOL    O7645088   2.090   6.176   1.263 -0.1687 -0.0816 -0.1542
  187MOL    C7745089   2.178   6.266   1.223 -0.3606 -0.2986 -0.6564
  187MOL    C7845090   2.245   6.343   1.335 -0.6634 -0.2893  0.1606
  187MOL    O7945091   2.206   6.290   1.104  0.1589  0.5314  0.5497
  187MOL    H8045092   1.826   6.173   1.257 -0.2539  5.8404 -0.4358
  187MOL    H8145093   1.813   6.084   1.121 -3.4255  1.7166  0.8680
  187MOL    H8245094   2.064   6.096   1.066  0.2649 -2.4116 -0.9660
  187MOL    H8345095   2.300   6.429   1.298 -0.5008 -0.5835 -0.2945
  187MOL    H8445096   2.314   6.278   1.389  0.0373  1.6267  1.5811
  187MOL    H8545097   2.174   6.380   1.409  0.1859  0.8992  0.3952
  187MOL    C8645098   2.016   5.953   1.224  0.0853 -0.3188  0.4972
  187MOL    C8745099   1.968   5.852   1.118  0.8207 -0.2582  0.0599
  187MOL    O8845100   2.063   5.847   1.022 -0.0329  0.2400  0.7463
  187MOL    C8945101   2.050   5.885   0.897 -1.1516  0.0314 -1.0608
  187MOL    C9045102   2.182   5.890   0.822  0.2055 -0.2053 -0.7124
  187MOL    O9145103   1.948   5.921   0.838  0.3508 -0.1948  0.4494
  187MOL    H9245104   2.112   5.917   1.261  1.2371  1.7062 -0.4689
  187MOL    H9345105   1.947   5.950   1.309 -0.9660 -0.5671 -0.3582
  187MOL    H9445106   1.873   5.882   1.075  0.2258 -1.9096  0.1659
  187MOL    H9545107   2.174   5.969   0.748  1.1962 -0.1568 -0.7832
  187MOL    H9645108   2.197   5.796   0.770 -2.7063 -1.7610  1.1238
  187MOL    H9745109   2.267   5.914   0.886  0.2611 -1.4655 -0.3011
  187MOL    C9845110   1.947   5.712   1.178  0.4786  0.1436 -0.2217
  187MOL    C9945111   1.877   5.604   1.076  0.1233 -0.0611 -0.4734
  187MOL   O10045112   1.980   5.566   0.987  0.1070 -0.5256 -0.1669
  187MOL   C10145113   1.951   5.548   0.861  0.3550 -0.6154  0.4602
  187MOL   C10245114   2.059   5.478   0.781  0.4619  0.2284  0.2740
  187MOL   O10345115   1.846   5.574   0.802 -0.7779 -0.1301 -0.1223
  187MOL   H10445116   2.040   5.671   1.217 -0.1639  1.0771  2.4165
  187MOL   H10545117   1.891   5.726   1.271 -0.4974 -0.0706 -0.7716
  187MOL   H10645118   1.794   5.656   1.028 -1.1622 -0.1228  1.6536
  187MOL   H10745119   2.122   5.411   0.841  1.2145  1.0637  0.4356
  187MOL   H10845120   2.126   5.551   0.738  0.4173 -1.0917 -2.0993
  187MOL   H10945121   2.016   5.426   0.696 -1.4736  1.0630  0.7044
  187MOL   C11045122   1.841   5.471   1.151 -0.1588 -0.1593  0.7567
  187MOL   C11145123   1.767   5.356   1.071 -0.4834 -0.4201 -0.2209
  187MOL   O11245124   1.779   5.229   1.145  0.5033  0.8042  0.0970
  187MOL   C11345125   1.893   5.153   1.137 -0.2046 -0.0703  0.0959
  187MOL   C11445126   1.888   5.035   1.234 -0.4925 -0.1821 -0.2983
  187MOL   O11545127   1.984   5.171   1.061 -0.5363 -0.0300  0.1532
  187MOL   H11645128   1.927   5.431   1.204  0.0287  0.6568  1.0691
  187MOL   H11745129   1.768   5.490   1.230 -0.4562 -1.6721  0.8611
  187MOL   H11845130   1.824   5.351   0.978 -2.3109  0.1734 -1.3982
  187MOL   H11945131   1.795   5.052   1.287 -0.0694  0.3008  0.2843
  187MOL   H12045132   1.973   5.028   1.302 -1.6721  1.1065  1.3433
  187MOL   H12145133   1.879   4.937   1.185  0.6147 -0.8969  0.8910
  187MOL   C12245134   1.615   5.376   1.034 -0.6317  0.1607 -0.0679
  187MOL   C12345135   1.555   5.282   0.926  0.2433 -0.0290  1.2486
  187MOL   O12445136   1.421   5.313   0.891  0.5847  0.5419  0.4660
  187MOL   C12545137   1.320   5.263   0.968  0.2743  0.1650 -1.0745
  187MOL   C12645138   1.175   5.286   0.914  0.5270  0.1689  0.0917
  187MOL   O12745139   1.332   5.211   1.075 -0.0831 -0.4459 -0.2853
  187MOL   H12845140   1.552   5.386   1.122 -1.2932 -2.1449 -0.2425
  187MOL   H12945141   1.602   5.479   1.001 -0.7609  0.1609 -0.0175
  187MOL   H13045142   1.574   5.179   0.957  1.0764 -0.1347  0.4091
  187MOL   H13145143   1.179   5.286   0.805  1.2999 -1.3980  0.1072
  187MOL   H13245144   1.156   5.390   0.941 -1.2632 -0.6031  1.9263
  187MOL   H13345145   1.100   5.216   0.951 -0.0409  0.3326 -0.7605
  187MOL   C13445146   1.639   5.299   0.799  0.5598 -0.7892 -0.5776
  187MOL   C13545147   1.596   5.212   0.678 -0.1487 -0.3654  0.2209
  187MOL   O13645148   1.519   5.285   0.586 -0.1817 -0.4883  0.2044
  187MOL   C13745149   1.385   5.267   0.572  0.1582  0.1702 -0.0953
  187MOL   C13845150   1.324   5.375   0.478 -0.2539 -0.1804  0.0374
  187MOL   O13945151   1.307   5.186   0.621  0.4344 -0.0341  0.1737
  187MOL   H14045152   1.660   5.402   0.771  0.3875 -1.2503 -2.4487
  187MOL   H14145153   1.736   5.260   0.827  0.5058  0.6752  1.7863
  187MOL   H14245154   1.529   5.130   0.702  0.8825 -1.2225  0.2100
  187MOL   H14345155   1.338   5.350   0.373  1.1873 -0.9692  0.3971
  187MOL   H14445156   1.376   5.471   0.487  0.0991 -0.3852  0.1930
  187MOL   H14545157   1.224   5.398   0.514  0.4304  0.6220  1.4540
  187MOL   C14645158   1.727   5.153   0.606  0.6951  0.1540  0.0674
  187MOL   C14745159   1.692   5.072   0.474 -0.7209 -0.0486  0.0951
  187MOL   O14845160   1.672   5.159   0.361 -0.1585  0.0735  0.0587
  187MOL   C14945161   1.564   5.130   0.269  0.1842 -0.2048 -0.4806
  187MOL   C15045162   1.523   5.246   0.185  0.3368 -0.3078 -0.0226
  187MOL   O15145163   1.509   5.022   0.259 -0.1219  0.3284 -0.2664
  187MOL   H15245164   1.801   5.229   0.583  0.1350  0.6564 -0.0806
  187MOL   H15345165   1.774   5.087   0.678  1.0976  0.7523  0.3512
  187MOL   H15445166   1.599   5.016   0.478 -0.6243 -0.3199 -1.4571
  187MOL   H15545167   1.561   5.334   0.236 -0.8161  0.1590  0.0475
  187MOL   H15645168   1.416   5.263   0.187  0.2730 -0.7648  0.7998
  187MOL   H15745169   1.568   5.232   0.086  0.9813 -1.3781  0.4172
  187MOL   C15845170   1.801   4.967   0.424 -0.0791  0.0158  0.5780
  187MOL   C15945171   1.935   5.027   0.373 -0.1820  0.4684  0.4571
  187MOL   O16045172   2.029   5.038   0.490 -0.4073  0.6779  0.2759
  187MOL   C16145173   2.076   5.158   0.534 -0.2888  0.5450 -0.6667
  187MOL   C16245174   2.176   5.131   0.644  0.2529  0.3052  0.0635
  187MOL   O16345175   2.051   5.270   0.496  0.5364 -0.0436 -0.5037
  187MOL   H16445176   1.817   4.891   0.501 -1.2982 -0.6688  0.1739
  187MOL   H16545177   1.748   4.907   0.350  0.3981 -1.5321  1.4745
  187MOL   H16645178   1.911   5.131   0.350 -0.1581  0.3378 -0.1627
  187MOL   H16745179   2.171   5.033   0.692 -2.5843  0.3596 -0.0482
  187MOL   H16845180   2.143   5.190   0.729  1.2543 -1.3855  1.6704
  187MOL   H16945181   2.281   5.155   0.624  0.5734 -1.2972 -0.2222
  187MOL   C17045182   1.987   4.960   0.246 -0.2599 -0.1600  0.0080
  187MOL   C17145183   2.014   4.806   0.275  0.5846 -0.0491 -0.2689
  187MOL   O17245184   2.025   4.743   0.147  0.2553 -0.1466  0.3636
  187MOL   C17345185   1.946   4.646   0.107  0.4152  0.1647 -0.7716
  187MOL   C17445186   1.968   4.595   7.989 -0.1124 -0.2118  0.0820
  187MOL   O17545187   1.847   4.603   0.167  0.5999  0.2558  0.3355
  187MOL   H17645188   1.923   4.981   0.161 -3.5590 -0.3490  2.3606
  187MOL   H17745189   2.081   5.007   0.217 -1.1092  0.3116 -2.1210
  187MOL   H17845190   1.926   4.772   0.329 -0.0326  1.4809 -0.2895
  187MOL   H17945191   1.955   4.486   7.987  2.3445 -0.5249 -0.6700
  187MOL   H18045192   2.075   4.602   7.971  0.4102 -1.1027  2.6446
  187MOL   H18145193   1.907   4.645   7.914 -1.7770 -2.3219 -0.0258
  187MOL   C18245194   2.155   4.776   0.343 -0.3078  0.1643 -1.0112
  187MOL   C18345195   2.163   4.677   0.456  0.0280 -0.1764 -0.4880
  187MOL   O18445196   2.098   4.555   0.430 -0.4600 -0.6348 -0.3933
  187MOL   C18545197   2.045   4.485   0.534  0.5300  0.0850  0.3800
  187MOL   C18645198   1.955   4.385   0.483  0.4347  0.3014 -0.2290
  187MOL   O18745199   2.070   4.514   0.649  0.3344 -0.4643 -0.1937
  187MOL   H18845200   2.234   4.746   0.275  0.2202  0.7604 -0.6635
  187MOL   H18945201   2.189   4.874   0.377 -1.7827  0.3669 -0.0806
  187MOL   H19045202   2.113   4.729   0.538  0.6844  1.0985 -0.8726
  187MOL   H19145203   1.860   4.432   0.460  0.9412  1.2308 -0.4434
  187MOL   H19245204   1.934   4.312   0.562 -1.4286  2.1361  1.0272
  187MOL   H19345205   1.981   4.336   0.389  0.1181 -0.5389  0.1170
  187MOL   C19445206   2.303   4.644   0.504 -0.0635 -0.2050 -0.0924
  187MOL   C19545207   2.370   4.734   0.611 -0.0425 -0.7030  0.1327
  187MOL   O19645208   2.400   4.866   0.564 -0.0133 -0.0134  0.4445
  187MOL   C19745209   2.495   4.893   0.477 -0.0332 -0.4859  1.0736
  187MOL   C19845210   2.502   5.042   0.445  0.5362  0.5077  0.1238
  187MOL   O19945211   2.574   4.814   0.424 -0.0002  0.1392  0.2714
  187MOL   H20045212   2.307   4.544   0.547  1.9150 -0.8188 -1.6203
  187MOL   H20145213   2.372   4.627   0.422  0.0295 -1.2786  0.2052
  187MOL   H20245214   2.469   4.696   0.636  1.0239  0.8082 -1.6633
  187MOL   H20345215   2.529   5.055   0.340  1.7427  0.9384  0.4863
  187MOL   H20445216   2.566   5.099   0.511 -0.0815  1.7268 -0.3071
  187MOL   H20545217   2.395   5.063   0.452  0.1691 -0.5283 -1.9233
  187MOL   C20645218   2.284   4.750   0.730  0.7427  0.1317  0.0407
  187MOL   C20745219   2.348   4.801   0.856  0.8831  0.5532 -0.4133
  187MOL   O20845220   2.378   4.944   0.853 -0.0696  0.3016  0.3418
  187MOL   C20945221   2.494   4.994   0.891  0.3845  0.4495  0.4027
  187MOL   C21045222   2.528   5.137   0.856  0.0211 -0.2427 -0.3595
  187MOL   O21145223   2.574   4.923   0.952 -0.4766  0.0768 -0.2136
  187MOL   H21245224   2.213   4.824   0.694  0.9827 -0.7830 -2.4346
  187MOL   H21345225   2.237   4.658   0.765  0.5007  0.5293  0.7630
  187MOL   H21445226   2.441   4.745   0.868  0.1069 -0.2608  2.1288
  187MOL   H21545227   2.627   5.139   0.810  0.0133  0.1375 -0.3545
  187MOL   H21645228   2.516   5.205   0.940  0.4434  1.4629 -1.6587
  187MOL   H21745229   2.458   5.176   0.782 -0.6893 -1.6967 -0.4666
  187MOL   C21845230   2.274   4.802   0.986 -0.2166 -0.6247 -0.1402
  187MOL   C21945231   2.259   4.666   1.052  0.6615 -0.2507  0.6580
  187MOL   O22045232   2.151   4.600   0.986 -0.1225  0.4700 -0.0132
  187MOL   C22145233   2.030   4.596   1.047 -0.0663 -0.2900  0.5420
  187MOL   C22245234   1.917   4.536   0.978 -0.2016 -0.8501  0.3497
  187MOL   O22345235   2.001   4.646   1.158 -0.6255  0.1721 -0.3923
  187MOL   H22445236   2.327   4.861   1.061  0.0904 -0.6658 -0.3214
  187MOL   H22545237   2.172   4.835   0.968 -0.2999 -1.4021 -1.1940
  187MOL   H22645238   2.230   4.670   1.157  1.6802 -0.1706  0.9475
  187MOL   H22745239   1.820   4.579   1.001 -0.2575  0.7251 -2.6559
  187MOL   H22845240   1.913   4.428   0.991 -0.6227 -0.8042  0.6051
  187MOL   H22945241   1.929   4.550   0.871 -0.0250 -0.4331  0.4223
  187MOL   C23045242   2.398   4.582   1.062  0.2202 -0.5780  0.9346
  187MOL   C23145243   2.388   4.468   1.162 -0.5072 -0.3217 -0.2429
  187MOL   O23245244   2.498   4.379   1.161  0.2764  0.6126 -0.4238
  187MOL   C23345245   2.484   4.253   1.193  0.5292  1.2464  0.1949
  187MOL   C23445246   2.624   4.177   1.188  0.3326  0.3875 -0.2439
  187MOL   O23545247   2.388   4.187   1.233  0.6617 -0.1906 -0.2692
  187MOL   H23645248   2.435   4.544   0.966 -0.2238  0.4260  0.3609
  187MOL   H23745249   2.476   4.646   1.101  0.7598  0.3755 -1.6247
  187MOL   H23845250   2.299   4.409   1.138 -0.0465 -1.6043  1.1163
  187MOL   H23945251   2.611   4.072   1.162  0.8848 -0.3763  2.3936
  187MOL   H24045252   2.668   4.172   1.288 -0.2350  1.4182  0.0625
  187MOL   H24145253   2.690   4.228   1.119 -1.0667 -0.6493 -2.3827
  187MOL   H24245254   2.375   4.504   1.264 -0.9041 -2.1613  0.3711
  188MOL     C145255   3.069   3.982   0.368 -0.6273 -0.3442 -0.3386
  188MOL     C245256   2.953   3.882   0.355 -0.0091  0.4068 -0.2822
  188MOL     O345257   2.842   3.947   0.291 -0.7014  0.8262  0.3587
  188MOL     C445258   2.713   3.943   0.343 -0.0031 -0.2768 -0.3770
  188MOL     C545259   2.623   4.043   0.270 -1.6231 -0.3755 -0.2282
  188MOL     O645260   2.677   3.878   0.440  0.3647  0.0296 -0.2735
  188MOL     H745261   3.043   4.071   0.426  0.8160  0.2794 -0.6354
  188MOL     H845262   3.125   4.018   0.282  0.1311  0.3118  0.4134
  188MOL     H945263   2.927   3.845   0.454  1.2671 -0.4679 -0.2529
  188MOL    H1045264   2.545   4.070   0.342 -0.1117  1.4337  0.7554
  188MOL    H1145265   2.575   4.007   0.179  1.6632 -1.9627 -1.3980
  188MOL    H1245266   2.678   4.130   0.234  1.0960 -1.4082  1.2792
  188MOL    H1345267   3.150   3.939   0.428 -1.5807 -0.8059  0.6449
  188MOL    C1445268   2.992   3.763   0.273  0.3188 -0.2660  0.4705
  188MOL    C1545269   3.004   3.625   0.347 -0.2233  0.2650 -0.2824
  188MOL    O1645270   3.036   3.510   0.253  0.0792  0.2559  0.1964
  188MOL    C1745271   2.931   3.441   0.192  0.0748  0.1988  0.4100
  188MOL    C1845272   2.983   3.341   0.091  0.0188  0.3246  0.4634
  188MOL    O1945273   2.809   3.466   0.207  0.0202 -0.2039 -0.0663
  188MOL    H2045274   2.928   3.749   0.186  0.3020 -1.1727  0.6265
  188MOL    H2145275   3.092   3.777   0.232 -0.0328  0.2937 -0.2168
  188MOL    H2245276   2.906   3.608   0.391 -0.7067  1.1274 -1.0148
  188MOL    H2345277   2.963   3.375   8.011 -0.2806  1.6815  0.9721
  188MOL    H2445278   2.944   3.241   0.113 -1.9250  0.9392 -0.0852
  188MOL    H2545279   3.090   3.324   0.102  0.3814  1.8982 -0.5657
  188MOL    C2645280   3.113   3.608   0.463  0.1260 -0.1426 -0.3970
  188MOL    C2745281   3.260   3.622   0.416 -0.2022 -0.1646  0.8464
  188MOL    O2845282   3.331   3.720   0.490  0.3549  0.3632  0.0855
  188MOL    C2945283   3.394   3.822   0.437  0.3525 -0.0067  0.6832
  188MOL    C3045284   3.451   3.913   0.547  0.6235 -0.2219  0.3842
  188MOL    O3145285   3.394   3.854   0.321  0.0373 -0.6382 -0.2150
  188MOL    H3245286   3.091   3.673   0.547 -0.7692  0.5318 -1.1381
  188MOL    H3345287   3.101   3.506   0.501 -0.1958  0.4258  1.0253
  188MOL    H3445288   3.253   3.663   0.315 -0.0607  1.3160  1.4270
  188MOL    H3545289   3.376   3.935   0.623 -0.6267  0.5349 -1.0407
  188MOL    H3645290   3.483   4.010   0.510  2.0491 -1.1436 -0.8579
  188MOL    H3745291   3.540   3.861   0.584  1.5339  1.1126  0.0763
  188MOL    C3845292   3.331   3.485   0.434  0.2326  0.1771 -0.4553
  188MOL    C3945293   3.475   3.475   0.370  0.0159 -0.6336  0.7877
  188MOL    O4045294   3.542   3.367   0.427  0.1570  0.6224 -0.1611
  188MOL    C4145295   3.671   3.365   0.461  0.6346 -0.6433 -0.5748
  188MOL    C4245296   3.715   3.229   0.524  0.1809  0.2654 -0.5773
  188MOL    O4345297   3.745   3.464   0.456  0.0721  0.2170  0.2333
  188MOL    H4445298   3.341   3.472   0.541  0.7765 -1.3518 -0.6880
  188MOL    H4545299   3.274   3.405   0.387 -0.5260 -0.3974  1.4312
  188MOL    H4645300   3.533   3.563   0.399  0.3313 -0.7641  0.5461
  188MOL    H4745301   3.766   3.228   0.620 -1.8766  1.7109  0.5640
  188MOL    H4845302   3.795   3.196   0.457  0.9998  0.9067  0.0756
  188MOL    H4945303   3.636   3.154   0.519  0.3130  0.0359  0.7906
  188MOL    C5045304   3.465   3.482   0.216  0.0096 -0.0872  0.4472
  188MOL    C5145305   3.594   3.500   0.133 -0.5522 -0.5701 -0.2213
  188MOL    O5245306   3.665   3.375   0.135  0.0944 -0.3167  0.0000
  188MOL    C5345307   3.804   3.376   0.136  0.8211 -0.0553 -0.2358
  188MOL    C5445308   3.864   3.237   0.140  0.4103  0.0204 -0.0934
  188MOL    O5545309   3.878   3.479   0.119 -0.7680 -0.5777  0.0807
  188MOL    H5645310   3.400   3.404   0.176  1.6268 -0.8872 -0.7016
  188MOL    H5745311   3.410   3.573   0.192 -1.0276 -0.7452  0.2836
  188MOL    H5845312   3.653   3.575   0.186  0.6632 -0.7373 -1.3057
  188MOL    H5945313   3.968   3.231   0.174  1.2495  1.7842 -2.2773
  188MOL    H6045314   3.844   3.191   0.044  0.6330  0.1821 -0.2185
  188MOL    H6145315   3.814   3.178   0.217  0.6198  1.5011  1.2161
  188MOL    C6245316   3.575   3.557   8.011  0.1957  0.0075  0.3860
  188MOL    C6345317   3.576   3.711   8.011  0.1703  0.3308  0.0944
  188MOL    O6445318   3.698   3.751   0.043  0.1550 -0.5571 -0.3608
  188MOL    C6545319   3.710   3.849   0.131  0.8108  0.9108  0.6707
  188MOL    C6645320   3.849   3.843   0.187 -1.1507  0.2796  0.0355
  188MOL    O6745321   3.633   3.940   0.160  0.3181  0.7048  0.7152
  188MOL    H6845322   3.654   3.522   7.945 -0.0805  0.0211  0.0455
  188MOL    H6945323   3.482   3.525   7.964 -0.2607  0.6334  0.8517
  188MOL    H7045324   3.500   3.756   0.054 -0.7909  1.3786 -1.7236
  188MOL    H7145325   3.924   3.782   0.136  0.7782  1.8664  0.9079
  188MOL    H7245326   3.832   3.800   0.286 -0.2759 -2.6796 -1.0335
  188MOL    H7345327   3.897   3.940   0.193  0.2937 -0.4137 -0.0147
  188MOL    C7445328   3.560   3.768   7.867 -0.3505 -0.0906  0.6533
  188MOL    C7545329   3.426   3.745   7.792 -0.7791  0.6038 -0.2398
  188MOL    O7645330   3.323   3.821   7.858  0.0866  0.4115  0.5728
  188MOL    C7745331   3.204   3.759   7.900 -0.1612  0.2618 -0.1770
  188MOL    C7845332   3.111   3.863   7.961 -0.2545 -0.3100 -0.2765
  188MOL    O7945333   3.188   3.634   7.909  0.4251 -0.3785 -0.4712
  188MOL    H8045334   3.567   3.877   7.866  1.8021 -0.2167  1.2775
  188MOL    H8145335   3.645   3.738   7.806  1.0662  0.7589  2.1804
  188MOL    H8245336   3.397   3.640   7.790  0.1098  0.2747  2.4333
  188MOL    H8345337   3.159   3.916   0.022 -0.6119 -0.4074 -0.0061
  188MOL    H8445338   3.011   3.822   7.972 -1.0929  1.7729  0.1281
  188MOL    H8545339   3.090   3.940   7.887 -1.8623  0.4191  0.9004
  188MOL    C8645340   3.439   3.785   7.641  0.2285  0.0926  0.2255
  188MOL    C8745341   3.324   3.731   7.553  0.0498 -0.7706 -0.1271
  188MOL    O8845342   3.209   3.816   7.578 -0.6494  0.5870 -0.3135
  188MOL    C8945343   3.080   3.764   7.577 -0.6280 -0.5704  0.0441
  188MOL    C9045344   2.967   3.858   7.620  1.0175 -0.8725 -0.0077
  188MOL    O9145345   3.057   3.648   7.540 -0.1673 -0.2130  0.5685
  188MOL    H9245346   3.455   3.892   7.626 -1.6545  1.0586  4.2041
  188MOL    H9345347   3.534   3.741   7.611  0.0275 -0.1296 -0.0819
  188MOL    H9445348   3.304   3.626   7.576  0.9699 -0.9473 -0.1085
  188MOL    H9545349   3.000   3.962   7.625  1.9572 -1.2006  0.7173
  188MOL    H9645350   2.930   3.833   7.720  0.5280 -0.3281 -0.0520
  188MOL    H9745351   2.887   3.847   7.547  0.7974  0.5579  0.0108
  188MOL    C9845352   3.362   3.752   7.407  0.5043  0.3394 -0.8665
  188MOL    C9945353   3.467   3.642   7.367 -0.4121 -0.1150 -0.3983
  188MOL   O10045354   3.420   3.514   7.399 -0.1500  0.1360 -0.3768
  188MOL   C10145355   3.495   3.435   7.479 -0.2597 -0.0533  0.0496
  188MOL   C10245356   3.434   3.298   7.502 -0.3599  0.4608 -0.2321
  188MOL   O10345357   3.598   3.465   7.537 -0.5353 -0.1912 -0.5801
  188MOL   H10445358   3.265   3.732   7.361  0.4538 -0.4760 -0.4205
  188MOL   H10545359   3.393   3.856   7.398  2.0066  0.0007  0.2249
  188MOL   H10645360   3.557   3.660   7.426  0.0640 -2.4774 -0.3497
  188MOL   H10745361   3.338   3.303   7.451 -0.3331 -2.5556 -0.6941
  188MOL   H10845362   3.402   3.284   7.605 -2.0941  0.0711 -0.8064
  188MOL   H10945363   3.494   3.215   7.464 -0.8005 -0.7277  1.5843
  188MOL   C11045364   3.502   3.625   7.222 -1.0583 -0.0690  0.5405
  188MOL   C11145365   3.560   3.757   7.152  0.1097 -0.1922 -0.4631
  188MOL   O11245366   3.671   3.793   7.232 -0.5265 -0.1064 -0.0944
  188MOL   C11345367   3.696   3.924   7.239  0.0469 -0.0907  0.5439
  188MOL   C11445368   3.826   3.947   7.316 -0.7426  0.1073 -0.0393
  188MOL   O11545369   3.629   4.012   7.193 -0.3098 -0.6339  0.3701
  188MOL   H11645370   3.576   3.547   7.207 -2.4998 -0.9915 -2.1824
  188MOL   H11745371   3.413   3.591   7.167 -1.0319  1.6238 -0.6040
  188MOL   H11845372   3.480   3.828   7.137 -0.9748 -1.4262 -0.6094
  188MOL   H11945373   3.829   4.027   7.390 -2.1769  0.4735 -0.3665
  188MOL   H12045374   3.899   3.965   7.236  1.4235 -1.3198  1.5693
  188MOL   H12145375   3.847   3.853   7.365  1.4041 -1.4663 -3.7309
  188MOL   C12245376   3.617   3.737   7.007  0.3792 -0.4855  0.0319
  188MOL   C12345377   3.522   3.754   6.886  0.0393  0.2132 -0.9005
  188MOL   O12445378   3.418   3.651   6.894  0.1324  0.0973 -0.1865
  188MOL   C12545379   3.342   3.609   6.792  0.7397 -0.2350  0.1773
  188MOL   C12645380   3.279   3.475   6.812  0.2051 -0.0351 -0.3437
  188MOL   O12745381   3.340   3.674   6.686 -0.3615  0.0576 -0.1157
  188MOL   H12845382   3.694   3.812   6.988 -0.2303 -0.3137 -1.8490
  188MOL   H12945383   3.651   3.634   7.005 -0.9317 -0.9394  0.4875
  188MOL   H13045384   3.576   3.728   6.795 -0.6460 -0.2021 -1.1980
  188MOL   H13145385   3.248   3.431   6.717  1.2402 -1.1143 -0.1987
  188MOL   H13245386   3.199   3.472   6.886  0.5377  0.7538  0.0507
  188MOL   H13345387   3.355   3.420   6.866 -0.4878  0.7623  1.4633
  188MOL   C13445388   3.461   3.894   6.882 -0.0824 -0.5931 -0.4758
  188MOL   C13545389   3.449   3.975   6.747  0.1396  0.2278 -0.0117
  188MOL   O13645390   3.365   4.074   6.784  0.2537 -0.0710  0.0129
  188MOL   C13745391   3.237   4.083   6.739  0.2415  1.0827  0.9888
  188MOL   C13845392   3.171   4.207   6.805 -0.0378 -0.3146 -0.9062
  188MOL   O13945393   3.173   4.009   6.667  0.3725 -0.0134 -0.3393
  188MOL   H14045394   3.359   3.887   6.920 -0.8747  2.0683 -1.9719
  188MOL   H14145395   3.505   3.961   6.956 -2.9813  0.0740  0.6973
  188MOL   H14245396   3.412   3.915   6.664  1.1776 -0.3928 -0.0344
  188MOL   H14345397   3.248   4.263   6.857  0.7672 -0.3539 -2.0383
  188MOL   H14445398   3.098   4.188   6.884  0.4322 -0.1499 -0.4315
  188MOL   H14545399   3.119   4.274   6.736 -2.3524 -0.8556  0.2556
  188MOL   C14645400   3.573   4.029   6.683  0.4777  0.3795  0.5151
  188MOL   C14745401   3.681   3.932   6.618 -0.1112  0.2443 -0.4971
  188MOL   O14845402   3.764   3.870   6.713  0.2419 -0.4486 -0.2887
  188MOL   C14945403   3.873   3.943   6.756 -0.7954 -0.2692  0.2203
  188MOL   C15045404   3.939   3.891   6.884  0.1013 -0.7047  0.1303
  188MOL   O15145405   3.922   4.036   6.693 -0.0564 -0.0481 -0.3327
  188MOL   H15245406   3.543   4.101   6.606  1.4207  0.4407  0.1995
  188MOL   H15345407   3.629   4.097   6.747  0.7111  0.8900 -0.2230
  188MOL   H15445408   3.737   4.001   6.555  2.4738 -1.9983 -0.7391
  188MOL   H15545409   3.929   3.783   6.892  1.9638 -0.8203  1.2806
  188MOL   H15645410   3.904   3.926   6.981  0.5127 -3.0176  1.1424
  188MOL   H15745411   4.044   3.916   6.864 -0.4910  1.4526 -0.4071
  188MOL   C15845412   3.624   3.835   6.508 -0.3068  0.8684 -0.6381
  188MOL   C15945413   3.539   3.910   6.402  0.2464  0.7418  0.1205
  188MOL   O16045414   3.635   3.966   6.312  0.3041 -0.3825  0.5817
  188MOL   C16145415   3.631   4.098   6.283  0.2554 -0.2740 -0.4061
  188MOL   C16245416   3.731   4.150   6.177 -0.4964 -0.0657  0.5056
  188MOL   O16345417   3.542   4.173   6.330 -0.0094  0.0366  0.3589
  188MOL   H16445418   3.697   3.766   6.465  0.0173  0.1752  0.9402
  188MOL   H16545419   3.562   3.761   6.559  0.7460 -0.9248 -1.9048
  188MOL   H16645420   3.477   3.991   6.442 -2.3238 -0.1912 -1.8582
  188MOL   H16745421   3.755   4.071   6.106 -1.8434  0.3312 -0.3948
  188MOL   H16845422   3.822   4.182   6.228  0.8490  0.5994 -2.1989
  188MOL   H16945423   3.694   4.233   6.116  1.8686 -0.1764 -1.1452
  188MOL   C17045424   3.446   3.822   6.318 -0.1865 -0.2585 -0.2662
  188MOL   C17145425   3.345   3.903   6.226  0.0849 -0.2956  0.3382
  188MOL   O17245426   3.303   3.812   6.128  0.2765  0.0770 -0.1557
  188MOL   C17345427   3.360   3.802   6.006  0.5839  0.3035  0.6742
  188MOL   C17445428   3.294   3.694   5.917 -0.9427  0.2906  0.8133
  188MOL   O17545429   3.455   3.868   5.971 -0.2308  0.6506 -0.0406
  188MOL   H17645430   3.515   3.754   6.268  2.1589  1.2800  0.8333
  188MOL   H17745431   3.395   3.761   6.392 -0.1433 -0.8252 -0.6987
  188MOL   H17845432   3.387   3.996   6.188  1.5457 -0.6758  0.9844
  188MOL   H17945433   3.199   3.735   5.885 -1.1352 -1.3126 -0.7682
  188MOL   H18045434   3.272   3.600   5.968 -1.8979  1.6803  3.0063
  188MOL   H18145435   3.356   3.671   5.830 -0.0454  0.4512  1.4036
  188MOL   C18245436   3.217   3.931   6.312  0.2040 -0.5971  0.0207
  188MOL   C18345437   3.106   3.987   6.221 -0.6826  0.4869  0.0015
  188MOL   O18445438   2.979   3.989   6.280 -0.0041  0.4341 -0.6051
  188MOL   C18545439   2.911   3.877   6.293  0.7232 -0.5556  0.4188
  188MOL   C18645440   2.764   3.893   6.316  0.2687  0.2011  0.2409
  188MOL   O18745441   2.952   3.765   6.271  0.1785  0.4735  0.1508
  188MOL   H18845442   3.179   3.845   6.368  0.3494 -0.9532 -0.4202
  188MOL   H18945443   3.245   4.015   6.376 -2.1443 -0.5426  1.0094
  188MOL   H19045444   3.095   3.919   6.136  1.5883 -0.0159  0.0756
  188MOL   H19145445   2.701   3.826   6.257 -0.0118  0.5848  0.1077
  188MOL   H19245446   2.736   3.996   6.297  1.1045  0.5559  0.8895
  188MOL   H19345447   2.744   3.880   6.423 -0.6650  1.5243  0.2371
  188MOL   C19445448   3.137   4.124   6.162  0.2886  0.3247  0.1038
  188MOL   C19545449   3.210   4.235   6.245  0.2689  0.5843 -0.0972
  188MOL   O19645450   3.243   4.344   6.161 -0.1646 -1.0426 -0.1824
  188MOL   C19745451   3.355   4.348   6.095 -0.2709  0.0253  0.0420
  188MOL   C19845452   3.375   4.482   6.032 -0.3751  0.0789 -1.0736
  188MOL   O19945453   3.438   4.261   6.079  0.4563  0.7335 -0.0698
  188MOL   H20045454   3.207   4.108   6.080  1.1385  1.6405  0.5516
  188MOL   H20145455   3.042   4.157   6.120 -0.9317 -2.9511  0.2014
  188MOL   H20245456   3.299   4.204   6.300  1.4249  1.7199 -1.2756
  188MOL   H20345457   3.278   4.519   5.999 -0.1853  0.8554 -0.7890
  188MOL   H20445458   3.442   4.463   5.948 -0.4291 -2.9558 -0.4736
  188MOL   H20545459   3.411   4.555   6.105 -0.4106 -1.9251  1.0043
  188MOL   C20645460   3.115   4.296   6.346  0.5966 -0.0372 -0.5125
  188MOL   C20745461   3.173   4.418   6.426  0.1070  0.0510 -0.4172
  188MOL   O20845462   3.307   4.402   6.476  0.1295  0.7805  0.1515
  188MOL   C20945463   3.333   4.441   6.603  0.4945  0.8186  0.1453
  188MOL   C21045464   3.484   4.430   6.622  0.1432  0.1584  0.1856
  188MOL   O21145465   3.253   4.471   6.696 -0.1238 -0.1611  0.4670
  188MOL   H21245466   3.020   4.322   6.299  0.0954 -0.0385  0.4844
  188MOL   H21345467   3.096   4.213   6.413 -0.0222  0.0325 -0.5943
  188MOL   H21445468   3.108   4.411   6.513  1.2841 -2.6674  0.3018
  188MOL   H21545469   3.526   4.365   6.545 -0.5356  0.0198 -0.0708
  188MOL   H21645470   3.503   4.374   6.713  0.9697 -1.7980 -1.1454
  188MOL   H21745471   3.513   4.534   6.640  1.8732 -0.0139 -1.4356
  188MOL   C21845472   3.147   4.557   6.363  0.0768  0.0622 -0.2663
  188MOL   C21945473   3.127   4.674   6.464 -0.9375  0.3808  0.5657
  188MOL   O22045474   3.126   4.798   6.392  0.2768 -0.0868  0.1620
  188MOL   C22145475   3.232   4.872   6.363  0.5120  1.0430 -0.3593
  188MOL   C22245476   3.195   4.993   6.281 -0.8705 -0.1922  0.7552
  188MOL   O22345477   3.348   4.833   6.382  0.0570  0.2893  0.1452
  188MOL   H22445478   3.234   4.578   6.302 -0.1017 -0.8510 -0.8400
  188MOL   H22545479   3.054   4.562   6.306  0.0300  0.9616 -0.1104
  188MOL   H22645480   3.199   4.675   6.546 -0.3501 -0.5872  0.0606
  188MOL   H22745481   3.185   5.088   6.335  1.2461  0.6328 -0.2612
  188MOL   H22845482   3.103   4.966   6.229 -0.6087  0.3241  0.0001
  188MOL   H22945483   3.274   4.998   6.206  1.3069  0.0038  2.9732
  188MOL   C23045484   2.992   4.673   6.544 -0.0138 -0.1431  0.3529
  188MOL   C23145485   3.002   4.781   6.650 -0.0033 -0.4511 -0.2533
  188MOL   O23245486   2.875   4.805   6.712  0.1834 -0.1318 -0.0605
  188MOL   C23345487   2.855   4.904   6.796  0.5153  0.4294 -0.9795
  188MOL   C23445488   2.723   4.895   6.862  0.5479 -0.0462  0.2561
  188MOL   O23545489   2.945   4.984   6.832  0.4188 -0.1951  0.5072
  188MOL   H23645490   2.903   4.699   6.486 -0.5450 -2.0183  0.3124
  188MOL   H23745491   2.967   4.577   6.590 -1.4986  0.7510  1.5006
  188MOL   H23845492   3.036   4.875   6.605 -1.7194  0.6404  0.6828
  188MOL   H23945493   2.717   4.854   6.963  3.2272  0.6090  0.7209
  188MOL   H24045494   2.662   4.834   6.796  0.1126  0.6922 -0.0292
  188MOL   H24145495   2.672   4.991   6.861  0.1812 -0.2517 -2.1401
  188MOL   H24245496   3.077   4.753   6.725  0.0958  1.0887  0.2368
  189MOL     C145497   0.718   5.002   7.029  0.2116 -0.3068 -0.0709
  189MOL     C245498   0.790   4.963   6.899 -0.7182  0.2076 -0.7526
  189MOL     O345499   0.886   5.064   6.892 -0.0188 -0.1209  0.0711
  189MOL     C445500   0.866   5.175   6.823 -0.4428  0.3073  0.0239
  189MOL     C545501   0.969   5.276   6.869 -0.1385 -1.2464  0.3056
  189MOL     O645502   0.793   5.190   6.729 -0.1323  1.1727  0.6053
  189MOL     H745503   0.663   5.096   7.023  1.2500  0.3728  0.8209
  189MOL     H845504   0.776   5.023   7.119  0.4057  1.3073 -0.5451
  189MOL     H945505   0.718   4.974   6.819  0.8541 -1.3650 -2.4202
  189MOL    H1045506   1.060   5.216   6.863  0.3383 -0.5212  0.2931
  189MOL    H1145507   0.935   5.312   6.966 -1.1781  1.7584 -1.1408
  189MOL    H1245508   0.969   5.357   6.796  4.2919 -0.7328  0.7397
  189MOL    H1345509   0.636   4.935   7.055 -1.2539  1.2560 -0.5413
  189MOL    C1445510   0.854   4.821   6.902  0.7248  0.3059  0.2754
  189MOL    C1545511   0.752   4.702   6.899 -0.2291 -0.0132  0.1404
  189MOL    O1645512   0.703   4.698   7.033  0.4857  0.0562 -0.3035
  189MOL    C1745513   0.728   4.592   7.111 -0.4022 -0.6022  0.3224
  189MOL    C1845514   0.672   4.610   7.249 -0.3309 -0.5080 -0.3610
  189MOL    O1945515   0.773   4.485   7.081 -0.1141  0.6047  0.7807
  189MOL    H2045516   0.906   4.802   6.809 -2.7753  0.0026 -1.7194
  189MOL    H2145517   0.928   4.800   6.979  0.3539 -1.1870  0.2393
  189MOL    H2245518   0.820   4.620   6.874 -0.8567 -0.5218  0.0981
  189MOL    H2345519   0.614   4.702   7.239  0.0680 -0.3611 -1.4393
  189MOL    H2445520   0.746   4.624   7.328 -0.4066 -0.7835 -0.2433
  189MOL    H2545521   0.608   4.523   7.265  1.1327 -1.1582  2.1599
  189MOL    C2645522   0.646   4.707   6.803  0.3385  0.1317 -0.6403
  189MOL    C2745523   0.553   4.583   6.805  0.3340 -0.8641 -0.1233
  189MOL    O2845524   0.438   4.601   6.719  0.1986 -0.0534 -0.4597
  189MOL    C2945525   0.316   4.642   6.768  0.6599  0.5601  0.8590
  189MOL    C3045526   0.218   4.687   6.663  0.1552 -0.3905  0.4753
  189MOL    O3145527   0.284   4.636   6.886  0.7837  0.6101  0.6661
  189MOL    H3245528   0.587   4.795   6.828 -0.9253 -0.9199  0.1702
  189MOL    H3345529   0.672   4.724   6.699 -0.7219  1.6152 -0.6818
  189MOL    H3445530   0.515   4.576   6.907  0.9871 -0.9661  0.1151
  189MOL    H3545531   0.129   4.623   6.657 -0.5808  0.7576 -1.5710
  189MOL    H3645532   0.266   4.697   6.565  0.0344 -0.0534  0.4520
  189MOL    H3745533   0.190   4.784   6.703 -0.4435 -0.5612  0.4786
  189MOL    C3845534   0.621   4.450   6.763  0.0907 -0.2192 -0.9279
  189MOL    C3945535   0.604   4.327   6.855  1.1036  0.0100 -0.4691
  189MOL    O4045536   0.464   4.307   6.861  0.4676 -0.2085 -0.1007
  189MOL    C4145537   0.399   4.294   6.977  0.2763 -0.3205 -0.2014
  189MOL    C4245538   0.244   4.315   6.972 -0.2138 -0.7729  0.6309
  189MOL    O4345539   0.451   4.267   7.087 -0.0287 -0.3595 -0.3794
  189MOL    H4445540   0.599   4.422   6.660  0.7276 -0.5578 -0.9688
  189MOL    H4545541   0.728   4.462   6.753  0.0180  2.3018  0.7507
  189MOL    H4645542   0.641   4.372   6.947 -0.1858  0.2638 -0.0509
  189MOL    H4745543   0.219   4.361   6.876  1.0010 -0.2903  0.5437
  189MOL    H4845544   0.199   4.371   7.054 -1.3065 -1.5827  0.6006
  189MOL    H4945545   0.177   4.229   6.967 -0.3132 -0.6288 -0.7422
  189MOL    C5045546   0.675   4.202   6.795 -0.2089  0.5506 -0.2099
  189MOL    C5145547   0.714   4.102   6.894 -0.3716 -0.3178 -0.4859
  189MOL    O5245548   0.782   4.002   6.814  0.0508 -0.3617  0.3176
  189MOL    C5345549   0.735   3.873   6.811  0.1864  0.7005  0.0182
  189MOL    C5445550   0.813   3.788   6.711 -1.4316  0.1845 -0.1617
  189MOL    O5545551   0.646   3.818   6.881  0.2123  0.5635  0.2105
  189MOL    H5645552   0.595   4.162   6.732 -0.3140  0.9907 -0.3516
  189MOL    H5745553   0.764   4.228   6.738 -0.4589  1.3791 -0.2185
  189MOL    H5845554   0.625   4.056   6.936 -0.3211  0.2286  0.2263
  189MOL    H5945555   0.904   3.737   6.742 -2.4035 -0.4796  1.7025
  189MOL    H6045556   0.843   3.842   6.622  2.1820 -1.1634  0.1711
  189MOL    H6145557   0.746   3.709   6.677  1.4271 -2.2691 -0.3466
  189MOL    C6245558   0.825   4.145   6.995 -0.4260  0.4741  0.3480
  189MOL    C6345559   0.878   4.042   7.100  0.2215  0.1874  0.4473
  189MOL    O6445560   0.964   4.119   7.180 -0.1494 -0.0675  0.0805
  189MOL    C6545561   1.100   4.097   7.164 -0.7134  0.2014 -0.2740
  189MOL    C6645562   1.179   4.165   7.281  0.6043  0.3500  0.3950
  189MOL    O6745563   1.159   4.043   7.073  0.0833 -0.5270 -0.2145
  189MOL    H6845564   0.903   4.192   6.935 -0.6033 -1.6931 -1.6181
  189MOL    H6945565   0.775   4.226   7.049 -0.9317  2.4167 -2.9340
  189MOL    H7045566   0.929   3.963   7.045 -0.7749 -1.5955  2.0466
  189MOL    H7145567   1.208   4.098   7.362 -0.5106 -0.3631  0.2272
  189MOL    H7245568   1.119   4.245   7.324 -0.2437  0.1327 -0.3544
  189MOL    H7345569   1.266   4.214   7.238  0.5018  0.7459  0.6377
  189MOL    C7445570   0.755   3.984   7.183 -0.8317 -0.1564  0.4407
  189MOL    C7545571   0.790   3.913   7.311  0.3368  0.4705 -0.3630
  189MOL    O7645572   0.678   3.879   7.400 -0.4397  0.0250 -0.3665
  189MOL    C7745573   0.686   3.902   7.541  0.9830  0.3234 -0.1740
  189MOL    C7845574   0.563   3.851   7.622  0.0760  0.0948 -0.5312
  189MOL    O7945575   0.774   3.964   7.603  0.0184  0.1820  0.1227
  189MOL    H8045576   0.681   4.061   7.209 -0.8929 -0.1556  0.2630
  189MOL    H8145577   0.693   3.917   7.123  0.3393 -0.4706 -0.4256
  189MOL    H8245578   0.854   3.973   7.374  0.0778  0.7200 -0.3330
  189MOL    H8345579   0.592   3.802   7.715 -1.0723 -0.7925 -0.6165
  189MOL    H8445580   0.491   3.788   7.568  1.0470  0.3634 -2.1849
  189MOL    H8545581   0.504   3.937   7.654 -0.4087 -0.0985 -0.8782
  189MOL    C8645582   0.871   3.784   7.277  0.1639 -0.8382  0.1437
  189MOL    C8745583   0.808   3.675   7.189 -0.0540 -0.4242  0.6703
  189MOL    O8845584   0.908   3.574   7.169 -0.5084  0.3283  0.4910
  189MOL    C8945585   0.940   3.528   7.038 -0.3289 -0.4317 -0.1914
  189MOL    C9045586   1.043   3.419   7.037 -0.1455 -0.2922  0.1549
  189MOL    O9145587   0.905   3.585   6.938 -0.8161 -0.1014  0.5984
  189MOL    H9245588   0.967   3.811   7.233 -1.2312  1.7562 -1.4803
  189MOL    H9345589   0.902   3.741   7.372 -1.8003 -1.7397  0.4002
  189MOL    H9445590   0.772   3.709   7.092  1.6864 -0.6628 -0.0833
  189MOL    H9545591   1.075   3.385   7.136  0.6752 -2.7786 -0.9481
  189MOL    H9645592   1.130   3.465   6.992  0.2644 -0.7850  0.4433
  189MOL    H9745593   1.021   3.342   6.963 -1.3816 -1.1111  1.3498
  189MOL    C9845594   0.693   3.601   7.266  0.1531  0.2804  1.0791
  189MOL    C9945595   0.642   3.466   7.210 -0.2818  0.1695 -0.4439
  189MOL   O10045596   0.623   3.371   7.324  0.0614  0.1099 -0.0253
  189MOL   C10145597   0.702   3.260   7.342  0.1338  0.7201 -0.2729
  189MOL   C10245598   0.711   3.213   7.484 -0.1987  0.4731  0.3729
  189MOL   O10345599   0.754   3.199   7.249  0.1234 -0.0550 -0.3023
  189MOL   H10445600   0.721   3.574   7.368 -1.7560  1.5987  1.9882
  189MOL   H10545601   0.607   3.664   7.284  0.5618  1.2021 -0.1173
  189MOL   H10645602   0.720   3.434   7.141 -0.9034 -0.5443 -0.8225
  189MOL   H10745603   0.815   3.208   7.517 -0.3503 -0.7114  0.6995
  189MOL   H10845604   0.674   3.111   7.474 -1.6918  1.1266 -0.9134
  189MOL   H10945605   0.640   3.262   7.551  1.1680  0.3702  1.9359
  189MOL   C11045606   0.516   3.479   7.136  0.3878 -0.1577  0.1438
  189MOL   C11145607   0.528   3.455   6.977 -0.2703  0.2526  0.5356
  189MOL   O11245608   0.554   3.311   6.967 -1.0431  0.0217 -0.4614
  189MOL   C11345609   0.643   3.262   6.877 -1.3398  0.2409 -0.6174
  189MOL   C11445610   0.649   3.112   6.882 -0.4194 -0.3394 -0.1341
  189MOL   O11545611   0.704   3.328   6.797  0.5028 -0.5263 -0.0497
  189MOL   H11645612   0.434   3.417   7.173  0.5334  0.1269  0.9502
  189MOL   H11745613   0.469   3.576   7.142 -2.1452 -1.4620  2.5167
  189MOL   H11845614   0.620   3.508   6.950 -0.3603  0.4254  0.5662
  189MOL   H11945615   0.560   3.067   6.837 -0.4675 -0.3474 -0.0324
  189MOL   H12045616   0.661   3.084   6.987  0.7206  0.6775  0.0125
  189MOL   H12145617   0.738   3.071   6.834 -0.6465 -1.4186  0.3424
  189MOL   C12245618   0.402   3.493   6.902 -0.3663  0.5341  0.8309
  189MOL   C12345619   0.398   3.477   6.754 -0.1379 -0.1648  0.4208
  189MOL   O12445620   0.260   3.471   6.714  0.0805 -0.3250  0.0676
  189MOL   C12545621   0.195   3.356   6.691 -0.2805 -0.2401 -0.5490
  189MOL   C12645622   0.049   3.370   6.636  0.3732  0.1626  0.2264
  189MOL   O12745623   0.247   3.247   6.709  0.9411 -0.2047  0.3466
  189MOL   H12845624   0.323   3.432   6.945 -0.8332 -0.1665 -0.9911
  189MOL   H12945625   0.378   3.594   6.936  0.7232  0.5844  1.4748
  189MOL   H13045626   0.448   3.381   6.738 -0.6567  0.0951 -3.0600
  189MOL   H13145627   8.015   3.457   6.669  0.6695  1.0333 -1.5188
  189MOL   H13245628   8.011   3.280   6.648  0.0052  0.3707 -0.0137
  189MOL   H13345629   0.062   3.378   6.528 -0.2608 -0.6824  0.0832
  189MOL   C13445630   0.463   3.594   6.678  0.0922  1.0688  0.2514
  189MOL   C13545631   0.483   3.569   6.526 -0.0756 -0.2629  0.6742
  189MOL   O13645632   0.519   3.694   6.468  0.1182  0.0615  0.0753
  189MOL   C13745633   0.495   3.736   6.337  0.9462 -0.9585  0.1698
  189MOL   C13845634   0.557   3.869   6.300 -0.8075 -0.2085 -0.2975
  189MOL   O13945635   0.439   3.668   6.254 -0.2735 -0.3347  0.4179
  189MOL   H14045636   0.404   3.682   6.703 -3.4122 -1.8135  2.6727
  189MOL   H14145637   0.562   3.608   6.720  0.7882 -0.5152 -0.8003
  189MOL   H14245638   0.387   3.533   6.489  0.9693 -1.1599 -1.2201
  189MOL   H14345639   0.650   3.861   6.245  0.3399  0.9476  1.4434
  189MOL   H14445640   0.587   3.916   6.394  0.2653  0.4109 -0.9431
  189MOL   H14545641   0.491   3.937   6.246  0.1079  1.2515  0.3735
  189MOL   C14645642   0.600   3.470   6.498  0.6024 -0.1693 -0.3479
  189MOL   C14745643   0.543   3.334   6.449 -0.2534  0.0241  1.1889
  189MOL   O14845644   0.502   3.359   6.313 -0.2650 -0.1669  0.1909
  189MOL   C14945645   0.377   3.356   6.280  0.5371 -0.1161 -0.1718
  189MOL   C15045646   0.350   3.377   6.130 -0.1999 -0.3250 -1.1531
  189MOL   O15145647   0.285   3.337   6.354 -0.3847 -0.1003  0.0158
  189MOL   H15245648   0.663   3.517   6.422  0.1513 -0.8251 -1.1498
  189MOL   H15345649   0.659   3.456   6.588 -2.1805  0.9203  1.7274
  189MOL   H15445650   0.457   3.316   6.515 -1.2737 -1.4640 -0.5128
  189MOL   H15545651   0.417   3.312   6.075 -0.1411 -1.1203 -0.1565
  189MOL   H15645652   0.366   3.479   6.093  2.4883 -0.5565 -0.7653
  189MOL   H15745653   0.247   3.349   6.110 -1.4576  0.6886  3.3339
  189MOL   C15845654   0.636   3.213   6.445  0.0498  0.5896  0.1331
  189MOL   C15945655   0.563   3.074   6.435  0.1599 -0.1214 -0.4116
  189MOL   O16045656   0.650   2.972   6.406  0.2811 -0.1134  0.0471
  189MOL   C16145657   0.746   2.929   6.490 -0.0711  0.8528 -0.0882
  189MOL   C16245658   0.808   2.795   6.436  0.3000 -0.6913  0.3951
  189MOL   O16345659   0.790   2.983   6.592  0.0568 -0.1342 -0.7295
  189MOL   H16445660   0.706   3.237   6.365 -1.6417  0.6272 -1.3711
  189MOL   H16545661   0.693   3.207   6.538  0.0850 -0.2827  0.0655
  189MOL   H16645662   0.494   3.077   6.350 -0.1073  0.5187 -0.1809
  189MOL   H16745663   0.746   2.709   6.462 -1.6332  0.8556  1.0508
  189MOL   H16845664   0.907   2.784   6.480  0.3619  1.3405  0.8281
  189MOL   H16945665   0.820   2.808   6.328 -0.1284 -0.7898  0.3343
  189MOL   C17045666   0.481   3.044   6.562 -0.1340 -0.5271  0.1421
  189MOL   C17145667   0.381   2.928   6.538  0.2028 -0.1735 -0.5104
  189MOL   O17245668   0.339   2.892   6.670  0.3096 -0.6965  0.0605
  189MOL   C17345669   0.371   2.770   6.721  0.3345  0.2500 -0.4643
  189MOL   C17445670   0.322   2.750   6.866  0.5508  0.1193 -0.1208
  189MOL   O17545671   0.437   2.686   6.672 -0.3955 -0.5591  0.1102
  189MOL   H17645672   0.546   3.018   6.644  2.5674  3.1450 -0.7093
  189MOL   H17745673   0.428   3.136   6.588 -1.4857 -0.2921 -3.1160
  189MOL   H17845674   0.429   2.841   6.492  1.9928  0.2945  0.4687
  189MOL   H17945675   0.297   2.644   6.873  1.2152  0.0438  1.1383
  189MOL   H18045676   0.234   2.812   6.882 -0.3697 -1.4583  1.1176
  189MOL   H18145677   0.402   2.781   6.933  1.4920  0.6940 -1.4850
  189MOL   C18245678   0.248   2.964   6.460 -0.5108 -0.5434  0.5337
  189MOL   C18345679   0.143   2.854   6.457  0.5056  0.5877 -0.7097
  189MOL   O18445680   0.064   2.848   6.574  0.5539 -0.3462  0.8186
  189MOL   C18545681   7.990   2.942   6.603 -0.0609 -0.4472 -0.0773
  189MOL   C18645682   7.918   2.919   6.735  0.2291  1.0951  0.1977
  189MOL   O18745683   7.956   3.038   6.531 -0.3474  0.9057 -0.5663
  189MOL   H18845684   0.207   3.057   6.500 -0.5706  0.2823 -1.3932
  189MOL   H18945685   0.277   2.985   6.357  1.6218  2.2257  1.6309
  189MOL   H19045686   0.207   2.767   6.471 -2.3498 -1.0259  3.3581
  189MOL   H19145687   7.917   3.016   6.785  2.1275  1.6145 -0.7028
  189MOL   H19245688   7.963   2.840   6.795  0.0818  0.2762 -0.7545
  189MOL   H19345689   7.815   2.893   6.709 -0.1715  1.5756  1.2862
  189MOL   C19445690   0.061   2.816   6.326  0.1493 -0.4709  1.0396
  189MOL   C19545691   0.157   2.785   6.205  0.3325  0.3211 -0.3737
  189MOL   O19645692   0.236   2.666   6.230 -0.3979  0.1323 -0.2387
  189MOL   C19745693   0.374   2.670   6.216 -0.1375 -0.4444  0.0786
  189MOL   C19845694   0.440   2.536   6.244  0.0382  0.3642 -0.2236
  189MOL   O19945695   0.449   2.770   6.187 -0.2092  0.7513  0.3553
  189MOL   H20045696   8.021   2.731   6.353  0.3659 -0.8316  0.4111
  189MOL   H20145697   8.018   2.900   6.300 -0.2934 -1.3524 -0.8569
  189MOL   H20245698   0.228   2.867   6.192  0.6482  0.0860 -0.1687
  189MOL   H20345699   0.375   2.501   6.324 -0.6124 -1.0855 -1.3482
  189MOL   H20445700   0.545   2.543   6.269 -0.0324 -0.6014  0.3554
  189MOL   H20545701   0.422   2.467   6.161  0.3951  0.8363 -0.6996
  189MOL   C20645702   0.078   2.765   6.080  0.9320  0.3482  0.1253
  189MOL   C20745703   0.160   2.751   5.946 -0.3688  0.3029 -0.1570
  189MOL   O20845704   0.227   2.620   5.933  0.2222  0.2597 -0.1462
  189MOL   C20945705   0.155   2.511   5.939 -0.4098  0.6975  0.2281
  189MOL   C21045706   0.240   2.390   5.916  0.3287  0.1895  0.7186
  189MOL   O21145707   0.037   2.500   5.957 -0.0662 -0.0886  0.4504
  189MOL   H21245708   8.017   2.694   6.095 -0.1073  1.2858 -0.9899
  189MOL   H21345709   0.037   2.866   6.077 -0.5455 -0.2308 -0.1041
  189MOL   H21445710   0.238   2.824   5.970 -0.8324  1.2247 -1.3863
  189MOL   H21545711   0.258   2.367   5.811 -1.9467  0.8475  0.1421
  189MOL   H21645712   0.200   2.301   5.964 -1.1070  1.2824  1.6051
  189MOL   H21745713   0.336   2.408   5.965  0.3110 -1.0239  1.1979
  189MOL   C21845714   0.073   2.787   5.819  0.5793 -0.5844 -0.0999
  189MOL   C21945715   0.022   2.928   5.815  0.4369 -0.3733 -0.5501
  189MOL   O22045716   0.124   3.020   5.774 -0.3137 -0.2852  0.0764
  189MOL   C22145717   0.190   3.098   5.866 -0.0991  0.3690  0.0180
  189MOL   C22245718   0.281   3.201   5.806  0.4075  0.2927  0.2342
  189MOL   O22345719   0.182   3.085   5.985  0.3927 -0.1983  0.1743
  189MOL   H22445720   0.141   2.777   5.735  0.6905 -1.0465  0.0438
  189MOL   H22545721   0.004   2.706   5.796  2.3124 -1.7207 -1.4132
  189MOL   H22645722   8.001   2.965   5.908  1.4188  2.5638 -1.1977
  189MOL   H22745723   0.279   3.295   5.861 -1.2101  0.0509  0.6114
  189MOL   H22845724   0.264   3.218   5.700  0.6947 -1.7599 -0.1645
  189MOL   H22945725   0.381   3.159   5.820  0.5418  1.4076  3.0429
  189MOL   C23045726   7.929   2.931   5.708 -0.6711  0.5134  0.0277
  189MOL   C23145727   7.977   2.933   5.565 -0.3329  0.3830  0.1472
  189MOL   O23245728   7.863   2.916   5.486  0.4892 -1.0662  0.8222
  189MOL   C23345729   7.871   2.865   5.367  0.1967  0.6561 -0.0090
  189MOL   C23445730   7.735   2.846   5.308 -0.2634 -0.3513  0.4900
  189MOL   O23545731   7.976   2.855   5.297  0.0351  0.7490 -0.0788
  189MOL   H23645732   7.866   2.843   5.723 -0.0511 -0.0086 -0.4025
  189MOL   H23745733   7.863   3.017   5.722 -3.0448 -1.0158 -1.2563
  189MOL   H23845734   0.026   2.851   5.553  0.5705  1.1637 -0.0070
  189MOL   H23945735   7.745   2.817   5.203  2.9369  0.5544  0.5025
  189MOL   H24045736   7.689   2.941   5.280 -0.6587  0.5021  3.8405
  189MOL   H24145737   7.666   2.775   5.352 -4.1715  0.8421 -3.3232
  189MOL   H24245738   0.003   3.030   5.548 -0.1848  0.1972 -0.5188
  190MOL     C145739   2.841   4.098   6.725  0.4624 -0.2372 -0.5636
  190MOL     C245740   2.770   4.195   6.822  0.6019 -0.2716  0.0429
  190MOL     O345741   2.688   4.294   6.768  0.2374  0.1620  0.4800
  190MOL     C445742   2.697   4.427   6.791 -0.4802  0.6949  0.7929
  190MOL     C545743   2.587   4.503   6.726 -0.0835  0.1501  0.0311
  190MOL     O645744   2.788   4.480   6.854 -0.2452 -0.0644  0.7112
  190MOL     H745745   2.885   4.151   6.640 -0.1781  1.4792  0.1640
  190MOL     H845746   2.781   4.020   6.679 -2.3787  0.1642  2.3164
  190MOL     H945747   2.851   4.256   6.861 -0.2991  2.1324 -1.7250
  190MOL    H1045748   2.612   4.552   6.632  0.7544 -0.4777 -0.0779
  190MOL    H1145749   2.530   4.566   6.795 -3.3424 -1.2085 -1.3409
  190MOL    H1245750   2.508   4.433   6.702  0.7356 -0.4677 -0.8765
  190MOL    H1345751   2.922   4.055   6.784  0.9829 -0.5302 -1.4730
  190MOL    C1445752   2.714   4.118   6.943  0.5328 -0.3722  0.1454
  190MOL    C1545753   2.584   4.035   6.922 -0.6222  0.1533  0.0447
  190MOL    O1645754   2.580   3.916   7.006 -0.5056 -0.1694 -0.2142
  190MOL    C1745755   2.616   3.791   6.959 -0.7742 -0.9866  0.6293
  190MOL    C1845756   2.597   3.688   7.063 -0.7032 -0.2786 -0.7102
  190MOL    O1945757   2.666   3.768   6.848  0.1370 -0.0164  0.0045
  190MOL    H2045758   2.792   4.044   6.966  0.9195  0.8077  2.8615
  190MOL    H2145759   2.711   4.178   7.034 -2.0674  0.1135 -0.2458
  190MOL    H2245760   2.580   4.000   6.819  3.6828 -0.4835 -0.0173
  190MOL    H2345761   2.554   3.727   7.155 -0.7331 -3.0482  0.5147
  190MOL    H2445762   2.692   3.641   7.089 -1.8797 -1.3702  1.8491
  190MOL    H2545763   2.540   3.607   7.018 -0.2241  0.4408 -2.6181
  190MOL    C2645764   2.462   4.119   6.963  0.9197 -0.5737  0.0843
  190MOL    C2745765   2.325   4.052   6.941 -0.0232  0.1251 -0.3112
  190MOL    O2845766   2.293   3.969   7.051  0.0015  0.8763  0.2558
  190MOL    C2945767   2.214   3.858   7.023 -0.1138  0.3125  0.2698
  190MOL    C3045768   2.161   3.800   7.148  0.0759 -0.0744 -0.0531
  190MOL    O3145769   2.178   3.818   6.909  0.2170 -0.3104 -0.2878
  190MOL    H3245770   2.486   4.170   7.056 -0.0913 -1.6245  0.9445
  190MOL    H3345771   2.471   4.189   6.880  1.3869  0.2604  0.8428
  190MOL    H3445772   2.333   3.995   6.849  1.1925 -0.2012 -0.0164
  190MOL    H3545773   2.155   3.691   7.142  1.5686 -0.2240  1.0751
  190MOL    H3645774   2.059   3.834   7.166  0.8844  3.0607 -1.0920
  190MOL    H3745775   2.230   3.832   7.226  1.3447 -0.4584 -1.0074
  190MOL    C3845776   2.213   4.148   6.907  0.5723 -0.4596  0.4015
  190MOL    C3945777   2.191   4.268   7.005  0.2034 -0.2051 -0.2606
  190MOL    O4045778   2.132   4.388   6.947  0.0141  0.6565  0.0203
  190MOL    C4145779   2.207   4.471   6.868  0.5166 -0.5390 -0.9558
  190MOL    C4245780   2.156   4.615   6.849  0.6341  0.0304  0.1464
  190MOL    O4345781   2.305   4.426   6.811  0.4217  0.6138  0.0237
  190MOL    H4445782   2.225   4.174   6.801  2.2366 -2.8539 -0.0302
  190MOL    H4545783   2.120   4.093   6.899 -0.4843  1.3940 -0.4982
  190MOL    H4645784   2.288   4.299   7.047 -0.2014 -0.0101  0.5472
  190MOL    H4745785   2.049   4.599   6.837  0.4899  0.9197  0.2159
  190MOL    H4845786   2.197   4.668   6.763 -0.9533  2.9843  1.1477
  190MOL    H4945787   2.171   4.682   6.933 -1.7526  2.5709 -1.3517
  190MOL    C5045788   2.104   4.231   7.131  0.3289  0.5096  0.7621
  190MOL    C5145789   2.094   4.364   7.220  0.0203 -0.4444  0.0774
  190MOL    O5245790   1.976   4.430   7.186  0.4069 -0.4225 -0.3692
  190MOL    C5345791   1.967   4.558   7.219 -0.1986 -0.1444  0.1725
  190MOL    C5445792   1.831   4.612   7.180  0.0369  0.2987 -0.0511
  190MOL    O5545793   2.047   4.635   7.267 -0.1406  0.3515 -0.1810
  190MOL    H5645794   2.008   4.196   7.094  2.0328 -0.6946 -2.6846
  190MOL    H5745795   2.159   4.149   7.178 -0.3809 -0.4508 -0.0566
  190MOL    H5845796   2.177   4.432   7.200 -1.1698  1.2976  0.9381
  190MOL    H5945797   1.830   4.721   7.186  1.9987  0.5055 -2.6141
  190MOL    H6045798   1.758   4.586   7.257 -1.3823 -0.0850 -1.4838
  190MOL    H6145799   1.791   4.590   7.081  1.4796 -2.2772 -0.0879
  190MOL    C6245800   2.095   4.322   7.374 -0.0119  0.2797  1.0884
  190MOL    C6345801   2.239   4.315   7.427  0.4631  0.6003  1.0731
  190MOL    O6445802   2.226   4.339   7.568 -0.3265  0.3266  0.3975
  190MOL    C6545803   2.272   4.449   7.630  0.1765 -0.4533  0.5981
  190MOL    C6645804   2.211   4.494   7.758  0.1705 -0.0163  0.3118
  190MOL    O6745805   2.374   4.503   7.588  0.3165 -0.2631 -0.6111
  190MOL    H6845806   2.044   4.399   7.432  0.5900  3.6204 -2.6375
  190MOL    H6945807   2.044   4.227   7.389  1.4769 -0.8433 -0.7325
  190MOL    H7045808   2.295   4.394   7.376 -2.6827  2.7665  0.7818
  190MOL    H7145809   2.157   4.586   7.736 -1.0588 -1.1768 -1.7778
  190MOL    H7245810   2.291   4.498   7.832 -0.7819 -1.7869  1.4761
  190MOL    H7345811   2.152   4.408   7.790 -0.5192  0.9171  1.5788
  190MOL    C7445812   2.321   4.182   7.404  0.5032 -0.2532 -0.2113
  190MOL    C7545813   2.277   4.052   7.472 -0.0453 -0.4395 -0.0728
  190MOL    O7645814   2.151   4.002   7.420  0.0843  0.6268 -0.9700
  190MOL    C7745815   2.047   3.964   7.499  0.0427  0.3458  0.6384
  190MOL    C7845816   1.928   3.894   7.430 -0.3461 -0.0332  0.3520
  190MOL    O7945817   2.049   3.976   7.623 -0.1703  0.0486  0.0640
  190MOL    H8045818   2.318   4.158   7.298 -1.6680 -0.2178 -0.1732
  190MOL    H8145819   2.426   4.199   7.426  0.2904 -0.8236  1.3403
  190MOL    H8245820   2.264   4.076   7.578  1.0137 -0.3438  0.0346
  190MOL    H8345821   1.930   3.898   7.321 -2.2192  0.5198  0.3343
  190MOL    H8445822   1.841   3.932   7.483 -0.6685 -2.4277  1.5977
  190MOL    H8545823   1.943   3.788   7.449 -3.5192 -1.0843 -2.6164
  190MOL    C8645824   2.389   3.944   7.466 -0.0060 -0.4701  0.0284
  190MOL    C8745825   2.363   3.820   7.553  0.0336  0.8357  0.4519
  190MOL    O8845826   2.448   3.715   7.519  0.1495 -0.4397 -0.3506
  190MOL    C8945827   2.425   3.637   7.406 -0.0445  0.5211  0.4003
  190MOL    C9045828   2.502   3.509   7.406  0.4817  0.5775 -0.3307
  190MOL    O9145829   2.360   3.672   7.310  0.1502  0.4471 -0.6009
  190MOL    H9245830   2.391   3.924   7.359 -0.9792  0.9402 -0.2650
  190MOL    H9345831   2.489   3.983   7.486  0.8064 -2.2964 -0.3179
  190MOL    H9445832   2.261   3.786   7.540  0.0385  0.5435  1.1396
  190MOL    H9545833   2.431   3.426   7.394  2.7916 -1.7027  1.2489
  190MOL    H9645834   2.552   3.499   7.502  1.5805 -0.2527 -0.9753
  190MOL    H9745835   2.566   3.514   7.318 -1.0294 -2.3925 -1.6919
  190MOL    C9845836   2.376   3.834   7.705  0.3701  0.6355  0.1343
  190MOL    C9945837   2.310   3.727   7.790 -0.1543  0.0467  0.0939
  190MOL   O10045838   2.351   3.602   7.741 -0.2937  0.1934 -0.2068
  190MOL   C10145839   2.299   3.494   7.787  0.4633 -0.1770  0.1280
  190MOL   C10245840   2.353   3.375   7.709  0.0729 -0.2388 -0.4236
  190MOL   O10345841   2.215   3.480   7.878 -0.0721  0.1137 -0.0576
  190MOL   H10445842   2.485   3.833   7.713  0.3095 -1.5958  1.0492
  190MOL   H10545843   2.362   3.934   7.745  2.3880  0.7332  0.6592
  190MOL   H10645844   2.204   3.740   7.770  0.2429  1.7228 -1.0698
  190MOL   H10745845   2.306   3.370   7.610 -0.0370  1.4642 -0.4819
  190MOL   H10845846   2.355   3.279   7.759  2.5038 -0.5843 -1.1631
  190MOL   H10945847   2.458   3.396   7.691  0.4254 -2.3390 -0.8624
  190MOL   C11045848   2.340   3.745   7.941 -0.1572  0.3528 -0.2621
  190MOL   C11145849   2.485   3.726   7.990  0.3677  0.4441 -0.3471
  190MOL   O11245850   2.556   3.847   7.964 -0.0572 -0.2219  0.1927
  190MOL   C11345851   2.693   3.852   7.953 -0.7986  0.0847  0.1758
  190MOL   C11445852   2.740   3.984   7.898 -0.0144 -0.0163 -0.7581
  190MOL   O11545853   2.769   3.761   7.980  0.6389  0.3870  0.8008
  190MOL   H11645854   2.307   3.843   7.975  0.6519  0.7350 -0.5682
  190MOL   H11745855   2.271   3.682   7.996  2.7869  0.5333  3.8729
  190MOL   H11845856   2.531   3.645   7.934  0.4687  0.4585 -0.2862
  190MOL   H11945857   2.837   3.998   7.948  0.1343 -2.1549 -0.4288
  190MOL   H12045858   2.678   4.067   7.931  1.4294  1.0365 -0.6000
  190MOL   H12145859   2.758   3.984   7.791  1.6417 -1.0159 -0.4908
  190MOL   C12245860   2.497   3.696   0.123  0.4393 -0.5421  0.2615
  190MOL   C12345861   2.449   3.561   0.180 -0.0277  0.3419  0.5423
  190MOL   O12445862   2.520   3.446   0.125 -0.3797 -0.2622 -0.4802
  190MOL   C12545863   2.458   3.338   0.103  0.4705 -0.6299 -0.6748
  190MOL   C12645864   2.545   3.230   0.049  0.3061 -0.4650  0.8313
  190MOL   O12745865   2.339   3.318   0.138 -0.0980  0.2594 -0.1565
  190MOL   H12845866   2.596   3.721   0.162 -0.3089  0.7584  1.3792
  190MOL   H12945867   2.433   3.776   0.163  2.3688  0.8997  0.5364
  190MOL   H13045868   2.344   3.561   0.149  0.0772  0.4592  0.1731
  190MOL   H13145869   2.548   3.233   7.962  0.3885  0.7443  0.8684
  190MOL   H13245870   2.508   3.130   0.071  1.7095 -0.6943  2.1811
  190MOL   H13345871   2.646   3.232   0.088 -0.0451 -2.9051  1.9881
  190MOL   C13445872   2.468   3.556   0.333 -0.8768 -0.5550 -0.3309
  190MOL   C13545873   2.367   3.648   0.407  0.4463  0.0519  0.2446
  190MOL   O13645874   2.235   3.578   0.395  0.6843 -0.1886 -0.0893
  190MOL   C13745875   2.134   3.644   0.342 -0.3691 -0.0810 -0.7274
  190MOL   C13845876   2.000   3.573   0.347  0.2751  0.1322 -0.7545
  190MOL   O13945877   2.140   3.750   0.284 -0.0145  0.1627  0.2567
  190MOL   H14045878   2.457   3.457   0.377  0.7106  0.2307  1.9214
  190MOL   H14145879   2.572   3.583   0.348 -0.7494 -0.2821 -1.6582
  190MOL   H14245880   2.373   3.749   0.367 -0.2771 -0.4387 -1.0986
  190MOL   H14345881   1.925   3.605   0.274 -0.7954 -0.8208 -0.0756
  190MOL   H14445882   1.954   3.591   0.444  2.4744 -0.0393  0.3614
  190MOL   H14545883   2.024   3.468   0.333  1.7623  0.0512  2.0540
  190MOL   C14645884   2.383   3.662   0.558 -0.7952  0.1815  0.2397
  190MOL   C14745885   2.300   3.779   0.609 -0.3878 -0.5202 -0.2715
  190MOL   O14845886   2.262   3.740   0.741 -0.0701 -0.1071 -0.6539
  190MOL   C14945887   2.141   3.673   0.757 -0.2972 -0.2027  0.3185
  190MOL   C15045888   2.116   3.622   0.894  0.1880  0.5873 -0.4702
  190MOL   O15145889   2.048   3.657   0.671 -0.6179  0.0016 -0.2993
  190MOL   H15245890   2.357   3.568   0.606  0.9228 -0.6094 -0.3219
  190MOL   H15345891   2.488   3.673   0.585 -0.9630  0.2779  0.8486
  190MOL   H15445892   2.211   3.797   0.549 -1.7819 -1.4336  1.4600
  190MOL   H15545893   2.022   3.567   0.908  0.3254  0.5645  0.3554
  190MOL   H15645894   2.130   3.700   0.969 -0.2325 -1.3939  1.7135
  190MOL   H15745895   2.200   3.555   0.913  1.1093  1.0758 -2.7376
  190MOL   C15845896   2.371   3.917   0.615 -0.2623  0.6958  0.2129
  190MOL   C15945897   2.277   4.040   0.591  0.0640  0.9634 -0.2111
  190MOL   O16045898   2.211   4.022   0.464 -0.6540 -1.0285  0.1253
  190MOL   C16145899   2.190   4.130   0.381 -0.1148  0.2798  0.0773
  190MOL   C16245900   2.116   4.099   0.254 -0.0875 -0.3977 -0.5385
  190MOL   O16345901   2.244   4.240   0.400 -0.0893  0.1201 -0.0481
  190MOL   H16445902   2.415   3.917   0.714 -0.7084  0.4181  0.4133
  190MOL   H16545903   2.456   3.910   0.548  0.5432 -1.0685  1.3948
  190MOL   H16645904   2.352   4.118   0.576 -0.8059  1.6454 -1.0205
  190MOL   H16745905   2.135   4.175   0.179  0.9190 -0.1300 -0.0146
  190MOL   H16845906   2.009   4.100   0.273 -0.3333 -0.8257 -1.8433
  190MOL   H16945907   2.148   3.999   0.223  0.8649 -0.3555  0.2926
  190MOL   C17045908   2.167   4.071   0.703  0.3351 -0.0519 -0.4169
  190MOL   C17145909   2.225   4.114   0.846  0.6680  0.1396  0.0276
  190MOL   O17245910   2.316   4.216   0.821  0.0985  0.4033  0.0395
  190MOL   C17345911   2.450   4.208   0.828 -0.1160  0.3467  0.5232
  190MOL   C17445912   2.532   4.312   0.758  0.8755 -0.3748 -0.2781
  190MOL   O17545913   2.507   4.111   0.879  0.7464  0.4044 -0.0641
  190MOL   H17645914   2.103   4.151   0.665 -1.7546 -1.6624 -0.3650
  190MOL   H17745915   2.104   3.983   0.720 -0.6858  0.6724 -0.3579
  190MOL   H17845916   2.271   4.026   0.892  0.6137  2.1449  4.0801
  190MOL   H17945917   2.541   4.293   0.651  0.3746  0.5725 -0.5039
  190MOL   H18045918   2.630   4.323   0.805  0.3750  0.9205  0.4810
  190MOL   H18145919   2.480   4.407   0.742 -1.2080 -1.1708  1.5515
  190MOL   C18245920   2.126   4.161   0.947 -0.2902 -0.6277 -0.6287
  190MOL   C18345921   2.032   4.050   0.979  0.4838 -0.2763 -0.2571
  190MOL   O18445922   2.022   4.049   1.119 -0.3024 -0.1689  0.0312
  190MOL   C18545923   2.106   3.973   1.184 -0.5313  0.3200 -0.1338
  190MOL   C18645924   2.101   4.003   1.332 -0.3731 -0.1920 -0.6776
  190MOL   O18745925   2.171   3.879   1.138  0.0107  0.2605  0.2933
  190MOL   H18845926   2.181   4.194   1.036  2.5355 -0.4664 -2.4000
  190MOL   H18945927   2.079   4.252   0.908  0.3451  0.1650  0.4200
  190MOL   H19045928   2.069   3.955   0.941  0.2584 -0.4686  0.0046
  190MOL   H19145929   2.168   4.082   1.366 -0.3689 -0.8090  0.7899
  190MOL   H19245930   2.142   3.914   1.379  0.0285  0.3783  0.0815
  190MOL   H19345931   2.003   4.010   1.379 -0.5378  3.0614 -1.4013
  190MOL   C19445932   1.880   4.062   0.932 -0.7021 -0.0392  0.0998
  190MOL   C19545933   1.815   3.936   0.876 -0.5237 -0.6940  0.3372
  190MOL   O19645934   1.875   3.917   0.742  0.4643  0.0708 -0.2358
  190MOL   C19745935   1.786   3.899   0.643  0.3451 -0.6287 -0.1545
  190MOL   C19845936   1.854   3.907   0.509  0.4319  0.6902 -0.0661
  190MOL   O19945937   1.666   3.882   0.650 -0.4486 -0.6357  0.2149
  190MOL   H20045938   1.818   4.110   1.008  0.5783 -0.5031  1.4422
  190MOL   H20145939   1.874   4.140   0.856  0.4439  1.1827  1.2455
  190MOL   H20245940   1.714   3.971   0.853 -0.4932  0.2483  1.6208
  190MOL   H20345941   1.953   3.953   0.506  1.1956 -0.8899  0.0347
  190MOL   H20445942   1.794   3.980   0.455 -1.0854 -1.6274 -1.6343
  190MOL   H20545943   1.866   3.814   0.453 -1.4553 -0.6821  1.7174
  190MOL   C20645944   1.816   3.806   0.968 -0.3859 -0.2235 -0.5005
  190MOL   C20745945   1.684   3.789   1.061 -0.2242 -0.2222 -0.3445
  190MOL   O20845946   1.584   3.773   0.965 -0.1030  0.3386  0.1924
  190MOL   C20945947   1.472   3.837   0.975  0.6501 -0.2630  0.0805
  190MOL   C21045948   1.384   3.825   0.847  0.2726 -0.3565  0.7859
  190MOL   O21145949   1.436   3.912   1.071 -0.4304 -0.4277 -0.8668
  190MOL   H21245950   1.835   3.717   0.909  0.1225 -1.0092  0.8353
  190MOL   H21345951   1.904   3.799   1.032 -2.4065 -1.0607  2.2836
  190MOL   H21445952   1.659   3.870   1.129 -0.5786  0.2177 -0.9849
  190MOL   H21545953   1.283   3.785   0.856  0.3869 -0.5646  1.1824
  190MOL   H21645954   1.443   3.759   0.784 -1.1527 -1.3884  0.5171
  190MOL   H21745955   1.372   3.919   0.793 -1.8677  0.7379  3.0812
  190MOL   C21845956   1.693   3.659   1.145 -0.1297  1.2094 -0.2509
  190MOL   C21945957   1.584   3.654   1.256 -0.9744 -0.8731  0.5264
  190MOL   O22045958   1.589   3.529   1.317  0.0513 -0.0597  0.1624
  190MOL   C22145959   1.500   3.437   1.279  0.2778  0.2744 -0.1751
  190MOL   C22245960   1.531   3.304   1.344  0.0478 -0.4027 -0.3043
  190MOL   O22345961   1.404   3.457   1.198 -0.8768 -0.4143  0.3128
  190MOL   H22445962   1.679   3.573   1.078  0.0636  0.6559  0.4201
  190MOL   H22545963   1.796   3.646   1.176 -0.3895 -1.4526 -0.3970
  190MOL   H22645964   1.487   3.665   1.207 -1.4716 -0.2960  1.6244
  190MOL   H22745965   1.635   3.275   1.328  0.8261  1.2442  1.6143
  190MOL   H22845966   1.464   3.229   1.301  0.3517 -2.3293  2.4325
  190MOL   H22945967   1.515   3.306   1.452  1.7557 -0.3972 -0.0326
  190MOL   C23045968   1.579   3.763   1.373  0.2689  0.1556 -0.5311
  190MOL   C23145969   1.717   3.781   1.444  0.0242  0.1452  0.2502
  190MOL   O23245970   1.690   3.863   1.554 -0.7455  0.0107 -0.3548
  190MOL   C23345971   1.714   3.995   1.540 -0.0061  0.8823 -0.1714
  190MOL   C23445972   1.677   4.078   1.666 -0.3669 -0.4684  0.6511
  190MOL   O23545973   1.760   4.058   1.439 -0.0092  0.0809 -0.0765
  190MOL   H23645974   1.541   3.857   1.333 -1.8358 -0.7923 -0.7894
  190MOL   H23745975   1.504   3.730   1.444  1.5184 -2.8012 -0.5385
  190MOL   H23845976   1.781   3.835   1.374  0.8556 -1.5374 -0.3176
  190MOL   H23945977   1.594   4.058   1.734  0.0692 -0.2630  1.2425
  190MOL   H24045978   1.683   4.184   1.643  2.1689 -0.6970  0.0373
  190MOL   H24145979   1.759   4.059   1.734  0.4374 -0.0951 -0.1943
  190MOL   H24245980   1.756   3.684   1.473  2.2849  0.8361 -0.3186
  191MOL     C145981   0.835   1.959   3.203  0.9742  0.0048  0.1614
  191MOL     C245982   0.897   1.983   3.068 -0.5101  0.1644  0.5753
  191MOL     O345983   1.042   1.981   3.088 -0.0962  0.0835  0.3187
  191MOL     C445984   1.111   2.080   3.141  0.0670  0.2450 -0.3994
  191MOL     C545985   1.257   2.058   3.153 -0.0587  0.0616 -0.0834
  191MOL     O645986   1.064   2.191   3.169  0.0755  0.5654 -0.8869
  191MOL     H745987   0.881   1.875   3.255  1.1876  0.8710  1.3913
  191MOL     H845988   0.730   1.930   3.204  1.1229 -0.5479 -0.3278
  191MOL     H945989   0.871   2.080   3.026  2.5088  0.5343 -0.5117
  191MOL    H1045990   1.264   1.985   3.233  0.0141  1.3035  1.0517
  191MOL    H1145991   1.315   2.149   3.165 -1.6614  1.1015 -0.1700
  191MOL    H1245992   1.290   2.011   3.060 -0.0534  0.4303 -0.2704
  191MOL    H1345993   0.833   2.043   3.272 -1.2467 -0.7190  1.0254
  191MOL    C1445994   0.872   1.862   2.976 -0.6315  0.3922 -0.4327
  191MOL    C1545995   0.726   1.830   2.939 -0.5125 -0.6421  0.6983
  191MOL    O1645996   0.674   1.937   2.863 -0.5112 -0.1632 -1.1011
  191MOL    C1745997   0.573   2.015   2.918 -0.1794  1.4230 -0.3790
  191MOL    C1845998   0.524   2.123   2.830 -0.2506  0.7265  0.5917
  191MOL    O1945999   0.525   1.999   3.028 -0.0894 -0.7203 -0.2745
  191MOL    H2046000   0.933   1.879   2.887 -1.0280  0.9276 -0.6057
  191MOL    H2146001   0.915   1.779   3.031  0.5677  1.9825  1.0702
  191MOL    H2246002   0.669   1.820   3.031 -0.9950 -0.5691  0.4110
  191MOL    H2346003   0.597   2.202   2.849 -1.7030  2.2348  0.1332
  191MOL    H2446004   0.424   2.152   2.862  0.9913  2.0323  3.3938
  191MOL    H2546005   0.533   2.096   2.725  1.6980 -1.1174  1.2023
  191MOL    C2646006   0.710   1.695   2.864 -0.5617  0.2432 -0.0772
  191MOL    C2746007   0.580   1.661   2.779  0.0251  0.6836  0.0690
  191MOL    O2846008   0.612   1.546   2.698 -0.1243 -0.3423  0.3522
  191MOL    C2946009   0.614   1.550   2.568 -0.9718 -0.3950  0.1548
  191MOL    C3046010   0.662   1.425   2.504 -0.6651  0.4617 -0.0145
  191MOL    O3146011   0.594   1.651   2.499 -0.2906  0.3555 -0.6212
  191MOL    H3246012   0.784   1.713   2.786 -0.5603  1.0406  0.1131
  191MOL    H3346013   0.735   1.611   2.929  0.7692  1.9829  1.6735
  191MOL    H3446014   0.555   1.749   2.720  1.6955  0.8405 -0.4276
  191MOL    H3546015   0.599   1.384   2.425  0.2406  0.9606 -1.0102
  191MOL    H3646016   0.680   1.348   2.579 -1.8467  0.3110  0.1227
  191MOL    H3746017   0.762   1.452   2.471  0.4852 -0.6574  2.4322
  191MOL    C3846018   0.457   1.639   2.869  0.6860  0.3431 -0.5440
  191MOL    C3946019   0.318   1.637   2.796  0.2408 -0.1129  0.0436
  191MOL    O4046020   0.289   1.752   2.711  0.1124 -0.3107 -0.4009
  191MOL    C4146021   0.173   1.820   2.728  0.1175 -1.5247  0.7856
  191MOL    C4246022   0.139   1.906   2.611 -0.0795  0.5090 -0.3019
  191MOL    O4346023   0.092   1.811   2.819  0.2307  0.3990  0.3337
  191MOL    H4446024   0.472   1.550   2.929 -0.0061 -0.1200 -1.0597
  191MOL    H4546025   0.470   1.717   2.944  1.3478  0.9854 -1.3086
  191MOL    H4646026   0.239   1.625   2.871 -0.2546  1.5197 -0.1915
  191MOL    H4746027   0.032   1.905   2.590 -0.1770  0.3294  0.1717
  191MOL    H4846028   0.202   1.885   2.525  0.1868 -2.1175  0.4688
  191MOL    H4946029   0.152   2.011   2.636  0.5400  0.1914  0.7508
  191MOL    C5046030   0.300   1.512   2.698 -0.5756 -0.5740  0.7962
  191MOL    C5146031   0.176   1.430   2.719  0.1622 -0.3536  0.4160
  191MOL    O5246032   0.061   1.519   2.709 -0.1152 -0.5649  0.7325
  191MOL    C5346033   7.984   1.504   2.802 -0.8074  0.1294  0.8638
  191MOL    C5446034   7.876   1.606   2.779 -0.1203  0.2357  0.5618
  191MOL    O5546035   7.976   1.407   2.880 -0.1017  0.4064 -0.2025
  191MOL    H5646036   0.304   1.537   2.592 -1.2509  0.3285  0.9696
  191MOL    H5746037   0.378   1.440   2.723 -0.0785 -0.3931 -0.2295
  191MOL    H5846038   0.187   1.390   2.820 -1.1057 -0.1737  0.6391
  191MOL    H5946039   7.797   1.549   2.730  2.2052 -0.9524 -1.9368
  191MOL    H6046040   7.911   1.693   2.723 -2.3891  1.0697  0.3879
  191MOL    H6146041   7.849   1.641   2.878 -0.6731  0.0178  0.4891
  191MOL    C6246042   0.168   1.307   2.625  0.6184  0.3679  0.0454
  191MOL    C6346043   0.111   1.330   2.492 -0.2402  0.0209 -0.3173
  191MOL    O6446044   0.199   1.413   2.404  0.3527 -0.2365 -0.2154
  191MOL    C6546045   0.168   1.535   2.364  0.6985 -0.2955 -0.3432
  191MOL    C6646046   0.287   1.613   2.299 -0.3162  1.0015 -0.0369
  191MOL    O6746047   0.053   1.587   2.374  0.0251 -0.3408  0.2732
  191MOL    H6846048   0.264   1.256   2.616  0.1961 -0.3343 -0.5391
  191MOL    H6946049   0.101   1.238   2.676  0.8349  0.7560  0.8759
  191MOL    H7046050   0.015   1.380   2.506  1.1028  2.5545 -0.0117
  191MOL    H7146051   0.374   1.551   2.281  0.2064  1.7998 -0.2836
  191MOL    H7246052   0.312   1.683   2.379 -0.0727 -0.7473  1.4436
  191MOL    H7346053   0.267   1.664   2.205  1.9839  3.0232  0.5114
  191MOL    C7446054   0.095   1.195   2.420 -0.2419  0.0473  0.1417
  191MOL    C7546055   7.971   1.169   2.376  0.5985  0.9682  0.4803
  191MOL    O7646056   7.945   1.262   2.276  0.3093  0.1297  0.0668
  191MOL    C7746057   7.862   1.361   2.301  0.1396  0.1328  0.9956
  191MOL    C7846058   7.829   1.459   2.185  0.0760 -0.1313 -0.3959
  191MOL    O7946059   7.817   1.394   2.410 -0.2345 -0.5090 -0.5568
  191MOL    H8046060   0.153   1.202   2.328 -0.7972 -0.5398 -0.2537
  191MOL    H8146061   0.141   1.112   2.474 -0.9512  0.1843  0.9658
  191MOL    H8246062   7.905   1.182   2.461  0.7521  1.6773  0.4930
  191MOL    H8346063   7.740   1.517   2.208  0.1110  0.7680 -2.4283
  191MOL    H8446064   7.813   1.419   2.085 -0.4114  2.3823 -1.3740
  191MOL    H8546065   7.911   1.531   2.175  0.3116  0.5122  4.8915
  191MOL    C8646066   7.958   1.021   2.329 -0.1500 -0.2347 -0.0017
  191MOL    C8746067   7.815   0.955   2.313  0.4070 -0.3993  0.2278
  191MOL    O8846068   7.793   0.929   2.177  0.3047  0.1118  0.3876
  191MOL    C8946069   7.714   1.004   2.094  0.0742  0.9798  0.1386
  191MOL    C9046070   7.712   0.954   1.951 -0.0474  0.3385  0.0239
  191MOL    O9146071   7.663   1.107   2.123 -0.6819  0.0067 -0.0232
  191MOL    H9246072   0.002   0.987   2.249 -0.6597  0.6093 -0.7794
  191MOL    H9346073   8.001   0.968   2.415  0.4146  1.2191  0.6174
  191MOL    H9446074   7.754   1.042   2.340  0.1427  0.6320 -3.3849
  191MOL    H9546075   7.656   1.037   1.907 -1.8084 -0.3978  0.8186
  191MOL    H9646076   7.666   0.856   1.939 -0.1049  0.3789 -0.0910
  191MOL    H9746077   7.812   0.956   1.908  0.5750 -0.1949  1.4479
  191MOL    C9846078   7.776   0.826   2.396  0.8524  0.1921  0.0474
  191MOL    C9946079   7.820   0.819   2.542 -0.5628  0.4969  0.1126
  191MOL   O10046080   7.762   0.945   2.582  0.2687  0.3508  0.1777
  191MOL   C10146081   7.834   1.033   2.654  0.0146  0.3395  0.3518
  191MOL   C10246082   7.751   1.154   2.689  0.0837 -0.3232 -0.3805
  191MOL   O10346083   7.956   1.026   2.673 -0.5207 -0.3509 -0.0492
  191MOL   H10446084   7.671   0.798   2.385  1.1795 -1.2489  0.4527
  191MOL   H10546085   7.826   0.740   2.351 -2.1997 -1.8532  0.4335
  191MOL   H10646086   7.927   0.823   2.561 -0.5348 -0.3314  0.1282
  191MOL   H10746087   7.660   1.137   2.631 -0.2990 -0.0202  0.1283
  191MOL   H10846088   7.795   1.252   2.671  0.8768 -0.4581  0.7770
  191MOL   H10946089   7.728   1.156   2.796  2.5233 -0.9377  0.1917
  191MOL   C11046090   7.748   0.710   2.619 -0.0436  0.0376 -0.3689
  191MOL   C11146091   7.833   0.589   2.664 -0.2393  0.2439 -0.1812
  191MOL   O11246092   7.916   0.628   2.770  0.4194 -0.1430 -0.7126
  191MOL   C11346093   0.019   0.556   2.789  0.4800  0.0639  0.6753
  191MOL   C11446094   0.083   0.605   2.920 -0.8370  0.4909 -0.0083
  191MOL   O11546095   0.073   0.487   2.704  0.1363  0.0963 -0.3641
  191MOL   H11646096   7.701   0.753   2.708 -0.8039 -1.0242 -0.2500
  191MOL   H11746097   7.658   0.681   2.565  0.5104 -2.2154 -0.1353
  191MOL   H11846098   7.885   0.566   2.571 -1.1614  1.1915 -0.9396
  191MOL   H11946099   0.006   0.674   2.954 -1.1464  0.1252  0.0237
  191MOL   H12046100   0.183   0.645   2.900 -0.1651 -1.3248 -0.4063
  191MOL   H12146101   0.085   0.517   2.983  0.0241  0.2565 -0.3502
  191MOL   C12246102   7.754   0.468   2.717  0.1634  0.3083 -0.3013
  191MOL   C12346103   7.690   0.394   2.598 -0.4773  0.0379  0.0776
  191MOL   O12446104   7.797   0.337   2.525 -0.2890 -0.4475  0.3488
  191MOL   C12546105   7.798   0.330   2.391  0.3709  0.2463  0.0204
  191MOL   C12646106   7.928   0.265   2.348  0.1238 -0.3025  0.1497
  191MOL   O12746107   7.704   0.356   2.312 -0.3295  0.3393  0.1353
  191MOL   H12846108   7.809   0.395   2.778 -0.6266 -0.6054 -0.6734
  191MOL   H12946109   7.686   0.495   2.798  0.9298  1.1783  0.0614
  191MOL   H13046110   7.643   0.474   2.540 -1.0039  0.1472  0.6372
  191MOL   H13146111   8.014   0.301   2.404  1.8631 -3.1139 -0.5877
  191MOL   H13246112   7.954   0.275   2.242 -0.2608  0.2420  0.1038
  191MOL   H13346113   7.907   0.160   2.368  1.4097 -1.0116 -1.9920
  191MOL   C13446114   7.590   0.291   2.641 -0.0010 -0.7828  0.4982
  191MOL   C13546115   7.523   0.205   2.526 -0.6932  0.0575  0.2255
  191MOL   O13646116   7.448   0.107   2.598  0.2479  0.0469  0.1203
  191MOL   C13746117   7.477   7.991   2.599  0.1079 -0.3117  0.4415
  191MOL   C13846118   7.382   7.910   2.684 -0.1616  0.7063 -0.7232
  191MOL   O13946119   7.579   7.950   2.552 -0.5635  0.7733  0.3968
  191MOL   H14046120   7.628   0.225   2.719 -1.9861 -2.6780 -0.0814
  191MOL   H14146121   7.508   0.352   2.678  0.3367  0.8692 -1.4171
  191MOL   H14246122   7.599   0.153   2.468 -1.9321 -1.5081 -0.0445
  191MOL   H14346123   7.371   7.814   2.634 -1.2442  0.4340  0.0272
  191MOL   H14446124   7.285   7.959   2.677 -0.2031  0.3125 -4.0430
  191MOL   H14546125   7.413   7.907   2.788  0.4609  1.4353 -0.8829
  191MOL   C14646126   7.424   0.296   2.450 -0.1622 -0.2199 -0.4029
  191MOL   C14746127   7.340   0.220   2.344 -0.2215 -0.5343 -0.3795
  191MOL   O14846128   7.202   0.203   2.378 -0.0762 -0.4990  0.2853
  191MOL   C14946129   7.156   0.082   2.391  0.4239  0.7806  0.3587
  191MOL   C15046130   7.017   0.070   2.435 -0.1234 -0.3762  0.0002
  191MOL   O15146131   7.232   8.008   2.397  0.2346  0.2917  0.7533
  191MOL   H15246132   7.351   0.345   2.514  0.1789  1.5382 -1.3117
  191MOL   H15346133   7.484   0.381   2.417 -0.5221 -0.9352 -2.9992
  191MOL   H15446134   7.404   0.135   2.323 -0.5233 -0.5763 -1.1340
  191MOL   H15546135   6.990   0.168   2.475  1.0566  0.4276 -1.1153
  191MOL   H15646136   7.016   8.018   2.515  0.8595  0.3971  0.7330
  191MOL   H15746137   6.963   0.037   2.346  1.4423 -3.0056 -0.0172
  191MOL   C15846138   7.343   0.296   2.206 -0.4477  0.2157 -0.3788
  191MOL   C15946139   7.272   0.228   2.098 -0.8303 -0.2336  0.3953
  191MOL   O16046140   7.173   0.322   2.054  0.0371 -0.4596 -0.1726
  191MOL   C16146141   7.045   0.284   2.058  0.2791  0.3670 -0.1240
  191MOL   C16246142   6.959   0.392   2.000  0.5030 -0.5768  1.1036
  191MOL   O16346143   6.999   0.179   2.101 -0.1072  0.2694  0.3974
  191MOL   H16446144   7.304   0.397   2.199 -0.6076  0.2801  1.4138
  191MOL   H16546145   7.447   0.298   2.172  0.4881 -2.1612  2.1488
  191MOL   H16646146   7.226   0.136   2.134 -1.7035 -0.1284 -0.4580
  191MOL   H16746147   6.967   0.492   2.042 -0.2507 -0.8646  1.9377
  191MOL   H16846148   6.853   0.365   1.999  0.8466 -1.9836 -1.5230
  191MOL   H16946149   6.984   0.402   1.894  1.2185  0.4988  1.3650
  191MOL   C17046150   7.354   0.181   1.979 -0.0449 -0.2368  0.4592
  191MOL   C17146151   7.470   0.080   2.006 -0.2839 -0.1064  0.1124
  191MOL   O17246152   7.422   7.991   2.083  0.0099  0.2562  0.6563
  191MOL   C17346153   7.502   7.947   2.186 -0.1782 -0.2379  0.2364
  191MOL   C17446154   7.440   7.825   2.262 -0.5392 -0.2883 -0.5569
  191MOL   O17546155   7.604   8.001   2.219 -0.2787 -0.0952  0.4073
  191MOL   H17646156   7.282   0.133   1.912  0.0030  2.0655 -1.3293
  191MOL   H17746157   7.385   0.269   1.922 -0.1562 -2.6269 -3.4610
  191MOL   H17846158   7.552   0.129   2.059  1.2038 -1.5409 -0.7792
  191MOL   H17946159   7.402   7.759   2.184  0.8846 -1.9474  0.1202
  191MOL   H18046160   7.368   7.856   2.338  1.5014 -0.6207  1.5780
  191MOL   H18146161   7.513   7.775   2.325  0.1165  1.4090  0.0844
  191MOL   C18246162   7.544   0.031   1.878  0.3830  0.3310 -0.2996
  191MOL   C18346163   7.606   0.152   1.792 -0.0357  0.3723 -0.2043
  191MOL   O18446164   7.724   0.200   1.854 -0.2850  0.7516  0.0308
  191MOL   C18546165   7.725   0.308   1.926  0.3027 -0.5804 -0.4431
  191MOL   C18646166   7.858   0.323   1.998 -0.4656  0.6847  0.0887
  191MOL   O18746167   7.628   0.382   1.939  0.1831 -0.2447 -0.3616
  191MOL   H18846168   7.633   7.995   1.902 -1.1773 -1.7989  0.5076
  191MOL   H18946169   7.490   7.985   1.812  0.6998 -0.3864  0.1768
  191MOL   H19046170   7.535   0.234   1.782 -1.0919 -0.3773  1.0700
  191MOL   H19146171   7.894   0.225   2.026  0.4891  0.0233 -3.2385
  191MOL   H19246172   7.847   0.393   2.081 -0.7612  1.2950 -0.4516
  191MOL   H19346173   7.933   0.366   1.931 -0.7844 -0.8154 -1.2662
  191MOL   C19446174   7.646   0.103   1.650  0.2898  0.2024  0.7603
  191MOL   C19546175   7.719   0.208   1.559  0.6493 -0.2637  0.7024
  191MOL   O19646176   7.771   0.135   1.447  0.3547  0.4266 -0.2331
  191MOL   C19746177   7.893   0.083   1.437  0.4235 -0.0996  0.9257
  191MOL   C19846178   7.903   8.021   1.307  0.1433 -0.3083  0.1576
  191MOL   O19946179   7.980   0.095   1.524  0.3288  0.7082 -0.4378
  191MOL   H20046180   7.698   0.008   1.665  1.4524  0.5889 -0.6734
  191MOL   H20146181   7.564   0.059   1.593  1.7659 -3.2704  1.2073
  191MOL   H20246182   7.800   0.263   1.606  1.7974 -2.3240  1.2237
  191MOL   H20346183   7.814   8.013   1.245  0.8715 -0.8871 -0.8344
  191MOL   H20446184   7.926   7.918   1.333 -1.5221 -0.3510  1.5689
  191MOL   H20546185   7.986   0.040   1.250  0.1620 -0.8330 -0.1863
  191MOL   C20646186   7.613   0.312   1.514  0.7076  0.1854 -0.0502
  191MOL   C20746187   7.688   0.420   1.430 -0.2761  0.3785 -0.0330
  191MOL   O20846188   7.738   0.367   1.304  0.7656  0.1546 -0.2242
  191MOL   C20946189   7.863   0.386   1.269  0.5975 -0.4670 -0.7165
  191MOL   C21046190   7.884   0.354   1.123 -0.0401 -0.0533  0.0419
  191MOL   O21146191   7.953   0.438   1.337 -0.3984  0.5038  0.1188
  191MOL   H21246192   7.538   0.262   1.452 -0.0088 -0.6520  1.4757
  191MOL   H21346193   7.562   0.362   1.596  1.8070  0.0451  0.7187
  191MOL   H21446194   7.773   0.454   1.489 -0.3494 -0.5193  0.6022
  191MOL   H21546195   7.835   0.426   1.057  2.2882  1.5741  0.0251
  191MOL   H21646196   7.844   0.253   1.114  0.4901 -0.2930  0.3860
  191MOL   H21746197   7.989   0.345   1.097  0.2279  2.5022  0.1097
  191MOL   C21846198   7.602   0.547   1.411  0.3016  0.3836 -0.1469
  191MOL   C21946199   7.597   0.634   1.539 -0.8105 -0.0249  0.3632
  191MOL   O22046200   7.710   0.706   1.530 -0.2717  0.2531 -0.2193
  191MOL   C22146201   7.825   0.679   1.591  0.4156  0.3144 -0.2465
  191MOL   C22246202   7.928   0.780   1.558 -0.5695 -0.3449 -0.5713
  191MOL   O22346203   7.841   0.589   1.680  0.2293 -0.1818  0.0854
  191MOL   H22446204   7.629   0.601   1.320 -0.5753  2.2396  0.6806
  191MOL   H22546205   7.501   0.524   1.379  0.3104  0.4250 -0.2044
  191MOL   H22646206   7.587   0.570   1.626  0.4851 -0.6334  0.0842
  191MOL   H22746207   7.945   0.843   1.646  2.3578 -3.1788  1.0095
  191MOL   H22846208   7.891   0.852   1.485  0.8835  0.7234 -0.2846
  191MOL   H22946209   0.003   0.736   1.535 -0.3792 -0.8085  1.0315
  191MOL   C23046210   7.479   0.739   1.539 -0.4172  0.2972  0.5912
  191MOL   C23146211   7.462   0.816   1.672  0.6003 -0.0894 -0.1655
  191MOL   O23246212   7.456   0.737   1.787  0.0600  0.2166  0.1923
  191MOL   C23346213   7.335   0.695   1.833  0.2950 -0.8941 -0.4158
  191MOL   C23446214   7.343   0.616   1.960 -0.3155 -0.0480 -0.2137
  191MOL   O23546215   7.225   0.732   1.785  0.6039 -0.1109  0.7663
  191MOL   H23646216   7.501   0.815   1.463  0.0678 -0.7554 -0.3330
  191MOL   H23746217   7.383   0.697   1.511 -0.5254  1.7484 -1.3228
  191MOL   H23846218   7.371   0.875   1.670  2.3576  2.7269 -0.2120
  191MOL   H23946219   7.442   0.574   1.977 -1.7950 -3.6816  0.0263
  191MOL   H24046220   7.277   0.530   1.953  2.0063 -1.8451 -0.6495
  191MOL   H24146221   7.309   0.684   2.039 -0.3569  1.6101 -1.6381
  191MOL   H24246222   7.547   0.884   1.678 -1.0244  2.1927 -2.0983
  192MOL     C146223   5.688   2.117   3.552  0.3604  0.6983  0.3981
  192MOL     C246224   5.670   1.984   3.477 -0.7494  0.4585 -0.2955
  192MOL     O346225   5.783   1.896   3.507  0.0222  0.1880 -0.0738
  192MOL     C446226   5.893   1.888   3.430  0.1688  0.7659  0.1454
  192MOL     C546227   6.010   1.830   3.505 -0.0026 -0.2688  0.0393
  192MOL     O646228   5.908   1.943   3.323  0.1847 -0.1415 -0.0021
  192MOL     H746229   5.783   2.159   3.518  1.1536  0.4098  2.1957
  192MOL     H846230   5.678   2.111   3.661  0.7411 -1.2659  0.3594
  192MOL     H946231   5.676   2.016   3.372 -0.3070  2.6374  0.3635
  192MOL    H1046232   6.081   1.773   3.446 -0.4326 -1.6467  0.8288
  192MOL    H1146233   5.979   1.759   3.582  3.0007 -1.6801  0.0160
  192MOL    H1246234   6.068   1.911   3.548  1.7878 -1.3369 -0.3091
  192MOL    H1346235   5.608   2.181   3.516  0.8540 -0.4998 -2.9986
  192MOL    C1446236   5.531   1.912   3.509 -0.2443  0.1029  0.5421
  192MOL    C1546237   5.461   1.872   3.377 -0.0449 -0.8858 -0.2440
  192MOL    O1646238   5.538   1.766   3.310 -1.0952 -0.7814 -0.5020
  192MOL    C1746239   5.559   1.765   3.174  0.0582  0.2568  0.2995
  192MOL    C1846240   5.644   1.646   3.128 -0.5448  0.6650 -0.4455
  192MOL    O1946241   5.532   1.848   3.095  0.6507  0.5259 -0.7028
  192MOL    H2046242   5.546   1.820   3.566  0.6100  0.6078  1.1205
  192MOL    H2146243   5.466   1.982   3.561 -0.3458 -0.6388  1.4301
  192MOL    H2246244   5.463   1.971   3.330 -0.2618 -0.5562  0.4359
  192MOL    H2346245   5.626   1.617   3.024  0.7843  1.7550 -0.9959
  192MOL    H2446246   5.626   1.559   3.191  0.5266  0.7915  0.0420
  192MOL    H2546247   5.750   1.668   3.123  0.2450 -2.7252  0.3824
  192MOL    C2646248   5.313   1.829   3.405  0.2564  0.0383 -0.0787
  192MOL    C2746249   5.288   1.676   3.387  0.2393  0.7372 -0.4046
  192MOL    O2846250   5.367   1.608   3.476 -0.2867 -0.4661  0.1416
  192MOL    C2946251   5.440   1.500   3.444 -0.5676  0.3645 -0.0899
  192MOL    C3046252   5.515   1.448   3.565 -0.6209  0.0154 -0.5571
  192MOL    O3146253   5.448   1.445   3.333  0.4615  0.0380 -0.0931
  192MOL    H3246254   5.282   1.872   3.500  1.0090 -1.3255  0.8071
  192MOL    H3346255   5.255   1.884   3.331 -0.5795  0.8654  1.1746
  192MOL    H3446256   5.319   1.645   3.287  0.0338 -2.1094  0.3666
  192MOL    H3546257   5.495   1.344   3.591 -0.3285 -0.4620 -2.1700
  192MOL    H3646258   5.502   1.491   3.664  1.2351 -2.2268  0.7018
  192MOL    H3746259   5.621   1.460   3.544 -0.6080  1.1232  0.0959
  192MOL    C3846260   5.141   1.624   3.411 -0.9155  0.4878 -0.1719
  192MOL    C3946261   5.031   1.701   3.337 -0.3181  0.2990  0.2636
  192MOL    O4046262   5.057   1.692   3.200 -0.6999  0.1127  0.1337
  192MOL    C4146263   5.047   1.809   3.128  0.5714 -0.2673 -0.1828
  192MOL    C4246264   5.081   1.799   2.985 -0.3312 -0.4773  0.3469
  192MOL    O4346265   5.011   1.920   3.169  0.2977  0.1539 -0.0936
  192MOL    H4446266   5.138   1.523   3.370 -4.1829  0.6912 -0.5184
  192MOL    H4546267   5.133   1.639   3.519  0.6684  2.5592 -0.3219
  192MOL    H4646268   5.037   1.805   3.367 -1.7565  0.8127 -1.1328
  192MOL    H4746269   5.047   1.882   2.923  2.6471  1.2024  0.8335
  192MOL    H4846270   5.034   1.708   2.950  1.0172 -1.6960  1.6321
  192MOL    H4946271   5.187   1.788   2.963 -0.4955  0.1325 -0.7737
  192MOL    C5046272   4.888   1.672   3.377  0.2905 -0.0434  0.3873
  192MOL    C5146273   4.840   1.716   3.517  0.1554 -0.1118 -0.6347
  192MOL    O5246274   4.874   1.852   3.547 -0.0657 -0.0096 -0.3385
  192MOL    C5346275   4.889   1.902   3.672 -0.2420  0.7137  0.4280
  192MOL    C5446276   4.932   2.049   3.673 -0.1902  0.0408 -0.0754
  192MOL    O5546277   4.895   1.830   3.777  0.3337  0.0768  0.2187
  192MOL    H5646278   4.818   1.719   3.309  0.0279 -1.2164 -0.1540
  192MOL    H5746279   4.861   1.566   3.375 -0.1891  0.0229  2.4312
  192MOL    H5846280   4.875   1.655   3.600 -2.1351  0.0928  0.5412
  192MOL    H5946281   4.940   2.072   3.780 -0.9934 -3.2314  0.7351
  192MOL    H6046282   4.862   2.115   3.622 -0.8667 -2.2760 -2.2217
  192MOL    H6146283   5.025   2.057   3.618  0.6726  1.1697  1.4960
  192MOL    C6246284   4.684   1.718   3.531  0.4580 -0.5703  0.0131
  192MOL    C6346285   4.619   1.572   3.532 -0.0070 -0.0493 -0.3331
  192MOL    O6446286   4.666   1.513   3.649 -0.1526 -0.5563  0.1318
  192MOL    C6546287   4.744   1.403   3.652  0.2757  0.0603  0.3340
  192MOL    C6646288   4.776   1.355   3.791 -0.3015 -0.1183 -0.4754
  192MOL    O6746289   4.780   1.333   3.555  0.1330  0.2724  0.2338
  192MOL    H6846290   4.660   1.754   3.632  1.3801 -0.7278  0.2891
  192MOL    H6946291   4.639   1.785   3.457  0.5431 -1.0185 -0.4452
  192MOL    H7046292   4.648   1.525   3.438 -0.1624  2.2031 -1.5335
  192MOL    H7146293   4.690   1.378   3.854  0.8263  0.9142  0.7172
  192MOL    H7246294   4.876   1.396   3.803  0.8613 -2.6292 -1.2407
  192MOL    H7346295   4.788   1.246   3.793  0.3045 -0.0368  0.5226
  192MOL    C7446296   4.466   1.589   3.529  0.1642  0.4963  0.2573
  192MOL    C7546297   4.397   1.449   3.514  0.1829  0.1523 -0.6581
  192MOL    O7646298   4.414   1.358   3.625  0.2732 -0.1987  0.3394
  192MOL    C7746299   4.395   1.226   3.602 -0.1984 -0.8404  0.9543
  192MOL    C7846300   4.429   1.128   3.717  0.4231 -0.7468  1.3072
  192MOL    O7946301   4.352   1.182   3.497  0.6023 -0.1807  0.2116
  192MOL    H8046302   4.437   1.633   3.624 -0.3868  0.8467 -0.0719
  192MOL    H8146303   4.443   1.651   3.443 -0.1628  1.6250  1.1584
  192MOL    H8246304   4.432   1.405   3.421  0.5383  0.0946 -0.4986
  192MOL    H8346305   4.345   1.140   3.786 -0.6469 -1.4106  0.1386
  192MOL    H8446306   4.522   1.166   3.761  0.5456  1.1807 -0.5198
  192MOL    H8546307   4.441   1.023   3.690 -0.4947 -1.0070  1.8833
  192MOL    C8646308   4.243   1.467   3.495 -0.5875  0.2729 -0.4902
  192MOL    C8746309   4.204   1.548   3.365 -0.2220  0.4774  0.1971
  192MOL    O8846310   4.260   1.492   3.242 -0.2500 -0.0644 -0.5202
  192MOL    C8946311   4.324   1.567   3.153  0.0743 -0.4756 -0.1191
  192MOL    C9046312   4.370   1.495   3.028  0.3507 -0.2914  0.0583
  192MOL    O9146313   4.344   1.686   3.157 -0.8110 -0.6868  0.3935
  192MOL    H9246314   4.184   1.376   3.486  1.7334 -1.1449 -1.7196
  192MOL    H9346315   4.200   1.525   3.577  1.2141  1.2034 -0.1869
  192MOL    H9446316   4.228   1.653   3.383 -1.7717  1.1724 -1.6576
  192MOL    H9546317   4.474   1.511   2.999  0.2088 -1.6635 -1.2683
  192MOL    H9646318   4.311   1.525   2.940 -0.3964 -2.5621 -0.2478
  192MOL    H9746319   4.356   1.387   3.037  1.3642 -0.3734  0.7052
  192MOL    C9846320   4.048   1.534   3.344 -0.5495 -0.2824  0.0827
  192MOL    C9946321   3.950   1.647   3.384 -0.3332 -1.2052 -0.0867
  192MOL   O10046322   3.994   1.756   3.302  0.4751  0.0222 -0.2363
  192MOL   C10146323   3.937   1.876   3.323  0.1538  0.3081  0.1120
  192MOL   C10246324   3.980   1.972   3.214  0.1151 -0.3840  0.4095
  192MOL   O10346325   3.857   1.902   3.415  0.3940 -0.1835  0.0973
  192MOL   H10446326   4.025   1.514   3.239 -0.8166 -0.8939  0.2532
  192MOL   H10546327   4.017   1.440   3.390 -1.6433  0.3375  0.6332
  192MOL   H10646328   3.953   1.688   3.485  1.5877  0.6187 -0.8475
  192MOL   H10746329   3.911   1.974   3.130 -0.2906  0.3896  0.7472
  192MOL   H10846330   4.079   1.944   3.178  0.4620  1.0045  0.2144
  192MOL   H10946331   3.986   2.074   3.254  1.8150 -1.1440  2.1501
  192MOL   C11046332   3.801   1.603   3.348 -0.1583 -0.0962  0.1332
  192MOL   C11146333   3.741   1.497   3.446  0.4531 -0.1389  0.2782
  192MOL   O11246334   3.733   1.548   3.579 -0.1491  0.3251  0.3348
  192MOL   C11346335   3.805   1.484   3.679  0.4474  0.3900  0.2345
  192MOL   C11446336   3.818   1.567   3.808 -0.0294 -0.0988 -0.4643
  192MOL   O11546337   3.871   1.383   3.663  0.1561  0.1148 -0.7582
  192MOL   H11646338   3.734   1.689   3.346 -0.0561 -0.0384 -3.8893
  192MOL   H11746339   3.807   1.573   3.243  2.3128 -1.1511  0.5323
  192MOL   H11846340   3.806   1.410   3.453  0.2361 -0.4476 -1.2680
  192MOL   H11946341   3.742   1.521   3.871  0.3791 -0.8604 -0.5189
  192MOL   H12046342   3.811   1.670   3.774 -0.8367 -0.0528 -0.1834
  192MOL   H12146343   3.913   1.546   3.858  1.0564  0.5291 -2.2335
  192MOL   C12246344   3.601   1.440   3.398 -0.2542 -1.0801 -0.2616
  192MOL   C12346345   3.615   1.342   3.287 -0.4018  0.1633 -0.2681
  192MOL   O12446346   3.662   1.229   3.360  0.3702  0.4591 -0.4346
  192MOL   C12546347   3.773   1.154   3.329  0.7876  0.3543 -0.2912
  192MOL   C12646348   3.823   1.087   3.457  0.1600 -0.1081  0.1472
  192MOL   O12746349   3.826   1.149   3.215  0.1315 -0.1363 -0.0843
  192MOL   H12846350   3.543   1.394   3.478 -2.5376  1.8724 -0.1233
  192MOL   H12946351   3.536   1.520   3.360  0.0617 -0.2934  0.8197
  192MOL   H13046352   3.688   1.376   3.213 -1.2189 -0.4265 -1.3624
  192MOL   H13146353   3.913   1.028   3.437  0.4642 -0.5216  2.6169
  192MOL   H13246354   3.754   1.030   3.518  1.9187 -1.1696  1.1903
  192MOL   H13346355   3.844   1.165   3.530 -0.0845 -1.4063  1.6447
  192MOL   C13446356   3.484   1.295   3.231 -0.2373  0.4503  0.0605
  192MOL   C13546357   3.506   1.199   3.112  0.2110  0.5670  0.4900
  192MOL   O13646358   3.373   1.164   3.066 -0.1447 -0.3052 -0.3727
  192MOL   C13746359   3.323   1.038   3.076  0.4745 -0.4710  0.0121
  192MOL   C13846360   3.180   1.038   3.022  0.0029  0.2946 -0.3491
  192MOL   O13946361   3.375   0.939   3.121 -0.0335  0.2384 -0.2329
  192MOL   H14046362   3.425   1.251   3.312  1.1680 -0.8755  0.3882
  192MOL   H14146363   3.438   1.385   3.189  1.5647  0.6225 -1.5669
  192MOL   H14246364   3.561   1.114   3.152 -1.3825 -2.1408 -2.8458
  192MOL   H14346365   3.120   1.111   3.077  1.4717  0.4935  1.0442
  192MOL   H14446366   3.142   0.941   3.054  3.2267 -0.3581  1.7288
  192MOL   H14546367   3.175   1.057   2.915  1.2159 -0.4523 -0.5501
  192MOL   C14646368   3.587   1.258   2.993 -0.1599  0.4324  0.0723
  192MOL   C14746369   3.628   1.166   2.873  0.0579  0.3556  0.2789
  192MOL   O14846370   3.671   1.257   2.771  0.3765  0.1005 -0.0671
  192MOL   C14946371   3.584   1.304   2.673 -0.4322  0.0514 -0.1941
  192MOL   C15046372   3.666   1.368   2.559  0.0511  0.3196  0.1000
  192MOL   O15146373   3.468   1.286   2.670  0.4267  0.2416 -0.7304
  192MOL   H15246374   3.529   1.344   2.959 -1.9982 -0.6039  0.5514
  192MOL   H15346375   3.684   1.298   3.024 -0.3031 -1.5563  3.4137
  192MOL   H15446376   3.543   1.116   2.826  0.6728  0.6227 -1.1692
  192MOL   H15546377   3.752   1.424   2.596  0.7128  0.3696 -1.5028
  192MOL   H15646378   3.604   1.434   2.499 -0.5690  0.6587  1.0959
  192MOL   H15746379   3.713   1.301   2.487  0.4943 -0.8062  1.4135
  192MOL   C15846380   3.751   1.078   2.905  0.6057 -0.2974  0.0353
  192MOL   C15946381   3.810   0.987   2.801  0.1201  0.3300 -0.6574
  192MOL   O16046382   3.898   1.063   2.717  0.0845  0.0786 -0.0096
  192MOL   C16146383   3.908   1.033   2.588  0.4044 -0.2145 -0.2909
  192MOL   C16246384   4.006   1.126   2.509  0.4183  0.2485 -0.6899
  192MOL   O16346385   3.839   0.949   2.531 -0.4935 -0.0823  0.3639
  192MOL   H16446386   3.838   1.131   2.944  0.7380 -1.2370  1.0506
  192MOL   H16546387   3.710   1.013   2.983 -1.3294 -0.1465 -0.8450
  192MOL   H16646388   3.724   0.962   2.739  0.0464 -2.4858  0.5218
  192MOL   H16746389   4.005   1.080   2.410  0.5926 -1.2036 -0.0442
  192MOL   H16846390   4.110   1.130   2.542 -0.5887 -0.8475  2.7919
  192MOL   H16946391   3.965   1.226   2.501 -0.7463 -0.1778 -0.2344
  192MOL   C17046392   3.884   0.870   2.862  0.0388 -0.3336 -0.5643
  192MOL   C17146393   3.959   0.766   2.781  0.1404  0.2175 -0.1933
  192MOL   O17246394   4.042   0.687   2.860  0.2928  1.0013  0.1475
  192MOL   C17346395   4.167   0.672   2.832 -0.2222  0.6316  0.2520
  192MOL   C17446396   4.244   0.606   2.942  0.0576 -0.1795  0.3977
  192MOL   O17546397   4.222   0.712   2.728  0.8392  0.3740 -0.4854
  192MOL   H17646398   3.944   0.921   2.937 -3.9778  1.7130  1.4425
  192MOL   H17746399   3.811   0.820   2.926  0.4085  0.2851  0.3450
  192MOL   H17846400   4.025   0.817   2.710  0.7684 -0.2925  0.0227
  192MOL   H17946401   4.182   0.533   2.995 -1.5136 -0.4330 -1.7066
  192MOL   H18046402   4.286   0.690   2.997 -1.5942  1.7536 -1.1673
  192MOL   H18146403   4.321   0.542   2.900  0.1157  1.3682 -1.9500
  192MOL   C18246404   3.857   0.673   2.710  0.1653  0.7091 -0.3931
  192MOL   C18346405   3.923   0.589   2.600 -0.8918 -0.4609  0.1495
  192MOL   O18446406   3.826   0.495   2.548  0.4675 -0.3866 -0.2908
  192MOL   C18546407   3.810   0.367   2.595 -0.0221 -0.1761  0.3697
  192MOL   C18646408   3.709   0.287   2.517 -0.6406 -0.3699 -0.1634
  192MOL   O18746409   3.875   0.321   2.682 -0.2437  0.3661  0.4888
  192MOL   H18846410   3.799   0.606   2.775  0.8138  0.6757  0.1511
  192MOL   H18946411   3.796   0.745   2.655 -1.4439  0.1215  0.5621
  192MOL   H19046412   4.004   0.525   2.635  0.8267  1.0276 -1.0380
  192MOL   H19146413   3.665   0.213   2.584 -2.2701 -1.1081 -1.9772
  192MOL   H19246414   3.756   0.236   2.433 -1.4281 -0.3241 -0.6431
  192MOL   H19346415   3.628   0.351   2.480 -1.1525 -0.2895  1.0675
  192MOL   C19446416   3.970   0.672   2.479  0.6847 -0.0012 -0.5617
  192MOL   C19546417   4.047   0.596   2.368  0.3834  1.0263 -0.4958
  192MOL   O19646418   4.077   0.694   2.274  0.0320 -0.2115 -0.7043
  192MOL   C19746419   4.007   0.705   2.164  0.2450  0.2458 -0.2792
  192MOL   C19846420   4.047   0.833   2.092 -0.6201 -0.4527 -0.0125
  192MOL   O19946421   3.912   0.635   2.121  0.5564 -0.3241 -0.6355
  192MOL   H20046422   3.874   0.712   2.445  1.3778  3.6213  1.4761
  192MOL   H20146423   4.010   0.769   2.508  0.2358  0.1106 -0.2990
  192MOL   H20246424   3.983   0.523   2.319  1.5875 -1.2875  1.2653
  192MOL   H20346425   4.005   0.911   2.155  3.7872  1.9417  0.1658
  192MOL   H20446426   4.016   0.833   1.988 -0.7668  1.6736  0.0241
  192MOL   H20546427   4.155   0.848   2.102 -0.6800 -0.8018  1.3695
  192MOL   C20646428   4.170   0.506   2.412  0.7758 -0.6224 -0.0045
  192MOL   C20746429   4.132   0.357   2.405  0.3831  0.8763 -0.9302
  192MOL   O20846430   4.145   0.317   2.263 -0.0415  0.6807 -0.1652
  192MOL   C20946431   4.039   0.273   2.199 -0.0179  0.0898  0.9699
  192MOL   C21046432   4.066   0.215   2.057  0.4067  0.0694  0.4180
  192MOL   O21146433   3.923   0.272   2.244 -0.3085  0.1891 -0.0298
  192MOL   H21246434   4.248   0.530   2.339  0.5722  1.7891  0.5206
  192MOL   H21346435   4.193   0.530   2.516  1.0143 -0.8829  0.0058
  192MOL   H21446436   4.034   0.346   2.450  0.7343  0.0296 -0.3671
  192MOL   H21546437   3.972   0.176   2.020  1.6196 -2.4574 -0.0765
  192MOL   H21646438   4.128   0.125   2.057  0.5906  0.1789 -0.9767
  192MOL   H21746439   4.105   0.281   1.979  2.9933 -0.7668  0.9357
  192MOL   C21846440   4.216   0.270   2.492  0.0058 -0.6409  0.1827
  192MOL   C21946441   4.192   0.122   2.477 -0.0459  0.8496  0.4887
  192MOL   O22046442   4.308   0.048   2.512 -0.1254  0.2229 -0.3788
  192MOL   C22146443   4.398   0.015   2.419 -0.3668 -0.5058  0.0438
  192MOL   C22246444   4.516   7.963   2.477  0.1792 -0.2486 -0.2976
  192MOL   O22346445   4.377   0.019   2.299  0.7466 -0.8139  0.1969
  192MOL   H22446446   4.320   0.301   2.479 -0.7656  2.0587  0.1422
  192MOL   H22546447   4.211   0.312   2.592  0.7597  1.2362 -0.5522
  192MOL   H22646448   4.174   0.105   2.371  1.3879  0.4380  0.3043
  192MOL   H22746449   4.497   7.888   2.554 -2.9250  0.2785 -0.4789
  192MOL   H22846450   4.580   0.017   2.524  3.3821 -1.6340 -2.3214
  192MOL   H22946451   4.570   7.924   2.391  0.5779 -0.2220 -0.0627
  192MOL   C23046452   4.071   0.075   2.553  0.6513  1.1220 -0.5537
  192MOL   C23146453   4.032   7.950   2.529  0.5443  0.0233  0.8047
  192MOL   O23246454   4.117   7.864   2.607 -0.1090  0.6714 -0.0414
  192MOL   C23346455   4.098   7.728   2.628  0.1675  0.3279  0.8130
  192MOL   C23446456   4.204   7.686   2.724 -0.2616  0.2379  0.7139
  192MOL   O23546457   4.017   7.661   2.571 -0.0993 -0.0592  0.1327
  192MOL   H23646458   4.090   0.091   2.659 -4.9995  0.0673  0.7762
  192MOL   H23746459   3.991   0.140   2.519 -0.2326 -1.3433 -3.3743
  192MOL   H23846460   4.055   7.932   2.424  2.2329  3.2593  0.5384
  192MOL   H23946461   4.147   7.646   2.808  0.9975 -2.1194  0.4896
  192MOL   H24046462   4.265   7.774   2.745  0.4866  0.2304 -1.3256
  192MOL   H24146463   4.258   7.611   2.665  1.8134  1.4303  1.0470
  192MOL   H24246464   3.927   7.945   2.559  0.2110 -0.9041 -0.4643
  193MOL     C146465   2.685   6.447   4.854  0.8990 -0.5524 -0.1024
  193MOL     C246466   2.717   6.483   4.695 -0.7263 -0.2760  0.1509
  193MOL     O346467   2.702   6.623   4.678  0.1382 -0.2900  0.2600
  193MOL     C446468   2.581   6.678   4.646 -0.1064 -0.4295 -0.0490
  193MOL     C546469   2.599   6.828   4.628 -0.4239 -0.4354  0.0069
  193MOL     O646470   2.469   6.626   4.634 -0.8354  0.4695  0.3323
  193MOL     H746471   2.723   6.349   4.882  0.7523 -1.1068 -1.7812
  193MOL     H846472   2.579   6.443   4.879  0.8789 -0.8199 -0.2304
  193MOL     H946473   2.653   6.427   4.627 -0.8775  1.2613 -0.9937
  193MOL    H1046474   2.583   6.857   4.524  1.5998 -0.2012 -0.2547
  193MOL    H1146475   2.707   6.840   4.636 -0.1185 -2.7881 -0.3937
  193MOL    H1246476   2.537   6.897   4.686 -0.2683  2.1748 -2.7661
  193MOL    H1346477   2.720   6.521   4.927 -0.0137  0.0185 -0.2387
  193MOL    C1446478   2.864   6.450   4.655  0.0323 -0.4803  0.1571
  193MOL    C1546479   2.893   6.435   4.505 -0.5223 -0.2634  0.4811
  193MOL    O1646480   2.881   6.559   4.434  0.1452  0.0965  0.0989
  193MOL    C1746481   2.818   6.569   4.307  0.4936  0.4173  0.2479
  193MOL    C1846482   2.796   6.712   4.256  0.0243 -0.4990  1.1158
  193MOL    O1946483   2.773   6.475   4.243 -0.6435 -0.0528 -0.3628
  193MOL    H2046484   2.943   6.507   4.702  0.9513 -1.1309 -0.5714
  193MOL    H2146485   2.867   6.351   4.700 -0.8130  0.0463  1.4014
  193MOL    H2246486   2.812   6.372   4.468 -1.2616 -0.6604  2.7068
  193MOL    H2346487   2.888   6.769   4.241 -0.6931  0.6707  1.1027
  193MOL    H2446488   2.729   6.773   4.315 -1.8923 -2.3169  0.8838
  193MOL    H2546489   2.742   6.718   4.161 -0.8715 -0.8073  1.6013
  193MOL    C2646490   3.033   6.378   4.490 -0.8049  0.1409 -0.3409
  193MOL    C2746491   3.036   6.254   4.402 -0.2646 -0.4879  0.2368
  193MOL    O2846492   3.024   6.272   4.261 -0.1183 -0.2523 -0.0273
  193MOL    C2946493   2.944   6.195   4.190 -0.5130 -0.7231  0.1081
  193MOL    C3046494   2.942   6.237   4.047  0.9823 -0.3513 -0.4374
  193MOL    O3146495   2.861   6.115   4.238  0.0190  0.4008 -0.2823
  193MOL    H3246496   3.096   6.459   4.453  1.9859 -0.6760  2.4703
  193MOL    H3346497   3.067   6.346   4.588 -1.3547 -0.5949 -0.3835
  193MOL    H3446498   2.966   6.176   4.431  1.1605 -1.4421  1.1540
  193MOL    H3546499   3.019   6.183   3.993 -0.2721  0.7979 -3.4675
  193MOL    H3646500   2.983   6.338   4.045 -1.2067  0.6042  1.2951
  193MOL    H3746501   2.847   6.225   3.995  0.7737  1.0265 -0.3931
  193MOL    C3846502   3.169   6.179   4.426 -0.1364  0.7104 -0.5002
  193MOL    C3946503   3.159   6.096   4.556  0.4651  0.5330 -0.6278
  193MOL    O4046504   3.081   5.976   4.527  0.6710  0.8203 -0.3282
  193MOL    C4146505   2.987   5.940   4.613 -0.0734  0.2503 -0.2662
  193MOL    C4246506   2.902   5.829   4.563  0.2545 -0.4100 -0.3194
  193MOL    O4346507   2.970   5.988   4.726 -0.0020  0.4410 -0.0124
  193MOL    H4446508   3.194   6.117   4.340  0.7404  0.7614 -0.2809
  193MOL    H4546509   3.251   6.250   4.422  1.2164 -0.8257 -0.6824
  193MOL    H4646510   3.108   6.158   4.629 -0.8140  1.3957 -2.2391
  193MOL    H4746511   2.796   5.853   4.551  0.6123  0.4825 -1.8977
  193MOL    H4846512   2.906   5.753   4.640 -1.1097 -0.4319 -0.2618
  193MOL    H4946513   2.941   5.807   4.463  0.5239  1.8212 -0.7460
  193MOL    C5046514   3.304   6.053   4.608  0.2477 -0.0353 -0.8834
  193MOL    C5146515   3.402   6.172   4.627  0.1420 -0.5584  0.4816
  193MOL    O5246516   3.333   6.293   4.676 -0.5263 -0.3432 -0.4739
  193MOL    C5346517   3.384   6.411   4.643 -0.6318 -1.0116 -0.7597
  193MOL    C5446518   3.294   6.526   4.671  0.2157 -0.2868  0.0709
  193MOL    O5546519   3.492   6.432   4.580 -0.2798 -0.4410  0.0629
  193MOL    H5646520   3.297   5.999   4.703 -0.9086  0.1652 -0.8515
  193MOL    H5746521   3.350   5.985   4.536  1.1949 -0.1630 -0.1683
  193MOL    H5846522   3.437   6.191   4.526 -1.9625  0.0713 -0.1704
  193MOL    H5946523   3.228   6.500   4.754  0.4679  0.5096  0.5333
  193MOL    H6046524   3.223   6.551   4.592  0.6959 -0.3460 -0.3835
  193MOL    H6146525   3.343   6.621   4.692 -2.8055  0.7693  2.8063
  193MOL    C6246526   3.525   6.148   4.713  0.1328  0.3104  0.1557
  193MOL    C6346527   3.596   6.010   4.701  0.6508 -0.0515  0.8820
  193MOL    O6446528   3.665   6.015   4.575 -0.0253 -0.4738  0.3748
  193MOL    C6546529   3.649   5.917   4.496  0.6799  0.4153  0.0628
  193MOL    C6646530   3.748   5.915   4.384  0.5501 -0.7660 -0.5901
  193MOL    O6746531   3.578   5.816   4.505  0.8471  0.1923 -0.3349
  193MOL    H6846532   3.589   6.234   4.694  0.4253  0.0971  0.1710
  193MOL    H6946533   3.498   6.163   4.818 -0.5674  0.9931 -0.1185
  193MOL    H7046534   3.518   5.934   4.695  1.2345 -0.6246  0.3845
  193MOL    H7146535   3.835   5.864   4.424 -1.2027 -1.1662  2.8684
  193MOL    H7246536   3.779   6.015   4.353  0.5167 -1.1454 -1.8700
  193MOL    H7346537   3.707   5.860   4.299  0.4048  0.4569 -1.3299
  193MOL    C7446538   3.699   5.981   4.809  0.3874  0.6075  0.8450
  193MOL    C7546539   3.633   5.959   4.954  1.2372  0.1141 -0.2335
  193MOL    O7646540   3.526   5.862   4.951 -0.4020  0.4241  0.0167
  193MOL    C7746541   3.406   5.884   5.007 -0.3744  0.5381  0.3850
  193MOL    C7846542   3.302   5.763   5.007 -0.2882 -0.5944  0.1070
  193MOL    O7946543   3.370   5.992   5.068  0.4667  0.1373 -0.3076
  193MOL    H8046544   3.755   5.892   4.783  0.1835  0.7351 -0.0527
  193MOL    H8146545   3.779   6.054   4.819  0.3307  0.9584 -1.1324
  193MOL    H8246546   3.588   6.058   4.961 -0.2357 -0.6554  1.6881
  193MOL    H8346547   3.209   5.807   5.043 -0.3276 -0.5617 -0.0329
  193MOL    H8446548   3.344   5.695   5.080  1.2139 -0.3799 -0.5332
  193MOL    H8546549   3.267   5.718   4.914 -2.9025 -1.4609  1.4639
  193MOL    C8646550   3.733   5.944   5.068  0.3774 -0.3517  0.1793
  193MOL    C8746551   3.680   5.956   5.213 -0.0777 -0.4997 -0.3213
  193MOL    O8846552   3.767   5.902   5.309 -0.3931 -0.7037 -0.2191
  193MOL    C8946553   3.735   5.788   5.376  0.0468 -0.6583  0.0662
  193MOL    C9046554   3.827   5.754   5.491  0.6419 -0.9108  0.6443
  193MOL    O9146555   3.651   5.701   5.342 -0.0578 -0.3682 -0.0952
  193MOL    H9246556   3.772   5.843   5.058  0.1535 -0.3617 -0.5943
  193MOL    H9346557   3.818   6.007   5.043  0.3887 -0.9508 -1.3387
  193MOL    H9446558   3.587   5.898   5.212 -0.6970  0.4886 -0.7540
  193MOL    H9546559   3.814   5.661   5.546  0.0461 -1.3484 -0.2332
  193MOL    H9646560   3.821   5.842   5.555  0.0026  0.3935 -1.1840
  193MOL    H9746561   3.924   5.732   5.447  0.8569  0.6477  0.2967
  193MOL    C9846562   3.635   6.098   5.251 -0.5039 -0.2081 -0.3647
  193MOL    C9946563   3.513   6.092   5.349 -0.0788  0.6195 -0.4434
  193MOL   O10046564   3.540   6.044   5.478 -0.3208  0.1817 -0.1169
  193MOL   C10146565   3.630   6.097   5.568  0.3408  0.3736 -0.6123
  193MOL   C10246566   3.627   6.023   5.702 -0.1920  0.0106  0.1177
  193MOL   O10346567   3.711   6.187   5.546  0.2004 -0.2568 -0.2945
  193MOL   H10446568   3.726   6.145   5.287  0.2384 -0.7807 -1.4980
  193MOL   H10546569   3.601   6.153   5.163  1.8670  0.3132 -0.9783
  193MOL   H10646570   3.440   6.025   5.303  1.7320 -1.4835 -0.3972
  193MOL   H10746571   3.520   6.004   5.717 -0.4474  0.3369 -1.2578
  193MOL   H10846572   3.659   6.104   5.767  0.4295 -0.3262  0.2362
  193MOL   H10946573   3.701   5.943   5.701 -1.7275 -1.4943  1.1833
  193MOL   C11046574   3.441   6.237   5.357 -0.2078  0.3733 -0.0681
  193MOL   C11146575   3.335   6.248   5.462  0.3824  0.0965  0.2831
  193MOL   O11246576   3.364   6.362   5.536 -0.4739  0.3853 -0.0572
  193MOL   C11346577   3.349   6.356   5.672  0.0316  0.1732  0.0834
  193MOL   C11446578   3.395   6.481   5.742 -0.2876  0.2490 -0.5982
  193MOL   O11546579   3.324   6.253   5.738 -0.4373  0.0945 -0.0026
  193MOL   H11646580   3.520   6.311   5.369 -1.7035  1.6671  1.9918
  193MOL   H11746581   3.394   6.261   5.261  0.7838 -0.9547 -0.9117
  193MOL   H11846582   3.341   6.159   5.525 -1.3942  0.0354  0.3800
  193MOL   H11946583   3.503   6.491   5.737 -0.3073  1.3736  0.6581
  193MOL   H12046584   3.370   6.470   5.848 -1.9191 -2.3045 -1.2124
  193MOL   H12146585   3.342   6.568   5.703 -1.7769 -1.0313 -1.4784
  193MOL   C12246586   3.194   6.243   5.404 -1.3006 -0.5264  0.2565
  193MOL   C12346587   3.071   6.232   5.503 -0.3560 -0.1644  0.6004
  193MOL   O12446588   2.956   6.261   5.423 -0.3835  0.2822 -0.1655
  193MOL   C12546589   2.909   6.388   5.420 -0.4472 -0.3782  1.0924
  193MOL   C12646590   2.788   6.405   5.338 -1.0149 -0.7981 -0.0399
  193MOL   O12746591   2.960   6.484   5.474 -0.0627  0.3072  0.3815
  193MOL   H12846592   3.177   6.331   5.342  1.8498 -0.3530 -0.4780
  193MOL   H12946593   3.186   6.162   5.331 -0.4703 -1.0962  0.7831
  193MOL   H13046594   3.084   6.313   5.575  0.8606 -1.3540  1.7492
  193MOL   H13146595   2.751   6.508   5.345  1.5100  0.2299 -1.1433
  193MOL   H13246596   2.705   6.355   5.387 -0.6825 -0.1733  1.1878
  193MOL   H13346597   2.797   6.380   5.232 -0.2929  1.8279 -0.6400
  193MOL   C13446598   3.053   6.093   5.568 -0.3881  0.4553 -0.2422
  193MOL   C13546599   2.927   6.087   5.657  0.3377 -0.1186  0.0722
  193MOL   O13646600   2.869   5.959   5.670 -0.3864 -0.0371 -0.4387
  193MOL   C13746601   2.777   5.912   5.586  0.0234 -0.0198  0.1805
  193MOL   C13846602   2.700   5.800   5.653  0.3323 -0.0177 -0.7667
  193MOL   O13946603   2.768   5.943   5.467 -0.5538 -0.3128  0.0154
  193MOL   H14046604   3.051   6.017   5.490  2.0771  0.6634 -0.5247
  193MOL   H14146605   3.136   6.060   5.630 -1.4191 -0.1262  0.8485
  193MOL   H14246606   2.854   6.157   5.617  0.6875  1.3491  1.8985
  193MOL   H14346607   2.601   5.844   5.656 -1.1737 -3.2352 -1.1077
  193MOL   H14446608   2.733   5.782   5.755 -3.6503 -4.1999 -0.0677
  193MOL   H14546609   2.700   5.706   5.598 -0.1646 -0.8179  0.5871
  193MOL   C14646610   2.950   6.137   5.804 -0.1004 -0.3682  0.0750
  193MOL   C14746611   2.820   6.142   5.887  0.1663  0.0588 -0.2878
  193MOL   O14846612   2.855   6.174   6.021 -0.7495 -0.3031 -0.7019
  193MOL   C14946613   2.811   6.113   6.132  0.3648  0.4552 -0.2068
  193MOL   C15046614   2.857   6.188   6.260 -0.2351  0.0076 -0.4009
  193MOL   O15146615   2.733   6.022   6.129 -0.1685  0.6008 -0.2145
  193MOL   H15246616   3.013   6.072   5.865  1.2341  0.8224 -0.0229
  193MOL   H15346617   3.006   6.230   5.801  0.0464 -0.4223  0.9166
  193MOL   H15446618   2.779   6.042   5.880 -1.2961  0.3579  3.1877
  193MOL   H15546619   2.777   6.158   6.328  2.0805 -4.2480  0.6197
  193MOL   H15646620   2.859   6.296   6.250  2.2248  0.2243  1.8678
  193MOL   H15746621   2.941   6.127   6.294 -2.0447 -2.7150 -0.7168
  193MOL   C15846622   2.705   6.236   5.843 -0.3003 -0.0876  0.1680
  193MOL   C15946623   2.724   6.385   5.875  0.3198 -0.3875  0.5503
  193MOL   O16046624   2.837   6.427   5.799  0.3355 -0.1451  0.1257
  193MOL   C16146625   2.919   6.520   5.848  0.4315 -0.2593 -0.9111
  193MOL   C16246626   3.023   6.577   5.748  0.1462 -0.0375  0.1825
  193MOL   O16346627   2.913   6.569   5.962 -0.1537 -0.3017  0.4615
  193MOL   H16446628   2.685   6.213   5.738  1.6699  0.6968 -0.4100
  193MOL   H16546629   2.614   6.203   5.893 -0.2340 -2.5809 -1.2530
  193MOL   H16646630   2.747   6.398   5.981  1.2586  0.6870  0.2220
  193MOL   H16746631   3.077   6.489   5.716  1.0305  0.6192 -0.1338
  193MOL   H16846632   3.096   6.642   5.797  0.3000 -2.3153  3.0975
  193MOL   H16946633   2.979   6.624   5.660 -0.1267  0.1863  0.4354
  193MOL   C17046634   2.603   6.471   5.835  0.3890  1.2320 -0.2370
  193MOL   C17146635   2.498   6.480   5.946  0.2471  0.0884  0.6350
  193MOL   O17246636   2.500   6.606   6.009 -0.3140 -0.0016 -0.5134
  193MOL   C17346637   2.558   6.625   6.126 -0.0026 -0.2513 -0.2927
  193MOL   C17446638   2.535   6.760   6.188 -0.1916 -0.4227 -0.1113
  193MOL   O17546639   2.624   6.539   6.184 -0.6048 -0.0967  0.4129
  193MOL   H17646640   2.637   6.570   5.806 -0.9708  2.2467  1.5587
  193MOL   H17746641   2.563   6.420   5.747  1.6963  0.3535 -0.3408
  193MOL   H17846642   2.519   6.406   6.023 -1.5532 -1.6330 -0.4846
  193MOL   H17946643   2.503   6.839   6.120  0.8986 -1.0727 -1.3871
  193MOL   H18046644   2.632   6.781   6.234 -1.5441 -0.9742  3.1574
  193MOL   H18146645   2.469   6.746   6.274 -1.1580  0.0756 -0.7622
  193MOL   C18246646   2.353   6.454   5.888 -0.4973  0.5907 -0.8409
  193MOL   C18346647   2.293   6.574   5.809 -0.1354  0.5708 -0.3548
  193MOL   O18446648   2.322   6.563   5.670 -0.4974  0.8359  0.8227
  193MOL   C18546649   2.388   6.660   5.608 -0.3580 -0.3482 -1.4355
  193MOL   C18646650   2.418   6.623   5.468  0.4787  0.5348  0.0908
  193MOL   O18746651   2.427   6.769   5.663  0.3366  0.0219 -0.1687
  193MOL   H18846652   2.347   6.369   5.819 -1.9961  1.0644 -1.2999
  193MOL   H18946653   2.294   6.442   5.978 -0.5287 -0.6323 -1.0129
  193MOL   H19046654   2.326   6.672   5.845  1.2199 -0.2915  0.7821
  193MOL   H19146655   2.351   6.655   5.387 -0.1457  1.3458  0.9137
  193MOL   H19246656   2.420   6.514   5.473  1.2659  0.4760 -1.2666
  193MOL   H19346657   2.522   6.648   5.449  0.7957 -1.0212 -0.2540
  193MOL   C19446658   2.134   6.575   5.807 -0.3875 -0.0811  0.0937
  193MOL   C19546659   2.078   6.620   5.943 -0.3575 -0.1637  0.1608
  193MOL   O19646660   2.126   6.749   5.965 -0.2371 -0.3372 -0.0199
  193MOL   C19746661   2.132   6.812   6.086 -0.3121  0.5975 -0.7478
  193MOL   C19846662   2.207   6.944   6.088 -0.2860  0.3091  0.7786
  193MOL   O19946663   2.082   6.770   6.186  0.0830 -0.1091 -0.6500
  193MOL   H20046664   2.104   6.649   5.733 -0.9391 -0.2577  0.1432
  193MOL   H20146665   2.091   6.476   5.793 -1.6920  0.4638  0.1969
  193MOL   H20246666   2.110   6.561   6.029  0.3967  1.1530  0.8091
  193MOL   H20346667   2.314   6.921   6.091 -0.6180 -1.2997  0.7480
  193MOL   H20446668   2.185   6.985   6.186  1.1012  0.2378  1.1365
  193MOL   H20546669   2.184   7.010   6.005 -0.1176  1.6425  1.7858
  193MOL   C20646670   1.921   6.631   5.937  0.5111 -0.0217  0.2541
  193MOL   C20746671   1.848   6.494   5.929 -0.1226 -1.0630 -0.0876
  193MOL   O20846672   1.893   6.393   6.018  0.7399 -0.2935  0.0736
  193MOL   C20946673   1.936   6.269   5.983 -0.3710  0.2815  0.0070
  193MOL   C21046674   1.953   6.176   6.104 -0.4042  0.0766  0.6470
  193MOL   O21146675   1.960   6.226   5.872  0.7166  0.3103 -0.0951
  193MOL   H21246676   1.887   6.673   6.032 -1.1597  0.0998 -0.3820
  193MOL   H21346677   1.882   6.700   5.862 -0.5896 -0.0758  0.7772
  193MOL   H21446678   1.886   6.457   5.834  1.9942  0.7693  0.0099
  193MOL   H21546679   1.961   6.075   6.065 -2.7831  0.8615 -2.0133
  193MOL   H21646680   1.868   6.188   6.172  0.2807 -0.4071  1.6125
  193MOL   H21746681   2.049   6.193   6.153  1.2506  0.1518 -2.5144
  193MOL   C21846682   1.685   6.508   5.921 -0.1679 -0.1827 -0.0982
  193MOL   C21946683   1.619   6.411   5.820  0.0511  0.3533 -0.5880
  193MOL   O22046684   1.627   6.278   5.872 -0.2414 -0.0082 -0.2524
  193MOL   C22146685   1.659   6.177   5.785  0.1647  0.2836 -0.9451
  193MOL   C22246686   1.679   6.045   5.854 -0.0653 -0.1029  0.2801
  193MOL   O22346687   1.668   6.188   5.661 -0.0847  0.0750  0.0196
  193MOL   H22446688   1.639   6.495   6.019  0.6781 -1.4902  0.1431
  193MOL   H22546689   1.659   6.610   5.895 -1.8479 -0.6549 -0.3340
  193MOL   H22646690   1.676   6.428   5.729  3.0803  1.3923  1.4376
  193MOL   H22746691   1.603   5.970   5.832 -0.2523  0.0350  0.4504
  193MOL   H22846692   1.683   6.063   5.961  0.9906 -1.8444  0.5308
  193MOL   H22946693   1.771   6.006   5.811  0.0794 -1.8194  2.0977
  193MOL   C23046694   1.468   6.439   5.801  0.1918 -0.5013  0.0439
  193MOL   C23146695   1.410   6.398   5.661 -0.5292  0.0040  0.3428
  193MOL   O23246696   1.278   6.450   5.638  0.3665 -0.4223  0.2808
  193MOL   C23346697   1.239   6.488   5.515 -0.3008  0.4329 -0.0861
  193MOL   C23446698   1.106   6.569   5.513  0.8711 -0.0469 -0.3396
  193MOL   O23546699   1.308   6.483   5.413 -0.5139 -0.0095 -0.0688
  193MOL   H23646700   1.400   6.403   5.879 -1.6085 -0.1284 -1.3056
  193MOL   H23746701   1.453   6.547   5.805 -0.5455 -0.6227  0.7286
  193MOL   H23846702   1.412   6.289   5.659  1.4559  0.0257 -0.4701
  193MOL   H23946703   1.029   6.527   5.578 -0.1374  0.4486 -1.1944
  193MOL   H24046704   1.068   6.569   5.411  0.7803  0.1938 -0.3045
  193MOL   H24146705   1.131   6.669   5.549  2.6222 -0.3350 -0.6823
  193MOL   H24246706   1.479   6.433   5.584 -0.7730  0.8822  0.5211
  194MOL     C146707   2.353   5.855   1.540  0.3791 -0.1364  0.6730
  194MOL     C246708   2.479   5.933   1.508 -0.4525 -0.0365  0.2775
  194MOL     O346709   2.588   5.879   1.579 -0.1121  0.0020  0.1992
  194MOL     C446710   2.686   5.959   1.626  0.4888  0.0104  0.1287
  194MOL     C546711   2.790   5.887   1.711 -0.3184  0.4130  0.0740
  194MOL     O646712   2.708   6.074   1.581  0.6469 -0.6585 -0.5793
  194MOL     H746713   2.378   5.749   1.542  0.9805  0.0197  1.4484
  194MOL     H846714   2.271   5.874   1.470 -0.0003 -2.2743  0.4966
  194MOL     H946715   2.460   6.031   1.550 -2.0126 -1.1346  2.2251
  194MOL    H1046716   2.867   5.956   1.748  0.0030 -0.1247  0.4067
  194MOL    H1146717   2.844   5.822   1.642  0.3766 -0.1067  1.1049
  194MOL    H1246718   2.744   5.829   1.790  1.3687  0.3602  1.0551
  194MOL    H1346719   2.306   5.895   1.629  0.1008  1.2210 -0.0647
  194MOL    C1446720   2.508   5.959   1.357  0.0991 -0.2637 -0.4651
  194MOL    C1546721   2.576   5.833   1.291  0.0540 -0.5351 -0.6885
  194MOL    O1646722   2.499   5.713   1.278  0.3750 -0.5805  0.2170
  194MOL    C1746723   2.397   5.687   1.199  0.2863 -0.7361  0.5575
  194MOL    C1846724   2.342   5.548   1.211  0.0048  0.5308  0.0795
  194MOL    O1946725   2.333   5.781   1.144  0.1724 -0.7984 -0.6459
  194MOL    H2046726   2.418   5.992   1.306  0.6281  0.6100 -0.8486
  194MOL    H2146727   2.576   6.043   1.347 -1.0755  1.0015  1.7914
  194MOL    H2246728   2.655   5.804   1.361 -0.8024  0.1589  0.5810
  194MOL    H2346729   2.421   5.475   1.227  0.6351  1.1031 -0.3774
  194MOL    H2446730   2.285   5.522   1.121  1.0186  0.1241 -0.4424
  194MOL    H2546731   2.278   5.546   1.299  0.3621  0.5238  0.3366
  194MOL    C2646732   2.653   5.868   1.163 -0.2027  0.0877 -0.2685
  194MOL    C2746733   2.800   5.910   1.195 -0.7434 -0.0133 -0.1077
  194MOL    O2846734   2.875   5.806   1.243  0.0684 -0.5112  0.0101
  194MOL    C2946735   2.986   5.827   1.318  0.1148 -0.3819  0.1862
  194MOL    C3046736   3.069   5.708   1.367  0.4965 -0.3216  0.3824
  194MOL    O3146737   3.027   5.939   1.346 -0.0203 -0.6872 -0.5586
  194MOL    H3246738   2.665   5.788   1.089 -0.2209  0.4565 -0.6765
  194MOL    H3346739   2.612   5.946   1.099  0.9495  0.6650 -0.3196
  194MOL    H3446740   2.800   5.984   1.275  0.8730 -0.1599  0.0377
  194MOL    H3546741   3.176   5.722   1.357  0.5660 -0.4123  1.0005
  194MOL    H3646742   3.047   5.616   1.313 -0.1215 -0.8379  1.4859
  194MOL    H3746743   3.060   5.706   1.475  0.9428 -1.0561  0.4053
  194MOL    C3846744   2.873   5.965   1.069  0.0720  0.2090 -0.7387
  194MOL    C3946745   2.853   6.120   1.043  0.2287 -0.3020  0.0613
  194MOL    O4046746   2.715   6.155   1.058 -0.6394 -0.1915  0.1614
  194MOL    C4146747   2.653   6.230   0.969  0.3478 -0.5061 -0.4197
  194MOL    C4246748   2.507   6.239   0.993 -0.0181  0.3097  0.2488
  194MOL    O4346749   2.703   6.290   0.873  0.5181 -0.3398 -0.2164
  194MOL    H4446750   2.978   5.936   1.075 -0.1905 -0.3513  2.1187
  194MOL    H4546751   2.826   5.910   0.987 -1.6076  1.5767 -0.7323
  194MOL    H4646752   2.881   6.132   0.938  1.8953  0.7804  0.6014
  194MOL    H4746753   2.470   6.140   1.020  0.0998  0.1720 -0.0826
  194MOL    H4846754   2.454   6.263   0.901 -1.1817 -0.9999  0.5717
  194MOL    H4946755   2.500   6.310   1.074 -1.4483  2.0136 -1.3353
  194MOL    C5046756   2.934   6.221   1.133  0.0316 -0.0647  0.5961
  194MOL    C5146757   3.088   6.205   1.147  0.1253 -0.7909  0.4408
  194MOL    O5246758   3.153   6.269   1.038 -0.0527  0.0238 -0.3607
  194MOL    C5346759   3.186   6.186   0.922  0.2626 -0.7575  0.0773
  194MOL    C5446760   3.231   6.271   0.808  0.0635  0.2038  0.7978
  194MOL    O5546761   3.179   6.062   0.919  0.6314  0.1785 -0.0393
  194MOL    H5646762   2.907   6.324   1.109  2.5899  1.1233  2.5591
  194MOL    H5746763   2.904   6.209   1.238 -1.2297  0.0254  0.2546
  194MOL    H5846764   3.103   6.097   1.146 -0.3107 -0.8919 -2.6539
  194MOL    H5946765   3.260   6.365   0.854 -1.0104  0.1629  1.5767
  194MOL    H6046766   3.152   6.296   0.737  0.1263  1.4230  1.1555
  194MOL    H6146767   3.307   6.213   0.755 -0.6568  0.1758 -0.2163
  194MOL    C6246768   3.130   6.261   1.280  0.3185  0.0320  0.2261
  194MOL    C6346769   3.271   6.237   1.308  0.2570 -0.6418  0.2832
  194MOL    O6446770   3.314   6.315   1.419  0.8825 -0.0045  0.3739
  194MOL    C6546771   3.335   6.440   1.404  0.3843 -0.5074 -0.7048
  194MOL    C6646772   3.394   6.498   1.526 -0.4824 -0.0144 -0.5480
  194MOL    O6746773   3.335   6.502   1.298  0.1008 -0.4924 -0.2147
  194MOL    H6846774   3.122   6.369   1.267 -0.4538  0.0419  0.7092
  194MOL    H6946775   3.077   6.229   1.370  0.0733  0.6150  0.2898
  194MOL    H7046776   3.328   6.260   1.218 -1.1486  0.5014 -0.3410
  194MOL    H7146777   3.488   6.449   1.551  0.0476  1.5203  0.5488
  194MOL    H7246778   3.329   6.471   1.609  1.3601  2.8400  1.9316
  194MOL    H7346779   3.392   6.607   1.525 -2.7818  0.0545  2.4920
  194MOL    C7446780   3.318   6.091   1.334 -0.0110 -0.0393  1.1001
  194MOL    C7546781   3.465   6.064   1.299 -0.1184  0.5148  0.3105
  194MOL    O7646782   3.475   6.054   1.162 -0.4794  0.1657 -0.4718
  194MOL    C7746783   3.450   5.937   1.097  0.4928  0.3293 -0.5101
  194MOL    C7846784   3.513   5.915   0.959  0.2028  0.3698 -0.8954
  194MOL    O7946785   3.393   5.838   1.146 -0.0320  0.2697 -0.1772
  194MOL    H8046786   3.304   6.054   1.436  1.7866 -0.5427  1.1795
  194MOL    H8146787   3.254   6.017   1.287 -1.5118  0.2318  2.6528
  194MOL    H8246788   3.494   5.969   1.342 -2.1528 -0.7319 -0.9951
  194MOL    H8346789   3.569   5.994   0.907  0.8464 -0.9202 -2.1990
  194MOL    H8446790   3.440   5.883   0.885 -2.3662  2.9176  0.4544
  194MOL    H8546791   3.577   5.827   0.967  0.2954  0.4142 -1.1394
  194MOL    C8646792   3.569   6.170   1.357 -0.6364  0.3446 -0.5453
  194MOL    C8746793   3.719   6.128   1.357  0.7463  0.1121  0.0314
  194MOL    O8846794   3.750   6.134   1.218  0.4259  0.2683 -0.0122
  194MOL    C8946795   3.823   6.037   1.161  0.1323 -0.0526  0.6007
  194MOL    C9046796   3.874   6.069   1.022  0.1205  0.1104 -0.0522
  194MOL    O9146797   3.866   5.937   1.215  0.2018  0.2805  0.7850
  194MOL    H9246798   3.559   6.255   1.289  0.9499  1.6149  0.7638
  194MOL    H9346799   3.550   6.209   1.457 -0.1177 -0.0263 -0.3055
  194MOL    H9446800   3.731   6.032   1.406 -1.5033  0.6288  1.6510
  194MOL    H9546801   3.904   6.173   1.009  1.3141  0.2289  3.0784
  194MOL    H9646802   3.811   6.048   0.936 -0.2844 -1.4119  0.5980
  194MOL    H9746803   3.962   6.007   1.006 -0.3615 -0.0712 -2.0583
  194MOL    C9846804   3.815   6.232   1.426  0.4644  1.1283  0.1092
  194MOL    C9946805   3.840   6.191   1.570  0.2209 -0.3767 -0.1902
  194MOL   O10046806   3.961   6.107   1.577 -0.1250 -0.1071 -0.3092
  194MOL   C10146807   3.961   5.988   1.653  0.0053  0.8210 -0.3932
  194MOL   C10246808   4.099   5.927   1.687 -0.1374  0.1053  0.2260
  194MOL   O10346809   3.858   5.945   1.710 -0.0149 -0.6762 -0.3046
  194MOL   H10446810   3.907   6.244   1.369  3.4126  1.1477  4.6512
  194MOL   H10546811   3.769   6.331   1.425 -2.2242 -0.0731  1.3324
  194MOL   H10646812   3.749   6.143   1.606 -1.1119  0.6372 -2.1203
  194MOL   H10746813   4.110   5.897   1.791 -2.2204  1.1383  0.7786
  194MOL   H10846814   4.174   5.999   1.654 -2.2179  1.1819 -2.3294
  194MOL   H10946815   4.116   5.836   1.630  2.4236  1.9378 -2.0971
  194MOL   C11046816   3.872   6.307   1.662 -0.2217  0.0291 -0.1430
  194MOL   C11146817   3.757   6.393   1.710 -0.0287 -0.3070 -0.2884
  194MOL   O11246818   3.688   6.334   1.821 -0.2910  0.1725 -0.5886
  194MOL   C11346819   3.576   6.265   1.811 -0.3968 -0.6279  0.3865
  194MOL   C11446820   3.515   6.227   1.942 -0.3983  0.0808  0.0015
  194MOL   O11546821   3.523   6.245   1.704  0.2747  0.2431  0.1478
  194MOL   H11646822   3.923   6.270   1.751 -0.2510  0.5063  0.0754
  194MOL   H11746823   3.942   6.369   1.607 -1.5932  2.0807  0.3797
  194MOL   H11846824   3.691   6.402   1.624 -0.0450 -0.2531 -0.2700
  194MOL   H11946825   3.408   6.214   1.933 -0.3624 -1.2745  1.3292
  194MOL   H12046826   3.531   6.309   2.012 -1.9116 -0.9965  1.6500
  194MOL   H12146827   3.553   6.133   1.981 -0.7170  1.4155  3.7896
  194MOL   C12246828   3.791   6.536   1.758  0.2746 -0.5600 -0.1335
  194MOL   C12346829   3.837   6.629   1.640  0.1549  0.3398  0.3771
  194MOL   O12446830   3.729   6.648   1.545 -0.0848 -0.2456 -0.7498
  194MOL   C12546831   3.756   6.678   1.421 -0.6002 -0.2114  0.0152
  194MOL   C12646832   3.633   6.682   1.329 -0.6654 -0.5800  0.2216
  194MOL   O12746833   3.869   6.700   1.376 -0.3543 -0.0976 -0.0231
  194MOL   H12846834   3.715   6.588   1.816  1.5942  0.9165  0.3285
  194MOL   H12946835   3.881   6.529   1.820  0.3787 -0.3565 -0.2599
  194MOL   H13046836   3.925   6.583   1.595  0.3090  0.3389  0.6828
  194MOL   H13146837   3.655   6.712   1.227  1.2020 -0.6242  0.5935
  194MOL   H13246838   3.552   6.745   1.367 -1.0884 -1.6349  1.1073
  194MOL   H13346839   3.610   6.575   1.330 -1.5130 -0.4152 -1.4391
  194MOL   C13446840   3.892   6.762   1.692  1.0962 -0.3728  0.3784
  194MOL   C13546841   4.035   6.777   1.750 -0.0411  0.2036 -0.2667
  194MOL   O13646842   4.134   6.783   1.647 -0.7170  0.1212 -0.5049
  194MOL   C13746843   4.187   6.672   1.615 -0.1067  0.2522  0.1707
  194MOL   C13846844   4.299   6.688   1.511 -1.0252  0.2248  0.1564
  194MOL   O13946845   4.164   6.565   1.668 -0.3381 -0.4845  0.6930
  194MOL   H14046846   3.874   6.833   1.611 -1.2408 -0.5971  0.6911
  194MOL   H14146847   3.825   6.799   1.769  0.0184  1.7260 -1.4775
  194MOL   H14246848   4.053   6.695   1.818 -1.0233 -1.5580 -2.0920
  194MOL   H14346849   4.288   6.770   1.441 -4.4710  1.3750  1.9411
  194MOL   H14446850   4.314   6.596   1.454  1.1566 -0.6198  1.9769
  194MOL   H14546851   4.399   6.692   1.555  0.3533 -3.1314 -2.4237
  194MOL   C14646852   4.058   6.905   1.832 -0.1273 -0.2559  0.2596
  194MOL   C14746853   3.965   6.939   1.946  0.1579 -0.0859 -0.3832
  194MOL   O14846854   4.010   6.910   2.079 -0.0796 -0.5243  0.5699
  194MOL   C14946855   4.038   6.784   2.110  0.2753 -0.4312 -0.9969
  194MOL   C15046856   4.107   6.780   2.244 -0.0742  0.6032  0.0797
  194MOL   O15146857   4.003   6.680   2.048 -0.0364  0.7560  0.2814
  194MOL   H15246858   4.159   6.927   1.867  0.6178  0.0634 -2.0612
  194MOL   H15346859   4.061   6.978   1.751 -0.1145 -0.3909  0.1396
  194MOL   H15446860   3.869   6.886   1.946 -0.5107  1.0106  2.6164
  194MOL   H15546861   4.210   6.812   2.230  0.4065 -0.9122  0.1409
  194MOL   H15646862   4.103   6.678   2.283 -1.4012  1.1950  1.5832
  194MOL   H15746863   4.082   6.849   2.325  4.0886 -0.1872  2.1881
  194MOL   C15846864   3.928   7.090   1.954 -0.7396  1.0603  0.0759
  194MOL   C15946865   3.859   7.146   1.833  0.4136  0.1973 -0.2277
  194MOL   O16046866   3.723   7.090   1.826  0.1265 -0.5821  0.3764
  194MOL   C16146867   3.671   7.066   1.702 -0.0790 -0.0501  0.5815
  194MOL   C16246868   3.519   7.042   1.700  0.2951 -0.6284  1.0323
  194MOL   O16346869   3.742   7.060   1.601  0.6674 -0.0700  0.0330
  194MOL   H16446870   3.855   7.095   2.035 -1.3848 -4.5401  0.0512
  194MOL   H16546871   4.020   7.144   1.976  1.1494 -2.0337  0.1443
  194MOL   H16646872   3.924   7.115   1.751  0.6631 -2.4493  0.8875
  194MOL   H16746873   3.477   7.130   1.651 -0.7746 -1.2338  0.8565
  194MOL   H16846874   3.479   7.047   1.801  1.8448 -2.1347  1.7492
  194MOL   H16946875   3.489   6.946   1.657 -0.5731 -0.3712  1.0668
  194MOL   C17046876   3.853   7.304   1.842  0.1342 -0.3762 -0.4625
  194MOL   C17146877   3.954   7.379   1.763  0.1617  0.2065 -0.0474
  194MOL   O17246878   4.075   7.330   1.806  0.2543  0.4081  0.0561
  194MOL   C17346879   4.173   7.418   1.848 -0.2496  0.6956 -0.0484
  194MOL   C17446880   4.271   7.342   1.944 -0.8376  0.6095 -0.5478
  194MOL   O17546881   4.180   7.537   1.834  0.5137 -0.2203 -0.6020
  194MOL   H17646882   3.753   7.338   1.811 -0.6383 -1.2862  0.9854
  194MOL   H17746883   3.851   7.346   1.942  1.1857 -0.9909 -0.1876
  194MOL   H17846884   3.951   7.486   1.786 -0.6649 -0.0679  1.1555
  194MOL   H17946885   4.314   7.410   2.018 -2.2609 -1.9186  2.7134
  194MOL   H18046886   4.344   7.304   1.873 -1.5926  1.5093 -1.8359
  194MOL   H18146887   4.227   7.257   1.996 -0.3124 -0.4172 -1.7550
  194MOL   C18246888   3.947   7.369   1.610 -0.5314  0.1708  0.5072
  194MOL   C18346889   3.840   7.450   1.538  0.2207 -0.2473 -0.0500
  194MOL   O18446890   3.876   7.589   1.548 -0.0110  0.2592 -0.3699
  194MOL   C18546891   3.804   7.667   1.629  0.4804 -0.7751  0.7009
  194MOL   C18646892   3.855   7.808   1.634  0.2402 -0.2466  0.0973
  194MOL   O18746893   3.704   7.634   1.698  0.7416 -0.0585 -0.1474
  194MOL   H18846894   4.041   7.415   1.577  0.4244 -2.1735 -0.0989
  194MOL   H18946895   3.954   7.265   1.580 -0.0071  0.3334  0.0584
  194MOL   H19046896   3.743   7.430   1.583 -0.4234 -0.9570 -1.7157
  194MOL   H19146897   3.964   7.805   1.640  0.3531  2.2361  0.1387
  194MOL   H19246898   3.811   7.851   1.724 -0.5481 -1.9929  0.5718
  194MOL   H19346899   3.826   7.863   1.544  0.7216  1.1499  0.7699
  194MOL   C19446900   3.822   7.415   1.387  0.0287 -0.4965  0.2393
  194MOL   C19546901   3.730   7.300   1.343  0.1930  0.0903 -0.8030
  194MOL   O19646902   3.596   7.321   1.377  0.2629 -0.6158  0.3156
  194MOL   C19746903   3.512   7.219   1.396 -0.1065  0.0344 -0.2888
  194MOL   C19846904   3.366   7.265   1.417  0.3050 -0.2792  0.3407
  194MOL   O19946905   3.545   7.101   1.376 -0.4118  0.2201 -0.4793
  194MOL   H20046906   3.791   7.507   1.337  0.4327  0.9184  2.5226
  194MOL   H20146907   3.921   7.402   1.344 -0.6447  1.3384 -1.9505
  194MOL   H20246908   3.771   7.217   1.402 -0.4355  1.4144  1.5621
  194MOL   H20346909   3.358   7.305   1.518 -0.8296  0.8125 -0.1797
  194MOL   H20446910   3.310   7.171   1.423 -1.1394  0.3312 -2.7016
  194MOL   H20546911   3.325   7.320   1.332  0.5093  0.4739  0.7271
  194MOL   C20646912   3.733   7.258   1.194  0.0154 -0.7459  0.4053
  194MOL   C20746913   3.870   7.236   1.141 -0.0129  0.1922  0.2794
  194MOL   O20846914   3.924   7.122   1.197 -0.0822 -1.0416  0.0545
  194MOL   C20946915   4.015   7.116   1.298 -0.3557  0.2734  0.2229
  194MOL   C21046916   4.059   6.976   1.345 -0.8377 -0.1637  0.5328
  194MOL   O21146917   4.076   7.210   1.347  0.4132  0.3744  0.3238
  194MOL   H21246918   3.674   7.173   1.161 -2.1648  1.6248 -2.1191
  194MOL   H21346919   3.691   7.342   1.138  1.3315 -1.1283 -1.1819
  194MOL   H21446920   3.938   7.320   1.157 -1.8778  1.5821  1.1344
  194MOL   H21546921   4.165   6.965   1.366 -0.8264  0.5822  0.8826
  194MOL   H21646922   4.019   6.903   1.275  1.2567 -1.3818  0.5547
  194MOL   H21746923   3.998   6.946   1.430 -0.3576  0.6969  1.1926
  194MOL   C21846924   3.860   7.212   0.992 -0.4069  0.2230  0.0143
  194MOL   C21946925   3.993   7.225   0.913 -0.0199  0.2882  0.3105
  194MOL   O22046926   4.098   7.142   0.973 -0.0348  0.1675  0.2243
  194MOL   C22146927   4.208   7.206   1.003 -0.0045  0.2266 -0.0303
  194MOL   C22246928   4.298   7.125   1.093  0.3070 -0.0393  0.0106
  194MOL   O22346929   4.249   7.320   0.966  0.6506  0.0254 -0.0959
  194MOL   H22446930   3.812   7.116   0.972  2.3389 -1.4682  1.2584
  194MOL   H22546931   3.792   7.286   0.951  0.7102  1.3428  0.1654
  194MOL   H22646932   4.023   7.330   0.921 -0.3553  0.4600 -0.6242
  194MOL   H22746933   4.338   7.180   1.177 -0.1415  0.1973  0.0716
  194MOL   H22846934   4.388   7.108   1.035  0.8645 -0.6523  1.0405
  194MOL   H22946935   4.247   7.034   1.128 -0.1806  0.9832  1.9996
  194MOL   C23046936   3.970   7.200   0.764 -0.6201 -0.2840 -0.2443
  194MOL   C23146937   4.075   7.272   0.676 -0.4085 -0.7478 -0.2705
  194MOL   O23246938   4.085   7.218   0.545  0.1462  0.1240  0.4880
  194MOL   C23346939   3.980   7.210   0.461  0.2471 -0.2887  0.4200
  194MOL   C23446940   4.021   7.158   0.323  0.0789 -0.0036 -0.0216
  194MOL   O23546941   3.866   7.252   0.494 -0.4761 -0.1216  0.2459
  194MOL   H23646942   3.956   7.095   0.741  1.3819 -0.7593  0.5985
  194MOL   H23746943   3.877   7.252   0.741 -0.1215  0.3847 -0.7870
  194MOL   H23846944   4.168   7.252   0.730  0.4361 -1.9149 -2.1026
  194MOL   H23946945   3.995   7.054   0.302  0.9275 -0.4862  1.2042
  194MOL   H24046946   4.125   7.187   0.307  0.1109 -0.5644 -0.8579
  194MOL   H24146947   3.966   7.211   0.246 -0.4098 -2.3204 -1.3204
  194MOL   H24246948   4.063   7.380   0.688  1.2423 -0.3627 -1.8856
  195MOL     C146949   1.779   3.279   3.678  0.6557 -0.5238  0.5858
  195MOL     C246950   1.636   3.284   3.740 -0.4018  0.7718 -0.2606
  195MOL     O346951   1.560   3.172   3.682 -0.1075 -0.0955  0.6167
  195MOL     C446952   1.445   3.186   3.636  0.2429 -0.2771  0.1955
  195MOL     C546953   1.382   3.058   3.582 -0.7567  0.1410  0.2318
  195MOL     O646954   1.383   3.290   3.641 -0.3359 -0.2312 -0.3450
  195MOL     H746955   1.776   3.345   3.591 -1.8121  2.2107  2.6262
  195MOL     H846956   1.821   3.180   3.663 -0.0939 -1.2273  2.9361
  195MOL     H946957   1.595   3.383   3.720 -2.0950  0.3169  0.8506
  195MOL    H1046958   1.456   3.005   3.522  1.9399  1.7778  2.0191
  195MOL    H1146959   1.283   3.070   3.538 -0.9642  2.8437  1.3348
  195MOL    H1246960   1.363   3.000   3.673 -0.7791 -0.7786 -0.3537
  195MOL    H1346961   1.844   3.331   3.748 -0.1259 -1.7637  2.2732
  195MOL    C1446962   1.646   3.263   3.892 -0.0387 -0.2465 -0.4289
  195MOL    C1546963   1.513   3.275   3.971 -0.3379 -0.0098  0.1851
  195MOL    O1646964   1.517   3.175   4.068 -0.4985 -0.3889  0.1666
  195MOL    C1746965   1.445   3.066   4.062  0.0547 -0.2632 -0.0560
  195MOL    C1846966   1.478   2.967   4.173  0.4190 -0.3685  0.3136
  195MOL    O1946967   1.359   3.046   3.987 -0.2754  0.3768 -0.1712
  195MOL    H2046968   1.691   3.167   3.916  0.8022 -0.0815 -1.3014
  195MOL    H2146969   1.714   3.334   3.939  0.6158 -0.3131 -1.2649
  195MOL    H2246970   1.429   3.252   3.905  0.9097 -1.8299 -0.8197
  195MOL    H2346971   1.560   2.903   4.141  0.4124 -0.5427  0.6447
  195MOL    H2446972   1.397   2.896   4.192  1.0768 -1.2683 -0.2137
  195MOL    H2546973   1.491   3.024   4.264  2.7773  0.0181 -0.2240
  195MOL    C2646974   1.502   3.407   4.043  0.2925 -0.2772 -0.2561
  195MOL    C2746975   1.496   3.533   3.961 -1.0319 -0.1761 -0.0338
  195MOL    O2846976   1.367   3.547   3.919  0.2780  0.7390  0.4041
  195MOL    C2946977   1.347   3.585   3.794 -0.2844 -0.0504  0.2472
  195MOL    C3046978   1.205   3.580   3.744 -0.6601  0.6002  0.3019
  195MOL    O3146979   1.435   3.614   3.713 -0.6530  0.4202  0.7046
  195MOL    H3246980   1.411   3.390   4.101  1.5857 -1.1425  1.5565
  195MOL    H3346981   1.588   3.401   4.110 -0.8811 -0.1223  1.2803
  195MOL    H3446982   1.561   3.520   3.875 -0.3424 -1.3560  0.6477
  195MOL    H3546983   1.195   3.597   3.636 -0.1831 -0.7712  0.0365
  195MOL    H3646984   1.140   3.654   3.791 -0.4678  1.3540 -0.5941
  195MOL    H3746985   1.155   3.487   3.771  1.7812 -1.0463 -0.6628
  195MOL    C3846986   1.542   3.655   4.047 -0.2066  0.0173  0.3226
  195MOL    C3946987   1.694   3.656   4.080  0.6539 -0.7066 -0.2922
  195MOL    O4046988   1.762   3.662   3.952  0.1165  0.1865 -0.2975
  195MOL    C4146989   1.871   3.581   3.933 -0.2330 -0.0697  0.5849
  195MOL    C4246990   1.909   3.585   3.785  0.0334  0.0512 -0.1830
  195MOL    O4346991   1.942   3.530   4.015  0.2484 -0.1011 -0.4518
  195MOL    H4446992   1.517   3.746   3.993 -2.7530 -1.0176 -0.2985
  195MOL    H4546993   1.486   3.669   4.139  0.6753 -1.2452  1.0780
  195MOL    H4646994   1.716   3.555   4.117 -1.3773 -1.5639 -1.3799
  195MOL    H4746995   1.810   3.591   3.739 -0.6859  0.3117  1.3764
  195MOL    H4846996   1.949   3.494   3.740  1.4919  0.2929  0.5972
  195MOL    H4946997   1.956   3.676   3.747 -2.1274  0.7142 -1.3479
  195MOL    C5046998   1.736   3.763   4.185  1.1696  0.1884 -0.6764
  195MOL    C5146999   1.678   3.905   4.166 -0.4958 -0.0134  0.5362
  195MOL    O5247000   1.695   3.979   4.291 -0.4492  0.1399 -0.0060
  195MOL    C5347001   1.593   3.977   4.383 -0.5447 -0.4284 -0.4843
  195MOL    C5447002   1.634   4.016   4.519  0.9274  0.6056 -0.4942
  195MOL    O5547003   1.478   3.939   4.358  0.4187 -0.5303  0.0412
  195MOL    H5647004   1.722   3.721   4.285 -0.9870  0.7063 -0.7430
  195MOL    H5747005   1.844   3.773   4.171  1.2767  1.8463  1.1264
  195MOL    H5847006   1.576   3.901   4.128 -0.9281  2.3538  1.3714
  195MOL    H5947007   1.588   4.110   4.549  2.3946  1.2857 -0.3436
  195MOL    H6047008   1.743   4.022   4.522  0.9186  0.5951  0.0439
  195MOL    H6147009   1.608   3.933   4.585  2.3264  1.5377  1.2980
  195MOL    C6247010   1.756   3.988   4.062  0.8479 -0.2356 -0.4312
  195MOL    C6347011   1.692   4.120   4.025  0.3739  0.3119  0.5964
  195MOL    O6447012   1.795   4.216   3.996  0.1813 -0.9230 -0.2720
  195MOL    C6547013   1.847   4.296   4.098  0.2981  0.7389  0.0228
  195MOL    C6647014   1.960   4.385   4.047 -0.4943  0.1735 -0.0549
  195MOL    O6747015   1.817   4.294   4.219 -0.3528  0.0042 -0.1060
  195MOL    H6847016   1.852   4.009   4.109  1.1399 -1.7928 -0.3157
  195MOL    H6947017   1.789   3.933   3.974 -0.5237 -1.7693 -0.0217
  195MOL    H7047018   1.641   4.151   4.117 -2.8684 -0.0211 -1.0137
  195MOL    H7147019   1.982   4.383   3.940  1.7701  1.3482  0.3486
  195MOL    H7247020   2.055   4.371   4.100 -1.7794 -0.7315  2.0814
  195MOL    H7347021   1.941   4.492   4.058  0.1935  0.0526  2.6902
  195MOL    C7447022   1.574   4.125   3.920 -0.4536  0.3218 -0.3357
  195MOL    C7547023   1.581   4.018   3.812  0.0734  0.2296 -0.9673
  195MOL    O7647024   1.463   4.014   3.722 -0.4491 -0.0310  0.6018
  195MOL    C7747025   1.357   3.956   3.755  0.1069  0.5217  0.3870
  195MOL    C7847026   1.242   3.979   3.657 -0.3763  0.8302 -0.4407
  195MOL    O7947027   1.338   3.884   3.853 -0.2104  0.2265 -0.6435
  195MOL    H8047028   1.480   4.120   3.974 -0.6166  2.8363 -0.3173
  195MOL    H8147029   1.577   4.227   3.881  1.4658  0.2746 -0.3907
  195MOL    H8247030   1.585   3.917   3.853 -1.0628 -0.1283 -1.7231
  195MOL    H8347031   1.205   3.889   3.610 -2.9821  2.2186 -1.1127
  195MOL    H8447032   1.273   4.050   3.580 -1.0352 -1.1016 -2.5231
  195MOL    H8547033   1.163   4.034   3.709  1.8975  3.2767  0.5544
  195MOL    C8647034   1.698   4.035   3.713 -0.1021  0.5854 -0.4910
  195MOL    C8747035   1.771   3.905   3.664  0.1898  0.9043  0.6306
  195MOL    O8847036   1.683   3.826   3.580  0.2229 -0.0860 -0.3077
  195MOL    C8947037   1.647   3.858   3.452  0.3938  0.6713  0.7802
  195MOL    C9047038   1.574   3.743   3.387  0.6021 -0.5560 -0.2256
  195MOL    O9147039   1.680   3.962   3.396  0.2009 -0.0405  0.2623
  195MOL    H9247040   1.688   4.105   3.631 -1.0381 -1.1945 -1.9286
  195MOL    H9347041   1.775   4.088   3.769 -0.0098 -0.5717  0.5098
  195MOL    H9447042   1.776   3.842   3.753  0.9866  1.1080  0.7283
  195MOL    H9547043   1.480   3.736   3.443  0.1236  2.1708 -0.6411
  195MOL    H9647044   1.631   3.651   3.400 -1.1650 -1.2723  2.9313
  195MOL    H9747045   1.557   3.772   3.283 -0.8417  1.7727  0.6301
  195MOL    C9847046   1.903   3.929   3.596  0.2383  0.3894 -0.3980
  195MOL    C9947047   2.011   3.993   3.688  0.4850  0.6512  0.1126
  195MOL   O10047048   2.043   3.897   3.787  0.7945  0.4537 -0.0926
  195MOL   C10147049   2.096   3.938   3.901 -0.7048  0.4503 -0.4944
  195MOL   C10247050   2.142   3.824   3.996  0.7060 -0.3631  0.5583
  195MOL   O10347051   2.110   4.060   3.933 -0.4059 -0.3157  0.6625
  195MOL   H10447052   1.949   3.835   3.565 -0.9151 -0.6392  0.9878
  195MOL   H10547053   1.893   3.994   3.509  2.5323  1.8263  0.3548
  195MOL   H10647054   1.980   4.090   3.725  0.2342  0.4937  0.3113
  195MOL   H10747055   2.164   3.739   3.931 -0.2303  0.5399 -0.9745
  195MOL   H10847056   2.074   3.819   4.080  0.9733 -3.0676  0.6418
  195MOL   H10947057   2.235   3.864   4.037  1.2989  0.8332 -1.8418
  195MOL   C11047058   2.144   4.024   3.609 -0.4755  0.5020  0.1662
  195MOL   C11147059   2.116   4.144   3.520 -0.5745 -0.2760  0.1568
  195MOL   O11247060   2.121   4.262   3.600  0.3170  0.4030 -0.0340
  195MOL   C11347061   2.009   4.337   3.611 -0.9015  0.6023 -0.2397
  195MOL   C11447062   2.024   4.461   3.695  0.5483 -0.3359 -0.0643
  195MOL   O11547063   1.894   4.311   3.562  0.2589  0.3169  0.8409
  195MOL   H11647064   2.232   4.038   3.671 -0.8034 -4.4040  1.9735
  195MOL   H11747065   2.159   3.936   3.545 -3.7897  0.3760 -0.5583
  195MOL   H11847066   2.020   4.128   3.471  0.0507 -0.2256 -1.1106
  195MOL   H11947067   2.125   4.450   3.735 -0.0939 -0.3277  1.5644
  195MOL   H12047068   1.966   4.467   3.787  0.5033  2.0048 -0.2074
  195MOL   H12147069   2.024   4.552   3.635  4.4393 -1.1629 -1.4483
  195MOL   C12247070   2.214   4.176   3.404  0.2542  0.8303 -0.1444
  195MOL   C12347071   2.206   4.086   3.279 -0.8078  0.4774 -0.3412
  195MOL   O12447072   2.269   3.964   3.298 -0.0886  0.1322  0.1922
  195MOL   C12547073   2.340   3.896   3.199 -0.2133 -0.4947  0.0065
  195MOL   C12647074   2.398   3.768   3.253  0.7647 -0.2192  0.2801
  195MOL   O12747075   2.354   3.924   3.079  0.2161  0.3795 -0.2357
  195MOL   H12847076   2.208   4.282   3.377 -0.8226  0.3223 -1.9471
  195MOL   H12947077   2.315   4.181   3.446 -0.7353 -0.8643  2.5727
  195MOL   H13047078   2.282   4.132   3.215  0.7100 -0.3119  0.8671
  195MOL   H13147079   2.490   3.787   3.309  0.0396  0.1041  1.3644
  195MOL   H13247080   2.427   3.694   3.177  0.2503 -0.6629  0.5103
  195MOL   H13347081   2.327   3.716   3.317  1.6498 -1.2545  0.4455
  195MOL   C13447082   2.066   4.078   3.214  0.7115 -0.4898  0.8961
  195MOL   C13547083   1.999   4.219   3.180 -0.5611 -0.0245 -0.2031
  195MOL   O13647084   2.021   4.235   3.043  0.5640  0.5845  0.0847
  195MOL   C13747085   2.116   4.333   2.999  0.1092  0.3773  0.3631
  195MOL   C13847086   2.113   4.330   2.847 -0.3990  0.0200 -0.2387
  195MOL   O13947087   2.188   4.407   3.069  0.8237  0.4447  0.4570
  195MOL   H14047088   2.060   4.021   3.121 -1.7312 -0.1571  0.8175
  195MOL   H14147089   2.004   4.020   3.282  0.3412 -0.7465  0.3341
  195MOL   H14247090   2.062   4.290   3.234 -0.7433  0.2883 -0.3976
  195MOL   H14347091   2.068   4.421   2.807 -0.2164  0.5153  0.6626
  195MOL   H14447092   2.054   4.252   2.798 -0.6137  2.2368 -3.6793
  195MOL   H14547093   2.210   4.308   2.803 -0.3424  2.0976 -1.2127
  195MOL   C14647094   1.857   4.218   3.234  0.5077  0.3102  0.0765
  195MOL   C14747095   1.769   4.341   3.199  0.0399 -0.2130 -0.6843
  195MOL   O14847096   1.644   4.307   3.271 -0.2426 -0.0846 -0.0229
  195MOL   C14947097   1.522   4.299   3.204  0.2785 -0.0515 -1.2201
  195MOL   C15047098   1.393   4.305   3.287  0.6594 -0.5356 -0.3425
  195MOL   O15147099   1.509   4.302   3.083  0.0999  0.0536 -0.1467
  195MOL   H15247100   1.805   4.133   3.189  1.2307 -0.7346  1.2068
  195MOL   H15347101   1.865   4.194   3.340  2.3029  0.0903 -0.0853
  195MOL   H15447102   1.754   4.338   3.091 -1.1572 -0.0088 -0.5331
  195MOL   H15547103   1.391   4.212   3.343 -0.3861  0.0120  0.5493
  195MOL   H15647104   1.306   4.323   3.223 -1.3074  1.5321  2.8003
  195MOL   H15747105   1.405   4.395   3.347 -3.2427 -1.0825  1.4314
  195MOL   C15847106   1.829   4.467   3.260 -0.2662  0.2310 -0.6252
  195MOL   C15947107   1.881   4.576   3.166  0.8514  0.0070 -0.1381
  195MOL   O16047108   1.759   4.626   3.110 -0.0931 -0.3150 -0.2564
  195MOL   C16147109   1.720   4.591   2.989 -0.4885  0.1333 -0.1618
  195MOL   C16247110   1.596   4.669   2.944  0.2430 -0.0130 -0.6327
  195MOL   O16347111   1.771   4.502   2.916 -0.5113  0.2406  0.5056
  195MOL   H16447112   1.761   4.517   3.328 -2.6440 -0.1421 -2.6591
  195MOL   H16547113   1.911   4.448   3.329 -0.9768  0.4009  0.2829
  195MOL   H16647114   1.943   4.541   3.083  1.0095 -0.3473  0.1264
  195MOL   H16747115   1.509   4.603   2.941  0.0267  0.2802 -0.8937
  195MOL   H16847116   1.609   4.712   2.844 -0.6613 -1.7645 -1.5194
  195MOL   H16947117   1.574   4.751   3.012  0.5304 -1.9431  1.8495
  195MOL   C17047118   1.967   4.679   3.240  0.5689 -0.5237  0.2082
  195MOL   C17147119   2.051   4.766   3.144 -0.2443 -0.5106 -0.2590
  195MOL   O17247120   2.019   4.903   3.167  0.0405 -0.8182  0.6214
  195MOL   C17347121   1.920   4.958   3.101 -0.7247  0.0207 -0.5672
  195MOL   C17447122   1.919   5.109   3.122  0.2445  0.2169 -0.0405
  195MOL   O17547123   1.842   4.898   3.033  0.6854  0.5514  0.3215
  195MOL   H17647124   1.914   4.744   3.310  2.3257  3.0978 -1.6823
  195MOL   H17747125   2.036   4.624   3.304  1.0380 -1.4797 -1.0947
  195MOL   H17847126   2.034   4.737   3.040 -1.9299 -1.8754  0.3763
  195MOL   H17947127   1.866   5.160   3.042  1.1314  1.3718  0.1027
  195MOL   H18047128   2.024   5.133   3.106  0.4243  0.3554  1.3385
  195MOL   H18147129   1.887   5.142   3.221  0.8569 -0.3819  0.3620
  195MOL   C18247130   2.203   4.760   3.183  0.2483  0.0887 -0.7523
  195MOL   C18347131   2.308   4.791   3.073  1.0397 -0.3383  0.3561
  195MOL   O18447132   2.308   4.934   3.057 -0.0509 -0.2931  0.4464
  195MOL   C18547133   2.268   4.988   2.936  0.1555 -0.1895  0.3811
  195MOL   C18647134   2.269   5.137   2.924 -0.2204 -0.0985 -0.2494
  195MOL   O18747135   2.236   4.922   2.838  0.1006  0.2189  0.0801
  195MOL   H18847136   2.219   4.808   3.279 -1.7951 -2.2053  0.7907
  195MOL   H18947137   2.225   4.656   3.204 -1.5210 -0.3967 -1.2435
  195MOL   H19047138   2.282   4.738   2.982 -2.2535 -1.4568  1.8764
  195MOL   H19147139   2.177   5.156   2.868  0.2427  1.0081 -0.6591
  195MOL   H19247140   2.350   5.158   2.855 -1.5517 -1.8994 -2.4221
  195MOL   H19347141   2.273   5.201   3.012  1.2512 -1.0765  0.4033
  195MOL   C19447142   2.454   4.739   3.104 -0.9647  0.2374  0.4914
  195MOL   C19547143   2.514   4.679   2.967  0.5564 -0.2347  0.2734
  195MOL   O19647144   2.657   4.677   2.984 -0.1262  0.5060  0.3486
  195MOL   C19747145   2.731   4.733   2.880  0.2665 -0.4322 -0.4482
  195MOL   C19847146   2.883   4.692   2.889  0.1689  0.3447 -0.2594
  195MOL   O19947147   2.689   4.795   2.781 -0.1405  0.3862 -0.0403
  195MOL   H20047148   2.503   4.832   3.133  0.7138 -0.8563  1.1966
  195MOL   H20147149   2.458   4.678   3.193 -1.4169  1.2811  1.2392
  195MOL   H20247150   2.478   4.736   2.881  0.4139  1.1274  1.2198
  195MOL   H20347151   2.917   4.630   2.805  1.1077 -0.7008  0.8599
  195MOL   H20447152   2.899   4.654   2.990 -1.6101  2.4364  0.8423
  195MOL   H20547153   2.941   4.784   2.885  0.4659  0.0922 -2.2045
  195MOL   C20647154   2.478   4.530   2.948 -0.7825  0.8232  0.2420
  195MOL   C20747155   2.539   4.456   2.829 -0.5484 -0.6969 -0.9593
  195MOL   O20847156   2.528   4.317   2.861  0.6225  0.0397 -0.2224
  195MOL   C20947157   2.626   4.224   2.841  0.2467  0.6181  0.0151
  195MOL   C21047158   2.590   4.097   2.913 -0.3622 -0.3062 -0.2708
  195MOL   O21147159   2.727   4.242   2.783 -0.2362 -0.3564 -0.3632
  195MOL   H21247160   2.498   4.473   3.039  1.1311  0.8475 -0.1436
  195MOL   H21347161   2.369   4.523   2.942 -0.9766  1.9497  1.9610
  195MOL   H21447162   2.643   4.491   2.837 -0.3786 -0.6030 -3.2647
  195MOL   H21547163   2.484   4.106   2.939  0.1333  0.3842  1.6611
  195MOL   H21647164   2.654   4.088   3.001 -0.7723  2.0902  0.3232
  195MOL   H21747165   2.575   4.012   2.847 -0.1560 -1.5540  1.2715
  195MOL   C21847166   2.460   4.496   2.691 -0.9663 -0.3627  0.4517
  195MOL   C21947167   2.511   4.439   2.554  0.0559  0.1528 -0.1437
  195MOL   O22047168   2.416   4.371   2.467  0.3237  1.0125 -0.0465
  195MOL   C22147169   2.392   4.231   2.480 -0.1674 -0.2691 -0.5070
  195MOL   C22247170   2.275   4.197   2.386 -0.1911 -0.2678  0.5970
  195MOL   O22347171   2.446   4.151   2.550  0.1979 -0.1656 -0.1014
  195MOL   H22447172   2.354   4.472   2.705 -0.8775  0.1113  2.1312
  195MOL   H22547173   2.480   4.603   2.696 -2.2529 -0.0700 -0.2963
  195MOL   H22647174   2.581   4.357   2.571 -0.6699 -0.7160 -1.2666
  195MOL   H22747175   2.305   4.215   2.283  3.3206 -0.9679  1.4359
  195MOL   H22847176   2.199   4.273   2.403 -1.6023 -0.9134 -2.4356
  195MOL   H22947177   2.238   4.095   2.396 -2.6218  0.4644 -0.4951
  195MOL   C23047178   2.588   4.548   2.476  0.3330 -1.6988  0.1380
  195MOL   C23147179   2.645   4.507   2.337 -0.4058  0.1504  0.8469
  195MOL   O23247180   2.715   4.612   2.274  0.2284  0.6723 -0.1215
  195MOL   C23347181   2.849   4.639   2.304 -0.3909  0.7795  0.2402
  195MOL   C23447182   2.904   4.745   2.207 -0.6485  0.3969 -0.6361
  195MOL   O23547183   2.925   4.583   2.385  0.4350 -0.2372 -0.5776
  195MOL   H23647184   2.529   4.636   2.451 -0.5873 -2.5588 -0.7577
  195MOL   H23747185   2.673   4.580   2.537  0.6921 -2.4627  0.0478
  195MOL   H23847186   2.559   4.493   2.272 -0.1047 -0.3175  0.5467
  195MOL   H23947187   2.865   4.841   2.241  0.4619  0.1771  1.3289
  195MOL   H24047188   2.855   4.711   2.115 -1.0762 -0.4761 -0.0876
  195MOL   H24147189   3.011   4.764   2.206 -0.6308  0.4050  0.7857
  195MOL   H24247190   2.695   4.411   2.331  0.5404  0.5938  1.5702
  196MOL     C147191   1.487   5.999   3.909 -0.8233 -0.0901  0.0757
  196MOL     C247192   1.593   5.911   3.965  0.3326 -1.0273  0.2304
  196MOL     O347193   1.637   5.986   4.082  0.4323 -0.3208 -0.5056
  196MOL     C447194   1.762   5.986   4.115 -0.7747 -0.6793 -0.2322
  196MOL     C547195   1.781   6.065   4.238  1.0290 -0.5276 -0.2476
  196MOL     O647196   1.851   5.928   4.056 -0.7839  0.2165  0.1998
  196MOL     H747197   1.517   6.103   3.918  1.2531 -0.7215  0.8666
  196MOL     H847198   1.398   5.980   3.968 -1.0425 -0.0059 -0.2289
  196MOL     H947199   1.672   5.912   3.890  0.7465 -1.2743  0.6598
  196MOL    H1047200   1.747   6.012   4.327  1.5742 -1.1876 -0.4239
  196MOL    H1147201   1.721   6.154   4.223 -0.0261 -1.2367 -0.2483
  196MOL    H1247202   1.882   6.102   4.257 -0.5514  3.0960  1.5089
  196MOL    H1347203   1.476   5.977   3.803 -1.0822 -1.2221  0.3339
  196MOL    C1447204   1.536   5.772   3.998 -0.1482  0.3124 -1.2053
  196MOL    C1547205   1.436   5.703   3.894 -0.3693 -0.5107 -0.2998
  196MOL    O1647206   1.513   5.652   3.786  0.5003  0.1437 -0.3200
  196MOL    C1747207   1.476   5.675   3.659  0.5473 -0.3282  0.2058
  196MOL    C1847208   1.553   5.597   3.556  0.5413  0.1987 -0.8290
  196MOL    O1947209   1.369   5.729   3.625  0.1652  0.4464  0.1693
  196MOL    H2047210   1.623   5.708   4.018 -0.2051  0.7737  0.5368
  196MOL    H2147211   1.488   5.769   4.095  1.9780  3.8916  0.0241
  196MOL    H2247212   1.353   5.767   3.863 -0.0441  0.1006  0.0843
  196MOL    H2347213   1.516   5.495   3.544  1.0735 -0.1796  0.6236
  196MOL    H2447214   1.660   5.600   3.580  0.1672 -0.4220  0.9792
  196MOL    H2547215   1.536   5.651   3.463 -1.8090  2.9606  1.1542
  196MOL    C2647216   1.373   5.575   3.951 -0.0168 -0.0008  0.6876
  196MOL    C2747217   1.258   5.509   3.870  0.2308  0.1536 -0.6582
  196MOL    O2847218   1.310   5.413   3.778  0.0609  0.0095 -0.3343
  196MOL    C2947219   1.372   5.301   3.822  0.1271  0.5402  0.3416
  196MOL    C3047220   1.426   5.219   3.703  1.0563  0.2752 -0.5094
  196MOL    O3147221   1.394   5.261   3.936  0.0715  0.0401 -0.1920
  196MOL    H3247222   1.446   5.497   3.973 -0.8754 -1.2169 -0.6887
  196MOL    H3347223   1.325   5.608   4.043 -1.1899 -0.2441  0.1672
  196MOL    H3447224   1.201   5.585   3.816  1.4754  0.2210 -1.9060
  196MOL    H3547225   1.533   5.214   3.683  1.0540  0.8955 -0.6791
  196MOL    H3647226   1.371   5.228   3.610 -1.6681 -0.7271  0.9566
  196MOL    H3747227   1.408   5.118   3.741  0.1734  0.7833  0.4311
  196MOL    C3847228   1.144   5.451   3.957 -0.4729  0.0085 -0.2434
  196MOL    C3947229   1.043   5.550   4.013  0.5836 -0.1285  0.5667
  196MOL    O4047230   0.994   5.639   3.910 -0.6622  0.2823  0.2454
  196MOL    C4147231   1.024   5.769   3.913  0.2416  0.1813  0.4416
  196MOL    C4247232   0.935   5.858   3.824  0.4306  0.1219 -0.0499
  196MOL    O4347233   1.113   5.821   3.981  0.4020 -0.6853  0.0978
  196MOL    H4447234   1.091   5.367   3.915  0.5396 -1.3103  1.0612
  196MOL    H4547235   1.190   5.410   4.047 -0.0074 -0.3599 -0.6467
  196MOL    H4647236   1.068   5.601   4.106  0.5268  1.4515 -0.2578
  196MOL    H4747237   0.830   5.831   3.842  0.3487  0.8487  0.6018
  196MOL    H4847238   0.963   5.841   3.720 -0.3919 -0.2009 -0.2256
  196MOL    H4947239   0.947   5.964   3.846  0.0235 -0.1993  1.8253
  196MOL    C5047240   0.909   5.487   4.066  0.4510 -0.4109 -0.5692
  196MOL    C5147241   0.916   5.407   4.201  0.0697  0.6394  0.5275
  196MOL    O5247242   0.892   5.488   4.312 -0.3520  0.0897 -0.1842
  196MOL    C5347243   0.992   5.561   4.365  0.6022 -1.3529 -0.0678
  196MOL    C5447244   0.940   5.663   4.466 -0.0714  0.1341 -0.7500
  196MOL    O5547245   1.111   5.564   4.327 -0.2244  0.6825 -0.3874
  196MOL    H5647246   0.843   5.572   4.080  0.5489 -0.4433  0.0971
  196MOL    H5747247   0.852   5.429   3.993  0.3981 -1.0100 -0.0547
  196MOL    H5847248   1.014   5.359   4.212 -0.9219 -1.5710 -0.1950
  196MOL    H5947249   0.979   5.763   4.446  1.4791 -0.0009  1.3934
  196MOL    H6047250   0.966   5.622   4.564  1.6419  2.3871 -0.2197
  196MOL    H6147251   0.831   5.661   4.461 -0.1393  1.4851 -0.0563
  196MOL    C6247252   0.800   5.308   4.209  0.0339  0.8435  0.0446
  196MOL    C6347253   0.801   5.200   4.326  0.6469 -1.4930  0.0885
  196MOL    O6447254   0.672   5.142   4.324 -0.5213 -0.3008 -0.2120
  196MOL    C6547255   0.605   5.123   4.445 -0.1924 -0.5737  0.2172
  196MOL    C6647256   0.480   5.045   4.429  0.2412 -0.3763 -0.2039
  196MOL    O6747257   0.636   5.165   4.554  0.6117 -0.3421  0.0885
  196MOL    H6847258   0.716   5.376   4.223  1.5027  2.8037 -0.3436
  196MOL    H6947259   0.800   5.249   4.118  3.8769  0.3091  0.2929
  196MOL    H7047260   0.815   5.254   4.419  1.2950  0.0369 -0.8858
  196MOL    H7147261   0.409   5.112   4.381 -1.5137 -3.3346 -1.8791
  196MOL    H7247262   0.431   5.016   4.522 -2.1322  0.1567 -1.2564
  196MOL    H7347263   0.498   4.960   4.364  0.1747  0.1018 -0.8515
  196MOL    C7447264   0.919   5.109   4.309  0.5642  0.2921 -0.8712
  196MOL    C7547265   1.033   5.141   4.405  0.0263  0.0543  0.6706
  196MOL    O7647266   0.995   5.105   4.540  0.3683 -0.4093 -0.3908
  196MOL    C7747267   0.965   5.194   4.626  0.1579  0.7719  0.1652
  196MOL    C7847268   0.898   5.132   4.749 -0.2435 -0.1341 -0.5020
  196MOL    O7947269   0.977   5.316   4.618  0.2979 -0.3948 -0.6258
  196MOL    H8047270   0.890   5.007   4.333 -2.0467  1.1307 -0.3253
  196MOL    H8147271   0.956   5.119   4.207 -0.9278  3.3835 -1.1454
  196MOL    H8247272   1.070   5.243   4.395  0.3060 -0.1080  0.0540
  196MOL    H8347273   0.790   5.116   4.747 -0.3058  0.1713  0.2418
  196MOL    H8447274   0.912   5.202   4.832  2.1085 -1.3406  0.1782
  196MOL    H8547275   0.929   5.029   4.764 -0.3361 -0.2443 -1.0503
  196MOL    C8647276   1.155   5.047   4.374  0.3975  0.1652  0.3552
  196MOL    C8747277   1.283   5.090   4.450 -0.0579 -0.3651  0.0403
  196MOL    O8847278   1.280   5.017   4.568 -0.4011  0.4140 -0.3168
  196MOL    C8947279   1.310   5.081   4.688 -0.1909 -0.1681  0.1792
  196MOL    C9047280   1.294   4.984   4.800 -0.0522 -0.1042 -0.0832
  196MOL    O9147281   1.348   5.196   4.703  0.2072  0.1822 -0.2448
  196MOL    H9247282   1.119   4.949   4.405 -1.9716  0.5345 -1.1065
  196MOL    H9347283   1.168   5.045   4.266  1.5265  2.9814  0.3846
  196MOL    H9447284   1.283   5.196   4.478  1.7372  0.1968 -1.9400
  196MOL    H9547285   1.238   4.897   4.765 -0.5902  0.5748 -0.9348
  196MOL    H9647286   1.244   5.017   4.891 -1.2355  1.1888 -1.1849
  196MOL    H9747287   1.395   4.959   4.834  0.3527 -1.4877 -2.1791
  196MOL    C9847288   1.413   5.056   4.372  0.3240 -0.8358  0.7710
  196MOL    C9947289   1.435   5.129   4.236  0.5944  0.5076 -0.3580
  196MOL   O10047290   1.473   5.270   4.266  0.2987  0.7059 -0.4657
  196MOL   C10147291   1.378   5.360   4.275  0.8315 -0.1864  0.6298
  196MOL   C10247292   1.442   5.502   4.291 -0.1203 -0.0000  0.2842
  196MOL   O10347293   1.257   5.335   4.261 -0.0211  0.3005 -0.0140
  196MOL   H10447294   1.494   5.071   4.443 -0.8826 -1.5084  2.3166
  196MOL   H10547295   1.419   4.951   4.342 -0.6658 -0.0334 -2.4237
  196MOL   H10647296   1.346   5.120   4.174  0.3572 -1.1546  0.2102
  196MOL   H10747297   1.370   5.576   4.255 -0.3357 -0.0768  0.5544
  196MOL   H10847298   1.537   5.507   4.238  0.1690  0.4318  0.8445
  196MOL   H10947299   1.454   5.514   4.399 -0.9378  0.1819  0.3595
  196MOL   C11047300   1.556   5.079   4.154 -0.0085  0.3091  0.3663
  196MOL   C11147301   1.523   4.947   4.082  0.1754 -0.6758  0.1721
  196MOL   O11247302   1.419   4.967   3.992  0.8389 -0.3783  0.0568
  196MOL   C11347303   1.294   4.921   4.009 -0.6192 -0.4000  0.0317
  196MOL   C11447304   1.190   4.970   3.908 -0.1915  1.4605 -0.0715
  196MOL   O11547305   1.260   4.833   4.089 -0.0917 -0.1076  0.0545
  196MOL   H11647306   1.595   5.159   4.091  0.2657  1.2511  1.6917
  196MOL   H11747307   1.641   5.061   4.219  0.1902  1.7586  0.5214
  196MOL   H11847308   1.481   4.871   4.147  0.5140  0.3177  1.5593
  196MOL   H11947309   1.181   4.883   3.843 -2.1505  1.9997 -0.5729
  196MOL   H12047310   1.227   5.054   3.849 -2.6683  1.3240 -1.8780
  196MOL   H12147311   1.095   4.999   3.953 -0.0984  0.1193  1.0081
  196MOL   C12247312   1.645   4.898   4.006  0.1407  0.1835  0.0827
  196MOL   C12347313   1.623   4.757   3.935  0.1886 -0.5964 -0.0708
  196MOL   O12447314   1.721   4.720   3.839  0.0830  0.0846 -0.6476
  196MOL   C12547315   1.720   4.779   3.717  0.4012 -0.1262 -0.4204
  196MOL   C12647316   1.803   4.711   3.612 -0.3075  0.6360  0.3486
  196MOL   O12747317   1.662   4.883   3.690  0.1666  0.1243  0.4749
  196MOL   H12847318   1.668   4.976   3.934 -3.4218  2.6827  1.4902
  196MOL   H12947319   1.736   4.901   4.065  1.9403  1.0706 -2.6361
  196MOL   H13047320   1.531   4.768   3.879  0.2254  0.1221  0.0119
  196MOL   H13147321   1.910   4.724   3.626 -0.1336 -0.2747 -0.0816
  196MOL   H13247322   1.781   4.746   3.512 -1.9255  0.7533  0.7268
  196MOL   H13347323   1.785   4.604   3.605  2.1234  0.3419 -2.0615
  196MOL   C13447324   1.611   4.640   4.029  0.0341 -0.1423 -0.2652
  196MOL   C13547325   1.488   4.549   4.021 -0.8477 -0.3217 -0.3844
  196MOL   O13647326   1.493   4.494   3.888 -0.4176 -0.0135  0.1455
  196MOL   C13747327   1.407   4.529   3.791  0.0564 -0.1259  0.0299
  196MOL   C13847328   1.425   4.461   3.659  0.2083 -0.0411  0.4172
  196MOL   O13947329   1.325   4.614   3.804 -0.4670 -0.3430 -0.0786
  196MOL   H14047330   1.701   4.578   4.031  0.9667  1.1898 -0.3341
  196MOL   H14147331   1.620   4.674   4.132  0.2426 -0.2332 -0.2521
  196MOL   H14247332   1.397   4.608   4.036 -0.4589  0.1110  0.2506
  196MOL   H14347333   1.532   4.459   3.640 -0.3564 -1.5795 -2.9624
  196MOL   H14447334   1.380   4.509   3.572  0.9515  0.9663  0.5840
  196MOL   H14547335   1.385   4.360   3.669  1.0009 -0.6495 -2.0212
  196MOL   C14647336   1.482   4.437   4.122  0.3723 -0.3975 -0.4330
  196MOL   C14747337   1.463   4.476   4.272  0.3156 -0.4735  0.3519
  196MOL   O14847338   1.338   4.527   4.290 -0.0857 -0.2600 -0.1742
  196MOL   C14947339   1.319   4.647   4.342  0.0244 -0.4802 -0.1828
  196MOL   C15047340   1.173   4.672   4.375  0.3781  0.1053 -0.4064
  196MOL   O15147341   1.405   4.729   4.372  0.5368  0.5731 -0.1632
  196MOL   H15247342   1.392   4.384   4.092  0.2225  0.2846 -1.1998
  196MOL   H15347343   1.558   4.361   4.106  0.3511 -0.4107 -0.4721
  196MOL   H15447344   1.541   4.548   4.296  1.3600 -0.9189 -1.5700
  196MOL   H15547345   1.110   4.584   4.377  0.8962 -0.2429  1.1285
  196MOL   H15647346   1.148   4.730   4.285 -0.2919  0.2386 -0.1424
  196MOL   H15747347   1.165   4.738   4.461  0.8205 -0.1364 -0.1821
  196MOL   C15847348   1.502   4.363   4.358 -0.3946 -0.5663 -0.3414
  196MOL   C15947349   1.520   4.392   4.510 -0.3914 -0.4433 -0.3239
  196MOL   O16047350   1.441   4.311   4.595  0.3209 -0.0374 -0.0596
  196MOL   C16147351   1.344   4.366   4.670 -0.5181 -0.9689  1.2408
  196MOL   C16247352   1.271   4.252   4.745  0.5079  0.3462 -0.1108
  196MOL   O16347353   1.299   4.480   4.669  0.1948  0.2390 -0.0715
  196MOL   H16447354   1.431   4.282   4.343 -1.2446  0.1042 -0.0122
  196MOL   H16547355   1.597   4.333   4.313 -0.5483 -2.1984  0.3838
  196MOL   H16647356   1.489   4.495   4.524  3.2093  0.8242 -1.2464
  196MOL   H16747357   1.277   4.154   4.698  1.6881  0.1479  0.4260
  196MOL   H16847358   1.164   4.270   4.753  0.5191  0.2536  0.2503
  196MOL   H16947359   1.307   4.240   4.847  1.0971  0.3699 -0.3096
  196MOL   C17047360   1.664   4.401   4.573  0.3397 -0.4661 -0.2719
  196MOL   C17147361   1.758   4.505   4.514 -0.1593  0.3505  0.0457
  196MOL   O17247362   1.705   4.634   4.542 -0.2747 -0.0101 -0.3752
  196MOL   C17347363   1.696   4.727   4.460 -1.1475  0.2334  0.3005
  196MOL   C17447364   1.632   4.852   4.524 -0.1666 -0.0027  0.6836
  196MOL   O17547365   1.745   4.727   4.350 -0.4424  0.0352  0.7139
  196MOL   H17647366   1.658   4.408   4.682 -2.5203 -2.3498 -0.2586
  196MOL   H17747367   1.705   4.300   4.566  0.4592 -0.2723 -2.9020
  196MOL   H17847368   1.767   4.480   4.408  1.0663  1.0432 -0.0221
  196MOL   H17947369   1.695   4.924   4.577  0.4575  0.5606 -0.8051
  196MOL   H18047370   1.544   4.826   4.583 -1.0158 -2.5999 -1.6362
  196MOL   H18147371   1.601   4.910   4.437  1.2312  0.6023  0.5758
  196MOL   C18247372   1.907   4.489   4.574  0.6500 -0.4737 -0.2899
  196MOL   C18347373   2.030   4.497   4.480  0.4197 -0.1869  0.2325
  196MOL   O18447374   2.056   4.626   4.416  0.0933 -0.1256  0.6644
  196MOL   C18547375   2.095   4.639   4.299 -0.3777  0.1999  0.3032
  196MOL   C18647376   2.088   4.782   4.251 -0.1541 -0.3747 -0.1612
  196MOL   O18747377   2.127   4.551   4.219 -0.3765 -0.3110 -0.1606
  196MOL   H18847378   1.925   4.556   4.658 -3.6985  1.1519 -0.4800
  196MOL   H18947379   1.915   4.392   4.623  0.4193 -0.4223 -0.1498
  196MOL   H19047380   2.023   4.418   4.405 -3.2666  0.1484  0.1473
  196MOL   H19147381   2.148   4.845   4.316 -0.6686 -0.1655  0.1095
  196MOL   H19247382   1.984   4.812   4.238 -0.7856 -2.0951  0.7078
  196MOL   H19347383   2.122   4.800   4.149  0.4127  0.5479  0.1838
  196MOL   C19447384   2.153   4.460   4.567 -0.0940 -0.3786  0.5642
  196MOL   C19547385   2.168   4.313   4.629  0.1948  0.8637  0.5768
  196MOL   O19647386   2.182   4.217   4.518  0.7041  0.0756 -0.2137
  196MOL   C19747387   2.064   4.151   4.479 -0.8862  0.5067  1.1067
  196MOL   C19847388   2.094   4.047   4.371  0.4916 -0.0288 -0.4906
  196MOL   O19947389   1.955   4.164   4.528  0.1924  0.2073  0.3656
  196MOL   H20047390   2.244   4.486   4.513 -0.2438 -0.6464  0.1850
  196MOL   H20147391   2.149   4.532   4.649  1.7573 -0.2948  0.6112
  196MOL   H20247392   2.078   4.292   4.686 -0.3768 -0.3282 -0.7330
  196MOL   H20347393   2.136   3.956   4.414 -1.2225 -0.4809  0.2937
  196MOL   H20447394   2.154   4.094   4.293 -0.5502 -0.5410 -1.6254
  196MOL   H20547395   2.001   4.012   4.326  1.4810 -0.8553 -1.9555
  196MOL   C20647396   2.293   4.310   4.720 -0.5063 -0.3271 -0.2464
  196MOL   C20747397   2.322   4.177   4.780 -0.5230 -0.6051 -0.1633
  196MOL   O20847398   2.454   4.172   4.844 -0.5009 -0.4702 -0.1913
  196MOL   C20947399   2.566   4.132   4.772 -0.2907  0.7921  0.1707
  196MOL   C21047400   2.695   4.160   4.844  0.3549  0.2913 -0.4275
  196MOL   O21147401   2.559   4.107   4.652 -0.2088  0.2107  0.1026
  196MOL   H21247402   2.371   4.356   4.659 -0.6215  0.3879  0.1423
  196MOL   H21347403   2.303   4.380   4.802  3.8747  0.7989 -1.5576
  196MOL   H21447404   2.316   4.091   4.714 -1.9529 -1.6698  1.3228
  196MOL   H21547405   2.754   4.202   4.762 -1.2731  1.0420 -1.2395
  196MOL   H21647406   2.741   4.072   4.888  0.0126 -1.0593 -2.6997
  196MOL   H21747407   2.690   4.236   4.922  2.4500 -0.8537  0.8464
  196MOL   C21847408   2.213   4.132   4.884 -0.4995 -0.2534  0.6002
  196MOL   C21947409   2.250   3.991   4.955  0.0161 -0.0764 -0.1409
  196MOL   O22047410   2.174   3.975   5.076  0.2230 -0.5194  0.6333
  196MOL   C22147411   2.212   4.056   5.182  0.1258 -0.2318  0.1775
  196MOL   C22247412   2.134   4.033   5.302 -0.1673  0.0756 -0.3904
  196MOL   O22347413   2.311   4.128   5.183 -0.4413  0.0163  0.3884
  196MOL   H22447414   2.197   4.210   4.959  0.8087 -0.3141  0.9634
  196MOL   H22547415   2.117   4.118   4.834  0.4220  1.5337 -1.7193
  196MOL   H22647416   2.356   3.985   4.982 -0.3536  1.4077  1.7160
  196MOL   H22747417   2.048   4.100   5.306 -0.4127 -0.3152  1.1093
  196MOL   H22847418   2.192   4.043   5.394  3.1559 -0.1701 -2.3782
  196MOL   H22947419   2.106   3.928   5.295 -1.7821  0.3697  1.2221
  196MOL   C23047420   2.218   3.872   4.856 -0.2981 -0.0756 -0.1324
  196MOL   C23147421   2.322   3.764   4.874  0.4969  0.2759  0.3785
  196MOL   O23247422   2.301   3.687   4.994 -0.3432  0.0798  0.4508
  196MOL   C23347423   2.403   3.620   5.040  1.2719 -0.2615 -0.2928
  196MOL   C23447424   2.378   3.563   5.185 -0.0619  0.3470  1.0870
  196MOL   O23547425   2.513   3.601   4.981  0.4164 -0.0926  0.1825
  196MOL   H23647426   2.114   3.844   4.869  0.2298 -3.0431 -1.8295
  196MOL   H23747427   2.224   3.894   4.750 -0.6489 -0.4604 -0.2327
  196MOL   H23847428   2.421   3.803   4.853 -0.7003  1.6579 -3.0926
  196MOL   H23947429   2.311   3.477   5.179 -0.3127  0.5878  0.3345
  196MOL   H24047430   2.337   3.645   5.244 -1.8587  0.4314 -0.2250
  196MOL   H24147431   2.477   3.538   5.223  0.9433  0.2479 -1.4482
  196MOL   H24247432   2.313   3.690   4.794  1.1506 -0.1881  0.7314
  197MOL     C147433   5.786   0.796   3.236 -0.2188 -0.1744 -0.1200
  197MOL     C247434   5.934   0.822   3.206  0.5841 -0.0589  0.1928
  197MOL     O347435   5.970   0.758   3.078  0.1134 -0.8108  0.2901
  197MOL     C447436   6.086   0.682   3.076 -0.0563  0.3189  0.7178
  197MOL     C547437   6.116   0.629   2.938 -0.1403  0.1277 -0.6362
  197MOL     O647438   6.162   0.675   3.170  0.6906  0.2942  0.4482
  197MOL     H747439   5.759   0.837   3.334  0.9703 -0.0397  0.1596
  197MOL     H847440   5.777   0.688   3.225 -0.0950 -0.1138 -0.7891
  197MOL     H947441   5.982   0.791   3.298 -1.6543 -0.8867  1.1073
  197MOL    H1047442   6.087   0.524   2.929  1.3298 -0.4681  1.3370
  197MOL    H1147443   6.223   0.638   2.922  0.1898 -0.6699  1.0619
  197MOL    H1247444   6.056   0.694   2.874  0.2556 -0.3140 -1.4639
  197MOL    H1347445   5.722   0.844   3.162 -1.6316  2.3880  2.6158
  197MOL    C1447446   5.975   0.967   3.196 -0.4642  0.7998  0.2639
  197MOL    C1547447   5.912   1.047   3.073  0.2579 -0.7561 -0.1306
  197MOL    O1647448   5.787   1.098   3.112 -0.1737  0.8242 -0.2496
  197MOL    C1747449   5.675   1.105   3.029 -0.4577  0.1416  0.1873
  197MOL    C1847450   5.560   1.184   3.085  0.0931  0.0646  0.3881
  197MOL    O1947451   5.673   1.046   2.920 -0.3167  0.1969 -0.7475
  197MOL    H2047452   5.956   1.014   3.293 -0.4093  0.0360  0.6509
  197MOL    H2147453   6.083   0.968   3.181 -0.4161 -0.7165  0.4326
  197MOL    H2247454   5.909   0.984   2.984  2.1238  0.6558 -1.2183
  197MOL    H2347455   5.593   1.287   3.099  2.1003 -0.3416 -1.2266
  197MOL    H2447456   5.522   1.139   3.177 -2.5615  1.7018  0.1503
  197MOL    H2547457   5.481   1.191   3.010 -0.7053 -0.7101  1.1374
  197MOL    C2647458   6.000   1.166   3.048  0.3768  0.1129 -0.1154
  197MOL    C2747459   5.984   1.239   2.915  0.4858  0.1987  0.1270
  197MOL    O2847460   5.869   1.324   2.917  0.0666  0.3700  0.6481
  197MOL    C2947461   5.790   1.337   2.813  0.0974 -0.6082  0.4975
  197MOL    C3047462   5.691   1.450   2.828  0.2486  0.4160 -0.2179
  197MOL    O3147463   5.797   1.270   2.713  0.1511  0.3225 -0.4444
  197MOL    H3247464   5.967   1.234   3.126  0.5187  1.0336 -0.8557
  197MOL    H3347465   6.103   1.132   3.065  0.5915  0.7084 -0.2307
  197MOL    H3447466   5.970   1.158   2.843  2.1189  1.7675 -2.0201
  197MOL    H3547467   5.622   1.480   2.749 -0.7206 -1.3621 -0.0835
  197MOL    H3647468   5.748   1.537   2.859  2.4460 -0.6630 -1.1927
  197MOL    H3747469   5.629   1.418   2.912  2.1317  2.9675  2.2143
  197MOL    C3847470   6.098   1.320   2.854 -0.0021 -0.3866  0.3781
  197MOL    C3947471   6.166   1.429   2.942 -0.4632  0.1266  0.3951
  197MOL    O4047472   6.302   1.453   2.893  0.1219 -0.6853 -0.3729
  197MOL    C4147473   6.399   1.361   2.927 -1.1303 -0.3776 -0.7363
  197MOL    C4247474   6.535   1.415   2.901  0.1191  0.6095 -0.4063
  197MOL    O4347475   6.387   1.252   2.985  0.5098  0.0462  0.3593
  197MOL    H4447476   6.169   1.239   2.837 -1.2401 -0.9857 -2.2591
  197MOL    H4547477   6.065   1.353   2.755 -0.2552  0.7069  0.8306
  197MOL    H4647478   6.168   1.392   3.044  3.1815 -0.0479  0.3413
  197MOL    H4747479   6.528   1.516   2.860 -0.5659  0.1402 -1.4433
  197MOL    H4847480   6.593   1.350   2.837 -0.9196  0.1755 -0.9080
  197MOL    H4947481   6.595   1.412   2.993  0.7452  1.0815 -0.7919
  197MOL    C5047482   6.082   1.554   2.951 -0.1866 -0.4602  0.2440
  197MOL    C5147483   6.144   1.663   3.046  0.9838 -0.0645 -0.3079
  197MOL    O5247484   6.036   1.761   3.044  0.0155 -0.5236 -0.3325
  197MOL    C5347485   6.055   1.888   3.018 -0.8709  0.1449  0.1621
  197MOL    C5447486   5.923   1.956   2.980  0.7558 -0.3814 -0.3556
  197MOL    O5547487   6.163   1.945   3.007  0.6274  0.4144  0.2861
  197MOL    H5647488   6.066   1.597   2.852 -0.8315 -1.4467 -0.0902
  197MOL    H5747489   5.986   1.519   2.988 -0.4010 -0.6193 -0.4512
  197MOL    H5847490   6.234   1.709   3.005  0.5406  0.5286 -0.6320
  197MOL    H5947491   5.939   2.049   2.924 -0.6837  1.4263  2.1342
  197MOL    H6047492   5.867   1.974   3.071  0.0907  0.5894 -0.9469
  197MOL    H6147493   5.863   1.890   2.918  0.4610 -1.6434  1.2426
  197MOL    C6247494   6.169   1.613   3.193  0.4527 -0.3874  0.4608
  197MOL    C6347495   6.315   1.576   3.230 -0.2946  0.1429 -0.2131
  197MOL    O6447496   6.376   1.704   3.235  0.1312 -0.4035 -0.1864
  197MOL    C6547497   6.485   1.745   3.159  0.2665 -0.0735 -0.0155
  197MOL    C6647498   6.511   1.894   3.183  0.5015  0.0024 -0.5625
  197MOL    O6747499   6.547   1.667   3.087 -0.1513  0.2612  0.0120
  197MOL    H6847500   6.117   1.674   3.267 -0.1703 -0.6820  0.2706
  197MOL    H6947501   6.107   1.523   3.202 -0.8962  0.6005  1.1554
  197MOL    H7047502   6.372   1.515   3.160  0.1379 -3.1563  2.8718
  197MOL    H7147503   6.587   1.928   3.253 -1.9001  2.6394  0.8605
  197MOL    H7247504   6.412   1.938   3.192  1.3530  1.7117  0.8434
  197MOL    H7347505   6.558   1.935   3.093 -0.4860 -0.7453 -1.4313
  197MOL    C7447506   6.322   1.513   3.369 -0.4048 -0.3841 -1.1431
  197MOL    C7547507   6.254   1.371   3.379 -0.6758 -0.4208 -0.7643
  197MOL    O7647508   6.364   1.287   3.357 -0.2265 -0.4093  0.2341
  197MOL    C7747509   6.351   1.167   3.307  0.0443 -0.0340 -1.1466
  197MOL    C7847510   6.488   1.110   3.273 -0.1468  0.0451  0.6254
  197MOL    O7947511   6.248   1.100   3.289 -0.1675 -0.4349  0.2431
  197MOL    H8047512   6.422   1.505   3.412 -0.8079  0.5135 -0.0005
  197MOL    H8147513   6.266   1.587   3.427  1.3757 -0.2470  0.4493
  197MOL    H8247514   6.174   1.358   3.307  1.0598  0.0512 -2.8116
  197MOL    H8347515   6.564   1.175   3.316  1.0152 -1.1527  0.4345
  197MOL    H8447516   6.498   1.104   3.165  2.2186 -0.3148  0.8352
  197MOL    H8547517   6.501   1.009   3.313 -1.7226 -0.9606 -1.3011
  197MOL    C8647518   6.206   1.342   3.523  0.0438 -0.6683  0.0476
  197MOL    C8747519   6.074   1.422   3.550  0.3732  0.1442 -0.0734
  197MOL    O8847520   5.969   1.367   3.477  0.6838 -0.0995  0.0512
  197MOL    C8947521   5.871   1.448   3.429  0.0952  1.0070  0.1129
  197MOL    C9047522   5.789   1.386   3.328 -1.1055  0.2578  0.2801
  197MOL    O9147523   5.857   1.565   3.466  0.0111 -0.2534  0.3800
  197MOL    H9247524   6.190   1.235   3.539  0.6928 -0.6150  1.1138
  197MOL    H9347525   6.284   1.369   3.594  0.2894 -0.9010 -0.1338
  197MOL    H9447526   6.094   1.526   3.523 -2.0012  0.7345  0.3298
  197MOL    H9547527   5.817   1.281   3.315  0.5226  0.9587 -2.1271
  197MOL    H9647528   5.802   1.434   3.231  1.2453 -2.5553 -0.8749
  197MOL    H9747529   5.683   1.392   3.355 -1.3725 -0.2310 -0.6223
  197MOL    C9847530   6.031   1.410   3.696  0.4272  0.1409 -0.8876
  197MOL    C9947531   6.127   1.476   3.805  0.2760  0.7332  0.3410
  197MOL   O10047532   6.162   1.607   3.754 -0.4342 -0.5003  0.5703
  197MOL   C10147533   6.291   1.634   3.735 -0.1293  0.4918 -0.4661
  197MOL   C10247534   6.304   1.769   3.674  0.1574 -0.8030  0.0445
  197MOL   O10347535   6.388   1.549   3.755  0.2544 -0.1280 -0.2740
  197MOL   H10447536   5.933   1.458   3.702  0.7385  0.8270 -1.2721
  197MOL   H10547537   6.021   1.303   3.714 -0.1255  0.5786  1.6657
  197MOL   H10647538   6.209   1.406   3.826  0.6975  1.3622  0.8307
  197MOL   H10747539   6.389   1.819   3.720 -1.8803  1.2362  1.7408
  197MOL   H10847540   6.222   1.842   3.675  0.0065 -0.9250 -2.2695
  197MOL   H10947541   6.326   1.754   3.569  0.6383 -0.3602  0.0812
  197MOL   C11047542   6.058   1.509   3.942  0.3057 -0.3808  0.0672
  197MOL   C11147543   5.981   1.383   4.007 -0.0498  0.2201 -0.1049
  197MOL   O11247544   6.072   1.294   4.069 -0.0720  0.0175  0.2493
  197MOL   C11347545   6.074   1.168   4.034 -0.8517 -0.8246  0.2271
  197MOL   C11447546   6.190   1.095   4.095  0.5865 -0.2316  0.0433
  197MOL   O11547547   5.992   1.112   3.964 -0.0700 -0.7309 -0.1505
  197MOL   H11647548   6.135   1.565   3.995  0.0446  1.0865 -1.0823
  197MOL   H11747549   5.977   1.579   3.922 -0.2227 -0.6766  1.1119
  197MOL   H11847550   5.923   1.352   3.921 -0.8193  0.9876  0.1333
  197MOL   H11947551   6.194   0.996   4.050  1.5402  1.2453 -3.2994
  197MOL   H12047552   6.161   1.097   4.201 -1.8063 -0.1903 -0.5716
  197MOL   H12147553   6.279   1.155   4.080  0.1780  0.2901 -0.3284
  197MOL   C12247554   5.882   1.425   4.118  0.1861 -0.1755  0.3723
  197MOL   C12347555   5.788   1.319   4.175 -0.7550  0.1596 -0.3428
  197MOL   O12447556   5.856   1.256   4.285  0.1149  0.6337  0.6332
  197MOL   C12547557   5.819   1.128   4.309  0.9029 -0.6719  0.8727
  197MOL   C12647558   5.907   1.057   4.406 -0.3731 -0.4347 -0.8125
  197MOL   O12747559   5.729   1.062   4.250  0.7293  0.2341  0.6830
  197MOL   H12847560   5.928   1.465   4.209  1.3877 -1.9627  0.5824
  197MOL   H12947561   5.824   1.510   4.083  1.0412 -0.3945 -1.6567
  197MOL   H13047562   5.779   1.242   4.098  0.3674 -0.4074  0.1003
  197MOL   H13147563   5.929   1.121   4.491  1.5069 -2.5236  0.3297
  197MOL   H13247564   6.003   1.038   4.358  0.2075 -1.6419  0.8040
  197MOL   H13347565   5.865   0.961   4.437  1.2552 -0.7037  0.6320
  197MOL   C13447566   5.649   1.374   4.206 -0.5094  0.5139  0.9402
  197MOL   C13547567   5.555   1.406   4.088  0.0080 -0.0790  0.2415
  197MOL   O13647568   5.508   1.276   4.046  0.2475 -0.3438  0.0852
  197MOL   C13747569   5.557   1.219   3.937 -0.1563  0.0153  0.0924
  197MOL   C13847570   5.500   1.079   3.918 -0.5464  0.4708 -0.3824
  197MOL   O13947571   5.650   1.260   3.859 -0.0451  0.0685  0.0584
  197MOL   H14047572   5.603   1.309   4.281 -0.8888  1.9600  1.9781
  197MOL   H14147573   5.673   1.466   4.258 -0.5031  0.4637  1.0271
  197MOL   H14247574   5.612   1.451   4.007  0.5600 -0.8968  0.1669
  197MOL   H14347575   5.582   1.008   3.904 -0.5197  0.4551 -0.1477
  197MOL   H14447576   5.440   1.053   3.830  0.6210  0.3639 -1.1621
  197MOL   H14547577   5.446   1.050   4.008 -0.5253 -3.4350 -1.5266
  197MOL   C14647578   5.437   1.486   4.126 -0.2367  0.0455 -0.5964
  197MOL   C14747579   5.439   1.641   4.092 -0.0399  0.3376 -0.6707
  197MOL   O14847580   5.305   1.683   4.086 -0.4420  0.2636  0.8386
  197MOL   C14947581   5.251   1.703   3.963  0.1245 -0.1624  0.1826
  197MOL   C15047582   5.118   1.778   3.958 -0.2253  0.0774  0.3332
  197MOL   O15147583   5.308   1.672   3.855 -0.4141 -0.0285  0.2939
  197MOL   H15247584   5.350   1.446   4.074 -1.9316  0.2164  2.0045
  197MOL   H15347585   5.422   1.471   4.233  0.6270 -0.3002 -0.5236
  197MOL   H15447586   5.493   1.644   3.997  1.2116  0.4451  0.0371
  197MOL   H15547587   5.120   1.854   4.036  0.9735 -1.3071  1.6883
  197MOL   H15647588   5.038   1.706   3.979 -1.1424  0.9033 -0.2740
  197MOL   H15747589   5.109   1.836   3.866 -0.9804 -1.2183 -0.4361
  197MOL   C15847590   5.529   1.721   4.189  0.5829 -0.2760 -0.9626
  197MOL   C15947591   5.570   1.861   4.141 -1.0345 -0.2364  0.3234
  197MOL   O16047592   5.621   1.850   4.006  0.4882 -0.1491  0.5902
  197MOL   C16147593   5.755   1.836   3.990 -0.1843  0.2379  0.0261
  197MOL   C16247594   5.809   1.831   3.846 -0.6050 -0.8059  0.6160
  197MOL   O16347595   5.836   1.816   4.082  0.2301 -0.3041  0.1668
  197MOL   H16447596   5.476   1.732   4.283  1.8461  1.2908 -0.4241
  197MOL   H16547597   5.620   1.668   4.219  0.4237  0.3240  0.6236
  197MOL   H16647598   5.638   1.907   4.213 -0.9181 -0.1870  0.1840
  197MOL   H16747599   5.733   1.873   3.781  0.3856  0.4592  0.2602
  197MOL   H16847600   5.826   1.728   3.813  1.9619 -0.4966  0.8802
  197MOL   H16947601   5.905   1.881   3.832  1.1984 -3.9723  1.1780
  197MOL   C17047602   5.438   1.947   4.128 -0.2273 -0.6315 -0.3084
  197MOL   C17147603   5.456   2.081   4.078  0.0995 -0.7679 -0.3967
  197MOL   O17247604   5.352   2.122   3.988  0.3652 -0.3694 -0.0961
  197MOL   C17347605   5.363   2.099   3.859 -0.2205  0.4127  0.2415
  197MOL   C17447606   5.242   2.138   3.771 -0.5595 -0.2383  0.0235
  197MOL   O17547607   5.461   2.051   3.810  0.1463 -0.2302  0.5340
  197MOL   H17647608   5.363   1.910   4.059  0.8845 -1.2463 -1.2143
  197MOL   H17747609   5.395   1.952   4.228 -0.6807 -3.1429 -0.3458
  197MOL   H17847610   5.550   2.076   4.024  0.1780  0.5742 -0.3913
  197MOL   H17947611   5.180   2.053   3.743  0.1266 -1.0175  0.8135
  197MOL   H18047612   5.267   2.212   3.695  0.0176  1.1749  1.5584
  197MOL   H18147613   5.187   2.204   3.838  0.7759  1.5303 -0.6033
  197MOL   C18247614   5.470   2.187   4.192 -0.3652  0.3054  0.4551
  197MOL   C18347615   5.479   2.332   4.152  0.2594  0.0663  0.2770
  197MOL   O18447616   5.478   2.417   4.263  0.3432 -0.4139  0.0628
  197MOL   C18547617   5.364   2.488   4.293  0.1251 -0.1135 -0.3634
  197MOL   C18647618   5.376   2.551   4.427 -0.3787 -0.0318 -0.6577
  197MOL   O18747619   5.271   2.503   4.216  0.2915 -0.0868 -0.1623
  197MOL   H18847620   5.384   2.182   4.259 -0.4671 -2.5269  0.1449
  197MOL   H18947621   5.558   2.154   4.247  0.5537  2.4502  0.3366
  197MOL   H19047622   5.393   2.341   4.085 -1.4386  1.1628  2.4923
  197MOL   H19147623   5.388   2.659   4.424  1.8094 -0.2973 -2.2233
  197MOL   H19247624   5.452   2.509   4.494  1.1972  1.5504 -1.4258
  197MOL   H19347625   5.276   2.547   4.471  0.2541 -0.9639  0.7762
  197MOL   C19447626   5.592   2.373   4.054 -0.5979 -0.5092 -0.1754
  197MOL   C19547627   5.743   2.370   4.085  0.3239 -0.0118  0.0964
  197MOL   O19647628   5.819   2.356   3.964  0.7699 -0.0445 -0.1588
  197MOL   C19747629   5.855   2.235   3.916 -0.4280  0.1877  0.2647
  197MOL   C19847630   5.937   2.235   3.790  0.7502  0.0166 -0.1941
  197MOL   O19947631   5.827   2.126   3.966 -0.0885  0.1400  0.2611
  197MOL   H20047632   5.572   2.310   3.966 -2.0568 -0.3482  0.0295
  197MOL   H20147633   5.563   2.471   4.016  1.6409  0.6026  0.9381
  197MOL   H20247634   5.776   2.294   4.156  1.6894  0.4492 -0.0285
  197MOL   H20347635   6.036   2.279   3.805  1.4327 -1.0065 -1.6071
  197MOL   H20447636   5.889   2.307   3.723  0.5464  1.0158  1.0090
  197MOL   H20547637   5.946   2.144   3.732  2.0579 -0.1451  0.2432
  197MOL   C20647638   5.791   2.501   4.149  0.5372 -0.4908 -0.2487
  197MOL   C20747639   5.908   2.498   4.248  0.4511 -0.6359 -0.0726
  197MOL   O20847640   6.027   2.476   4.174 -0.4046  0.1044 -0.4763
  197MOL   C20947641   6.107   2.367   4.185  1.2286 -0.5920  0.2849
  197MOL   C21047642   6.219   2.361   4.084 -0.2067  0.8281 -0.3865
  197MOL   O21147643   6.099   2.288   4.283 -0.1518 -0.4974  0.2537
  197MOL   H21247644   5.805   2.580   4.076 -1.8794 -1.1134 -1.4140
  197MOL   H21347645   5.709   2.530   4.213  0.6209 -0.7078 -0.0401
  197MOL   H21447646   5.880   2.425   4.323  0.4597  0.1613  0.7098
  197MOL   H21547647   6.200   2.288   4.006 -1.5872  1.9794 -1.1452
  197MOL   H21647648   6.318   2.337   4.123 -0.3882 -1.5400 -1.3045
  197MOL   H21747649   6.224   2.459   4.036  2.9892  2.4937  3.0727
  197MOL   C21847650   5.924   2.626   4.333  0.1117 -0.3070  0.1807
  197MOL   C21947651   5.838   2.641   4.460  0.1513 -0.3968  0.2195
  197MOL   O22047652   5.876   2.558   4.572  0.6096  0.5678  0.2498
  197MOL   C22147653   5.810   2.444   4.593 -0.1232 -0.3732  0.5197
  197MOL   C22247654   5.879   2.355   4.698  0.1422 -0.1674 -0.0723
  197MOL   O22347655   5.702   2.421   4.543  0.1585 -0.0781  0.0227
  197MOL   H22447656   6.029   2.629   4.360  0.3767  2.0815 -0.9915
  197MOL   H22547657   5.923   2.714   4.269 -1.4245  0.6908  1.5246
  197MOL   H22647658   5.737   2.611   4.432 -0.3032 -1.5789  2.8975
  197MOL   H22747659   5.983   2.355   4.667  0.7359 -0.8329  1.8847
  197MOL   H22847660   5.834   2.257   4.710 -0.1263  0.0587  0.7832
  197MOL   H22947661   5.880   2.404   4.796  1.6808  0.9837 -0.6378
  197MOL   C23047662   5.824   2.782   4.518 -0.2359  0.2208  0.0083
  197MOL   C23147663   5.710   2.795   4.625 -0.4632 -0.0830  0.2473
  197MOL   O23247664   5.686   2.933   4.650 -0.2848  0.0070  0.0548
  197MOL   C23347665   5.587   2.984   4.568 -0.4012 -0.3227  0.1889
  197MOL   C23447666   5.602   3.136   4.563  0.2160 -0.5047 -0.0512
  197MOL   O23547667   5.517   2.925   4.490 -0.2941 -0.0544  0.1697
  197MOL   H23647668   5.921   2.820   4.549  0.0031 -1.2047  1.0448
  197MOL   H23747669   5.798   2.844   4.432  0.9562  0.1681 -0.4031
  197MOL   H23847670   5.751   2.753   4.716 -1.7701  0.4980  1.1115
  197MOL   H23947671   5.677   3.170   4.492 -0.4405  0.9107 -0.0691
  197MOL   H24047672   5.629   3.163   4.666  1.8436 -2.5704  0.1037
  197MOL   H24147673   5.507   3.182   4.539  0.2901 -0.6746 -0.6626
  197MOL   H24247674   5.623   2.735   4.599 -0.2636 -0.6590  0.9037
  198MOL     C147675   2.474   4.441   0.183  1.0605 -0.0540  1.0787
  198MOL     C247676   2.416   4.512   0.058 -0.5732 -0.8123 -0.2523
  198MOL     O347677   2.416   4.649   0.098  1.0262 -0.0207 -0.1764
  198MOL     C447678   2.356   4.745   0.013 -0.0239 -0.1794 -0.2455
  198MOL     C547679   2.388   4.880   0.077  0.1968  0.5319  0.3923
  198MOL     O647680   2.311   4.733   7.925 -0.9787  0.3782  0.0489
  198MOL     H747681   2.493   4.334   0.168 -1.4299 -0.4011  0.1030
  198MOL     H847682   2.408   4.452   0.269 -1.3380  0.6697 -0.7834
  198MOL     H947683   2.311   4.486   0.046 -1.2299  0.8886  1.5284
  198MOL    H1047684   2.364   4.957   0.003  1.0157  0.4674  0.0474
  198MOL    H1147685   2.494   4.898   0.097  0.2648 -0.7199  1.2064
  198MOL    H1247686   2.340   4.911   0.169  2.6649 -1.0280  2.2507
  198MOL    H1347687   2.563   4.485   0.228  0.6428  1.9463 -0.0092
  198MOL    C1447688   2.507   4.478   7.960 -0.2716 -0.8027 -0.3431
  198MOL    C1547689   2.521   4.338   7.911 -0.0915  0.1142 -0.2060
  198MOL    O1647690   2.398   4.288   7.877 -0.7724 -0.1550 -0.1523
  198MOL    C1747691   2.338   4.170   7.938 -0.6154  0.7610  0.5872
  198MOL    C1847692   2.186   4.162   7.911  0.4749  0.5308 -0.1375
  198MOL    O1947693   2.395   4.096   8.014 -0.0240  0.4039 -0.8426
  198MOL    H2047694   2.468   4.536   7.877  0.3423  0.3600  0.1600
  198MOL    H2147695   2.604   4.524   7.982  0.6003 -1.1051 -3.4110
  198MOL    H2247696   2.570   4.277   7.987  0.3545  0.2854 -0.3546
  198MOL    H2347697   2.113   4.208   7.978  0.2998  0.4201 -0.2543
  198MOL    H2447698   2.151   4.059   7.909 -2.7101  1.5389  0.3388
  198MOL    H2547699   2.169   4.211   7.815 -2.5882  1.6669  0.9364
  198MOL    C2647700   2.610   4.322   7.792 -0.3077  0.4660  0.2620
  198MOL    C2747701   2.764   4.359   7.816 -0.3111  0.0764  0.0857
  198MOL    O2847702   2.836   4.270   7.895  0.9087  1.0795 -0.2687
  198MOL    C2947703   2.849   4.298   0.003 -0.4047 -0.7235 -0.4910
  198MOL    C3047704   2.938   4.200   0.073  0.1200 -0.3477  0.1217
  198MOL    O3147705   2.802   4.390   0.069  0.7078 -0.2770  0.4053
  198MOL    H3247706   2.618   4.220   7.755 -2.8455  0.5875 -0.7312
  198MOL    H3347707   2.564   4.363   7.702 -1.2619 -0.0710  0.4956
  198MOL    H3447708   2.769   4.458   7.862  1.5511 -0.2939  0.6904
  198MOL    H3547709   3.033   4.245   0.101 -0.2218  1.4119 -1.4335
  198MOL    H3647710   2.978   4.116   0.017  0.2547 -1.1406  1.4020
  198MOL    H3747711   2.879   4.160   0.155 -1.6796 -2.3482 -2.0791
  198MOL    C3847712   2.854   4.383   7.690  0.0654 -0.4091 -0.0196
  198MOL    C3947713   2.799   4.494   7.593 -0.0977 -0.3704 -0.6379
  198MOL    O4047714   2.824   4.620   7.654  0.7979 -0.2301  0.0255
  198MOL    C4147715   2.730   4.700   7.700 -0.0874  0.6507 -0.0804
  198MOL    C4247716   2.773   4.838   7.736 -0.0311  0.0761  0.2441
  198MOL    O4347717   2.609   4.666   7.708 -0.7047 -0.1847 -0.0039
  198MOL    H4447718   2.955   4.412   7.718  0.7652 -3.5817  1.0029
  198MOL    H4547719   2.858   4.293   7.629 -0.4297  1.0593 -2.2459
  198MOL    H4647720   2.696   4.474   7.563  0.5079 -0.2876 -2.8387
  198MOL    H4747721   2.835   4.887   7.662 -0.3442  2.2689  1.3819
  198MOL    H4847722   2.830   4.830   7.829 -1.0660 -0.7489  0.8352
  198MOL    H4947723   2.688   4.906   7.747  1.1909  1.8597 -1.1151
  198MOL    C5047724   2.863   4.495   7.460  0.1138  0.0889  0.0072
  198MOL    C5147725   2.792   4.410   7.353  0.7462  0.0942 -0.4473
  198MOL    O5247726   2.702   4.493   7.278 -0.1127 -0.0125 -0.0479
  198MOL    C5347727   2.588   4.438   7.242  0.3907 -0.1476 -0.3528
  198MOL    C5447728   2.499   4.536   7.172 -0.2302  0.5383 -0.1781
  198MOL    O5547729   2.555   4.317   7.250  0.3171 -0.2463 -0.2091
  198MOL    H5647730   2.880   4.598   7.429  1.5876 -0.2235 -0.2484
  198MOL    H5747731   2.961   4.449   7.476  0.2186  0.3734  0.1865
  198MOL    H5847732   2.739   4.334   7.409 -2.6610  2.3343 -0.4867
  198MOL    H5947733   2.558   4.565   7.085 -0.4796 -0.0118 -0.5276
  198MOL    H6047734   2.486   4.626   7.233 -1.5539  0.5509 -0.4762
  198MOL    H6147735   2.409   4.480   7.146 -0.2902  2.1202 -3.6703
  198MOL    C6247736   2.895   4.362   7.246 -0.8515  0.8018  0.2272
  198MOL    C6347737   2.949   4.223   7.272 -0.1527 -0.4074  0.3337
  198MOL    O6447738   2.829   4.143   7.270 -0.6116  0.5746 -0.0393
  198MOL    C6547739   2.794   4.075   7.370  0.3982  0.9599  0.3549
  198MOL    C6647740   2.711   3.957   7.326 -0.4396  0.3278 -0.6116
  198MOL    O6747741   2.824   4.097   7.484 -0.3057 -0.1592  0.1140
  198MOL    H6847742   2.853   4.382   7.147  1.0835 -1.2784 -1.0579
  198MOL    H6947743   2.974   4.438   7.245 -2.4830  2.5581 -2.8154
  198MOL    H7047744   2.995   4.230   7.371  0.9676 -1.8641 -0.0714
  198MOL    H7147745   2.781   3.878   7.296 -0.5955  0.0634 -0.2767
  198MOL    H7247746   2.639   3.993   7.251 -0.9702  1.7829  0.5757
  198MOL    H7347747   2.646   3.912   7.401 -0.8687 -1.1397 -1.8108
  198MOL    C7447748   3.036   4.175   7.163  0.0229 -0.5836  0.6979
  198MOL    C7547749   3.133   4.062   7.187 -0.1178 -0.6836 -0.2833
  198MOL    O7647750   3.144   3.965   7.073  0.3137 -0.2015 -0.2336
  198MOL    C7747751   3.049   3.877   7.047  0.5323 -0.1199 -0.0024
  198MOL    C7847752   3.088   3.780   6.936  0.4172 -0.6523 -0.1297
  198MOL    O7947753   2.942   3.865   7.100  0.1141 -0.0551 -0.2538
  198MOL    H8047754   2.979   4.159   7.072  0.2444 -0.5816  0.5564
  198MOL    H8147755   3.105   4.257   7.141  0.3559 -0.9492  0.3817
  198MOL    H8247756   3.102   4.001   7.272  0.7576  0.8188  1.1545
  198MOL    H8347757   3.121   3.857   6.867 -0.3342  0.6686  0.9672
  198MOL    H8447758   3.003   3.723   6.899 -1.8077  1.8436  0.9640
  198MOL    H8547759   3.175   3.718   6.960  0.0047 -0.6456  1.4690
  198MOL    C8647760   3.278   4.100   7.217  0.7362  0.5736 -0.1055
  198MOL    C8747761   3.302   4.213   7.321  0.2801 -0.0466  0.3945
  198MOL    O8847762   3.323   4.168   7.456 -0.4138 -0.1706 -0.3149
  198MOL    C8947763   3.242   4.202   7.559  0.0208  0.4668  0.7045
  198MOL    C9047764   3.276   4.124   7.688  0.0176 -0.3358 -0.4463
  198MOL    O9147765   3.157   4.291   7.556 -0.3012  0.7827 -0.1079
  198MOL    H9247766   3.339   4.015   7.248 -1.3983 -1.3281 -0.9255
  198MOL    H9347767   3.316   4.123   7.118  0.6381 -0.6046 -0.4210
  198MOL    H9447768   3.212   4.275   7.316 -0.1439 -0.7693 -1.2229
  198MOL    H9547769   3.217   4.032   7.690 -1.0892  0.3901  0.9175
  198MOL    H9647770   3.248   4.181   7.777  2.1602 -2.9746  2.0376
  198MOL    H9747771   3.380   4.100   7.711 -0.1216 -1.6961 -1.2193
  198MOL    C9847772   3.405   4.310   7.270 -0.1245  0.0263 -0.3436
  198MOL    C9947773   3.361   4.452   7.272  0.7370  0.0430 -0.2074
  198MOL   O10047774   3.259   4.477   7.178 -0.3327 -0.2477  0.9412
  198MOL   C10147775   3.280   4.535   7.055 -0.7428 -0.5918 -0.2110
  198MOL   C10247776   3.154   4.548   6.971 -0.0724  0.8205  0.4307
  198MOL   O10347777   3.386   4.575   7.018 -0.1094 -0.3466  0.2246
  198MOL   H10447778   3.491   4.296   7.336 -0.4234 -2.3496 -0.4153
  198MOL   H10547779   3.460   4.280   7.180  0.2546  2.5519 -0.9864
  198MOL   H10647780   3.453   4.503   7.242 -0.5183  1.8550 -1.0064
  198MOL   H10747781   3.073   4.560   7.043 -0.6697  1.6041 -0.3649
  198MOL   H10847782   3.141   4.473   6.894  0.9627  0.8451  0.2227
  198MOL   H10947783   3.168   4.643   6.918  0.9875 -0.2260 -1.2021
  198MOL   C11047784   3.318   4.516   7.406  0.1868 -0.4417 -0.4489
  198MOL   C11147785   3.331   4.673   7.404  0.0607  0.7637 -0.3206
  198MOL   O11247786   3.295   4.719   7.532  0.3137  0.1275  0.2702
  198MOL   C11347787   3.172   4.749   7.560 -0.4992 -0.1123 -0.0393
  198MOL   C11447788   3.159   4.793   7.705 -0.6735 -0.2300 -0.4232
  198MOL   O11547789   3.080   4.758   7.478 -0.1044  0.0286 -0.0540
  198MOL   H11647790   3.213   4.489   7.415  0.3699 -0.4804  1.7906
  198MOL   H11747791   3.366   4.482   7.497 -0.5769 -0.7245 -0.1483
  198MOL   H11847792   3.272   4.712   7.321  1.1504 -0.7473 -1.8540
  198MOL   H11947793   3.241   4.748   7.760  1.1309  2.1989 -1.0548
  198MOL   H12047794   3.065   4.763   7.752 -0.6928  1.7989  0.9192
  198MOL   H12147795   3.172   4.900   7.720  1.0159 -0.5366  0.3303
  198MOL   C12247796   3.469   4.727   7.376  0.3388  1.0830  0.2394
  198MOL   C12347797   3.579   4.659   7.452  0.2738  0.2136 -0.0163
  198MOL   O12447798   3.702   4.683   7.385  0.2552 -0.9828 -0.3155
  198MOL   C12547799   3.781   4.585   7.345 -0.3969 -0.4293 -0.4403
  198MOL   C12647800   3.911   4.633   7.284 -0.4902 -0.1059 -0.2042
  198MOL   O12747801   3.762   4.464   7.358  0.2640 -0.3843 -0.3874
  198MOL   H12847802   3.485   4.716   7.269 -0.1472  1.1800  0.1565
  198MOL   H12947803   3.464   4.835   7.390  1.0782  1.0420  0.8778
  198MOL   H13047804   3.571   4.551   7.461  0.4943  0.2456  0.5697
  198MOL   H13147805   3.984   4.553   7.274  0.8926  0.9470  1.3876
  198MOL   H13247806   3.946   4.724   7.334 -0.9057  1.4607 -2.6607
  198MOL   H13347807   3.898   4.666   7.180  0.2787 -1.2494 -0.6655
  198MOL   C13447808   3.591   4.716   7.591 -0.1854  0.7929 -0.6394
  198MOL   C13547809   3.561   4.617   7.706 -0.1660 -0.2947 -0.3236
  198MOL   O13647810   3.654   4.516   7.696 -0.1701 -0.1064 -0.1750
  198MOL   C13747811   3.615   4.386   7.678  0.1350  0.2755 -0.0399
  198MOL   C13847812   3.734   4.294   7.673  0.1649  1.2072  0.2946
  198MOL   O13947813   3.497   4.354   7.678  0.0498 -0.5382  0.6037
  198MOL   H14047814   3.689   4.757   7.614 -0.0869 -0.6077  1.6432
  198MOL   H14147815   3.529   4.804   7.604 -1.3501 -0.4646  2.8212
  198MOL   H14247816   3.464   4.573   7.681 -0.5725 -0.1266  0.9158
  198MOL   H14347817   3.827   4.346   7.696  1.2770 -1.3588  1.8738
  198MOL   H14447818   3.752   4.266   7.569  0.4576  0.3488  0.5695
  198MOL   H14547819   3.718   4.214   7.745  0.4294  1.1419  0.2828
  198MOL   C14647820   3.544   4.680   7.850 -0.0205 -0.5444 -0.5383
  198MOL   C14747821   3.436   4.614   7.941  0.5167  0.2671  0.1166
  198MOL   O14847822   3.462   4.476   7.964 -0.2851  0.4748 -0.0055
  198MOL   C14947823   3.559   4.429   0.024  0.1965  0.1654 -0.8481
  198MOL   C15047824   3.577   4.281   0.014 -0.0356  0.8154 -0.2755
  198MOL   O15147825   3.644   4.495   0.079 -0.2608 -0.6673 -0.2100
  198MOL   H15247826   3.641   4.691   7.899 -0.3435 -0.3752  0.0612
  198MOL   H15347827   3.502   4.777   7.821  1.6188  0.1301 -0.7480
  198MOL   H15447828   3.341   4.617   7.888 -0.3457  0.2481  1.6320
  198MOL   H15547829   3.655   4.244   0.081 -1.2452 -0.4269  0.4676
  198MOL   H15647830   3.585   4.245   7.933  0.3851  1.1040 -0.3469
  198MOL   H15747831   3.497   4.225   0.062 -0.9372  1.7805 -0.6368
  198MOL   C15847832   3.421   4.706   0.040 -0.5815 -0.1267 -0.0578
  198MOL   C15947833   3.295   4.672   0.126  0.0247  0.0545  0.5913
  198MOL   O16047834   3.309   4.549   0.188 -0.1791  0.7999 -0.1811
  198MOL   C16147835   3.206   4.473   0.226  0.2231  0.5325  0.2330
  198MOL   C16247836   3.250   4.332   0.280 -0.1266 -0.2425 -0.5548
  198MOL   O16347837   3.088   4.503   0.211 -0.5336 -0.0684 -0.1340
  198MOL   H16447838   3.516   4.697   0.093  0.1030  3.0771 -0.6655
  198MOL   H16547839   3.413   4.809   0.006  1.3180  0.2076  0.4824
  198MOL   H16647840   3.208   4.668   0.060 -2.7227  1.9726  3.9159
  198MOL   H16747841   3.340   4.334   0.341  0.0484 -0.5920 -0.8033
  198MOL   H16847842   3.261   4.270   0.191 -0.1194  1.0800 -1.4885
  198MOL   H16947843   3.173   4.288   0.344  0.4280 -1.7014 -0.8759
  198MOL   C17047844   3.281   4.784   0.232 -0.9023 -0.0829  0.8657
  198MOL   C17147845   3.169   4.886   0.203  0.3435  0.9318  0.6516
  198MOL   O17247846   3.042   4.829   0.238  0.4373  0.1629 -0.4433
  198MOL   C17347847   2.963   4.804   0.137  0.0768  0.0084 -1.4718
  198MOL   C17447848   2.840   4.720   0.181  0.1888  0.3924 -0.4268
  198MOL   O17547849   2.983   4.828   0.021  0.0622  0.4561 -0.5468
  198MOL   H17647850   3.251   4.739   0.327 -1.4820 -1.7301 -0.0729
  198MOL   H17747851   3.379   4.829   0.247 -0.4369 -1.1137  0.9272
  198MOL   H17847852   3.167   4.912   0.097  0.7443 -0.1399  0.3727
  198MOL   H17947853   2.815   4.730   0.286  0.5885 -0.6758 -0.2197
  198MOL   H18047854   2.853   4.612   0.169  1.6230  0.5486 -0.3352
  198MOL   H18147855   2.760   4.757   0.117 -1.4936 -1.2408  0.6772
  198MOL   C18247856   3.202   5.011   0.287 -0.5441 -0.4078 -0.7746
  198MOL   C18347857   3.078   5.088   0.335  0.2353 -0.2375 -1.3791
  198MOL   O18447858   3.025   5.020   0.447  0.0046 -0.2941 -0.3873
  198MOL   C18547859   2.889   5.019   0.475 -0.1668 -0.3611 -0.3088
  198MOL   C18647860   2.855   4.909   0.579  0.2246  0.2904 -0.0466
  198MOL   O18747861   2.801   5.078   0.417 -0.5730 -0.1061  0.1776
  198MOL   H18847862   3.265   4.993   0.374 -0.6452  1.2391 -0.3440
  198MOL   H18947863   3.267   5.073   0.226  1.0590 -0.6176  0.6917
  198MOL   H19047864   3.011   5.098   0.249  0.1259  1.0411 -1.1537
  198MOL   H19147865   2.760   4.939   0.624 -1.4170 -3.4303 -0.9055
  198MOL   H19247866   2.925   4.878   0.657  0.2841  0.9153  0.1541
  198MOL   H19347867   2.834   4.820   0.521 -2.3871  1.0702 -0.3708
  198MOL   C19447868   3.112   5.233   0.365 -0.0753  0.5550  0.5096
  198MOL   C19547869   3.169   5.326   0.248 -0.4829  0.6509 -0.1758
  198MOL   O19647870   3.076   5.317   0.144 -0.3955 -0.3982 -0.4052
  198MOL   C19747871   3.109   5.245   0.042  0.1910  0.9974  0.8444
  198MOL   C19847872   2.993   5.206   7.973 -0.1960 -0.2211  0.2296
  198MOL   O19947873   3.221   5.209   0.021 -0.1545 -0.4667 -0.2173
  198MOL   H20047874   3.031   5.284   0.416  0.7662  4.2513 -1.6740
  198MOL   H20147875   3.188   5.235   0.442  1.6203  1.9914 -1.1527
  198MOL   H20247876   3.269   5.294   0.220 -0.5076  0.2602  0.1856
  198MOL   H20347877   2.966   5.283   7.901  0.7346  0.6127  0.7552
  198MOL   H20447878   2.904   5.188   0.011 -0.4277 -1.0905 -0.3760
  198MOL   H20547879   3.018   5.110   7.928  0.8147  0.0193  0.2581
  198MOL   C20647880   3.189   5.479   0.294  0.0762  0.5562  0.1524
  198MOL   C20747881   3.252   5.558   0.180 -0.1571 -0.0136  0.7412
  198MOL   O20847882   3.233   5.694   0.212  0.3396 -0.4779  0.0165
  198MOL   C20947883   3.200   5.786   0.120 -0.0408  0.0407  0.1317
  198MOL   C21047884   3.188   5.923   0.182 -0.8318 -0.4801 -0.3579
  198MOL   O21147885   3.172   5.760   0.004 -0.0476  0.0774 -0.1967
  198MOL   H21247886   3.097   5.514   0.339 -0.5115 -2.3051  1.3148
  198MOL   H21347887   3.256   5.481   0.380  1.4541  0.5709 -0.8826
  198MOL   H21447888   3.197   5.539   0.088  1.0707  1.0327 -0.2124
  198MOL   H21547889   3.254   5.940   0.267  2.4083 -2.2997 -2.4039
  198MOL   H21647890   3.086   5.943   0.215 -0.8758 -1.9175  0.3823
  198MOL   H21747891   3.215   6.001   0.111 -1.9688 -1.4750 -1.9200
  198MOL   C21847892   3.397   5.526   0.148  0.2887  0.8571  0.6953
  198MOL   C21947893   3.503   5.515   0.264  0.1208  1.0979  0.0776
  198MOL   O22047894   3.624   5.456   0.222  0.3574 -0.1493  0.1435
  198MOL   C22147895   3.628   5.319   0.227 -0.2381  0.0140 -0.5794
  198MOL   C22247896   3.758   5.267   0.167 -0.1431  0.0900  0.1526
  198MOL   O22347897   3.535   5.247   0.271 -0.0612 -0.3438 -0.2968
  198MOL   H22447898   3.399   5.435   0.089 -0.7270  1.1836  0.1508
  198MOL   H22547899   3.436   5.598   0.076  2.2980 -1.5348 -0.7190
  198MOL   H22647900   3.446   5.456   0.336  0.5353 -0.2271 -0.6651
  198MOL   H22747901   3.826   5.350   0.181 -2.4798  1.9320  0.8641
  198MOL   H22847902   3.767   5.258   0.059 -1.6855 -0.5638  0.0609
  198MOL   H22947903   3.790   5.172   0.212  3.1033  1.6131  1.1930
  198MOL   C23047904   3.524   5.651   0.326 -0.2067 -0.2920 -0.5127
  198MOL   C23147905   3.636   5.663   0.426 -0.0033  0.8219 -0.6525
  198MOL   O23247906   3.614   5.575   0.540 -0.2809 -0.3052  0.1636
  198MOL   C23347907   3.692   5.589   0.648  0.0055 -0.3812 -0.7779
  198MOL   C23447908   3.652   5.508   0.772  0.1218  0.2121 -0.4108
  198MOL   O23547909   3.792   5.652   0.648 -0.5044 -0.2802 -0.8590
  198MOL   H23647910   3.559   5.707   0.239  2.8582 -1.4566 -0.1133
  198MOL   H23747911   3.433   5.695   0.365  0.2383 -0.6230  0.9622
  198MOL   H23847912   3.623   5.765   0.464  0.0059  0.2447  0.9640
  198MOL   H23947913   3.550   5.535   0.802 -0.3928 -1.5395 -0.4911
  198MOL   H24047914   3.725   5.530   0.850  1.6453 -2.2480 -1.0938
  198MOL   H24147915   3.643   5.405   0.736 -0.3952 -0.3911  1.3526
  198MOL   H24247916   3.737   5.658   0.386  0.0092 -1.2679 -0.4287
  199MOL     C147917   4.877   0.879   4.588 -0.5622 -0.0564 -0.3208
  199MOL     C247918   4.758   0.827   4.665  0.6246 -0.4468 -0.8866
  199MOL     O347919   4.756   0.685   4.648 -0.5153 -0.0338 -0.2928
  199MOL     C447920   4.659   0.621   4.585 -0.1557 -0.0907 -0.2281
  199MOL     C547921   4.662   0.469   4.602 -0.1070 -0.2592  0.2993
  199MOL     O647922   4.563   0.679   4.530  0.3590 -0.3046 -0.2117
  199MOL     H747923   4.878   0.988   4.583  0.1309 -0.1661 -3.3761
  199MOL     H847924   4.882   0.843   4.485 -1.5214 -0.0686 -0.3674
  199MOL     H947925   4.669   0.866   4.615  1.2687 -0.3940 -2.0156
  199MOL    H1047926   4.678   0.416   4.508 -1.1459 -0.8864  0.4644
  199MOL    H1147927   4.570   0.430   4.644  0.1529 -0.7592  0.4171
  199MOL    H1247928   4.749   0.447   4.664 -1.2599  0.1301  2.0876
  199MOL    H1347929   4.970   0.848   4.637 -1.2758 -0.3343  0.8761
  199MOL    C1447930   4.772   0.873   4.816  0.3166 -0.2914 -0.4833
  199MOL    C1547931   4.633   0.862   4.891 -0.2155  0.0466 -0.1642
  199MOL    O1647932   4.588   0.730   4.894 -0.8920  0.4918  0.5613
  199MOL    C1747933   4.463   0.700   4.872 -0.5676  0.6206 -0.6210
  199MOL    C1847934   4.431   0.551   4.869  0.5109  0.2555 -0.1739
  199MOL    O1947935   4.374   0.785   4.850 -0.0949  0.5507 -0.7344
  199MOL    H2047936   4.847   0.818   4.873  1.2325  1.2320 -0.1996
  199MOL    H2147937   4.798   0.978   4.808 -0.4361 -0.0067  0.6762
  199MOL    H2247938   4.564   0.919   4.829 -0.6342 -0.7893 -0.4612
  199MOL    H2347939   4.409   0.516   4.970  0.6005  0.1473 -0.1916
  199MOL    H2447940   4.516   0.502   4.822  0.5627  1.1681 -1.0520
  199MOL    H2547941   4.344   0.538   4.805 -0.0922  0.9112  0.5037
  199MOL    C2647942   4.639   0.910   5.034 -0.3590 -0.6150  0.2230
  199MOL    C2747943   4.697   1.049   5.054  0.0435 -0.6137  0.1601
  199MOL    O2847944   4.611   1.147   4.990  0.2052  0.2207  0.0747
  199MOL    C2947945   4.661   1.244   4.922  0.1672 -0.2287  0.0440
  199MOL    C3047946   4.561   1.348   4.890  0.4344 -0.7675 -0.0036
  199MOL    O3147947   4.782   1.258   4.889 -0.0066 -0.0654 -0.0536
  199MOL    H3247948   4.549   0.890   5.091 -0.1972  1.9879  1.4757
  199MOL    H3347949   4.706   0.839   5.083  0.0355  0.2284  0.9156
  199MOL    H3447950   4.792   1.054   5.001  0.8120 -1.9753  1.3744
  199MOL    H3547951   4.589   1.407   4.802  1.0533 -1.1695 -0.0804
  199MOL    H3647952   4.543   1.409   4.978 -1.0921 -0.0462 -0.8029
  199MOL    H3747953   4.473   1.296   4.854  0.7345 -1.5379  0.3642
  199MOL    C3847954   4.727   1.091   5.196  0.8425  0.4583  0.4746
  199MOL    C3947955   4.854   1.013   5.255  0.8539  0.6389  0.1354
  199MOL    O4047956   4.965   1.096   5.224  0.6547 -0.6061 -0.1145
  199MOL    C4147957   5.062   1.056   5.152  0.3621 -0.0262  0.0713
  199MOL    C4247958   5.171   1.166   5.149  0.1313  1.0273  0.5089
  199MOL    O4347959   5.069   0.953   5.092  0.3208 -0.2082  0.0598
  199MOL    H4447960   4.735   1.199   5.208  2.1969  0.7203 -2.3079
  199MOL    H4547961   4.632   1.063   5.242  0.1674  0.6476 -0.7867
  199MOL    H4647962   4.860   0.911   5.217 -0.4775  1.0646 -1.3022
  199MOL    H4747963   5.175   1.207   5.250  1.6432  1.8406  0.1379
  199MOL    H4847964   5.147   1.243   5.076  1.2875 -0.8237 -1.8970
  199MOL    H4947965   5.262   1.115   5.115  0.0640  1.8794 -0.9831
  199MOL    C5047966   4.844   0.996   5.408 -0.0980 -0.0239  0.2095
  199MOL    C5147967   4.936   0.889   5.467  0.0914  0.1342 -0.2660
  199MOL    O5247968   5.076   0.921   5.484 -0.4629  0.2651 -0.0267
  199MOL    C5347969   5.127   1.028   5.546 -0.3784  0.4532  0.0817
  199MOL    C5447970   5.281   1.035   5.532 -0.5900 -0.1846  0.1875
  199MOL    O5547971   5.063   1.113   5.601  0.1089 -0.1345  0.5616
  199MOL    H5647972   4.842   1.093   5.457  0.7024  0.0670  0.0728
  199MOL    H5747973   4.743   0.956   5.418 -0.5071  1.3289  1.6822
  199MOL    H5847974   4.925   0.806   5.397  0.3648 -0.0965 -0.0368
  199MOL    H5947975   5.323   1.091   5.616 -0.3982 -0.3550  0.2056
  199MOL    H6047976   5.313   1.082   5.439 -0.2725  0.8423  0.7984
  199MOL    H6147977   5.315   0.932   5.539 -0.9522 -0.1821  2.3410
  199MOL    C6247978   4.878   0.823   5.592  0.3200 -0.1104  0.0959
  199MOL    C6347979   4.934   0.692   5.643 -0.5317  0.0855  0.2211
  199MOL    O6447980   4.977   0.606   5.534 -0.0471 -0.8052  0.3956
  199MOL    C6547981   4.907   0.499   5.498  0.3618 -0.1302 -0.2671
  199MOL    C6647982   4.937   0.440   5.361  0.0283  0.1822 -0.3526
  199MOL    O6747983   4.815   0.454   5.559 -1.1056  0.5221  0.1165
  199MOL    H6847984   4.888   0.900   5.668 -1.7068 -1.4936  1.8046
  199MOL    H6947985   4.773   0.800   5.577  0.7318 -1.3730 -1.0054
  199MOL    H7047986   4.860   0.649   5.710  0.5490 -4.0718 -1.0675
  199MOL    H7147987   4.855   0.393   5.306  0.9297  0.0846 -1.6394
  199MOL    H7247988   5.005   0.356   5.376 -2.9095 -1.9064  2.0833
  199MOL    H7347989   4.991   0.515   5.304  1.7664 -1.3642 -0.7869
  199MOL    C7447990   5.066   0.706   5.724  0.2129 -0.2647  0.2627
  199MOL    C7547991   5.111   0.582   5.805 -0.0941 -0.5224  0.4408
  199MOL    O7647992   4.997   0.539   5.876 -0.9183  0.0929  0.1069
  199MOL    C7747993   4.977   0.573   5.996  0.5279 -0.0563  0.2726
  199MOL    C7847994   4.879   0.477   6.062 -0.5431  0.7761 -0.0178
  199MOL    O7947995   5.043   0.655   6.060  0.7756  0.3293 -0.3015
  199MOL    H8047996   5.145   0.739   5.657 -1.0346 -1.2814 -1.7531
  199MOL    H8147997   5.058   0.789   5.793 -0.7274  0.9594 -1.2843
  199MOL    H8247998   5.184   0.620   5.876  0.4788 -1.2389  0.2443
  199MOL    H8347999   4.783   0.459   6.014  0.4488 -0.8424 -1.4443
  199MOL    H8448000   4.851   0.513   6.161  0.4875  0.6499  0.3316
  199MOL    H8548001   4.923   0.378   6.061 -0.5318  0.7840 -0.2536
  199MOL    C8648002   5.188   0.471   5.717  0.0586 -0.4922  0.7086
  199MOL    C8748003   5.306   0.513   5.623 -0.7477 -0.2694 -0.1549
  199MOL    O8848004   5.394   0.600   5.698 -0.1394 -0.2977  0.2030
  199MOL    C8948005   5.460   0.696   5.637 -0.3792  0.3147 -0.6622
  199MOL    C9048006   5.545   0.772   5.736 -0.1875  0.1764  0.1907
  199MOL    O9148007   5.473   0.709   5.513  0.8228  0.1387  0.0367
  199MOL    H9248008   5.217   0.402   5.796  0.0512 -0.9944  0.2736
  199MOL    H9348009   5.119   0.412   5.657  0.3624  0.9204 -1.0958
  199MOL    H9448010   5.265   0.564   5.536  0.1206 -0.7730 -0.8626
  199MOL    H9548011   5.563   0.868   5.689  3.6790 -0.8891 -0.6440
  199MOL    H9648012   5.635   0.712   5.749 -0.6262 -0.0636  2.4043
  199MOL    H9748013   5.494   0.789   5.831  0.5580  0.4387  0.5474
  199MOL    C9848014   5.391   0.386   5.574  0.0312  0.4722 -0.4511
  199MOL    C9948015   5.337   0.320   5.450  0.3583 -0.6632 -0.0813
  199MOL   O10048016   5.398   0.376   5.341 -0.1225  0.2457 -0.1007
  199MOL   C10148017   5.339   0.470   5.267  0.5286 -0.1791 -0.7379
  199MOL   C10248018   5.431   0.543   5.176  0.0459 -0.1075 -0.2158
  199MOL   O10348019   5.219   0.499   5.274  0.2401  0.1205  0.2528
  199MOL   H10448020   5.497   0.412   5.563  0.4757 -0.8123  0.6073
  199MOL   H10548021   5.392   0.316   5.658 -2.0932 -0.4958 -1.2195
  199MOL   H10648022   5.230   0.339   5.460  0.6972  0.1801  2.3753
  199MOL   H10748023   5.370   0.587   5.096  0.7176 -0.2263 -0.7938
  199MOL   H10848024   5.504   0.475   5.133  2.9013  0.6401  3.2026
  199MOL   H10948025   5.490   0.620   5.226 -0.5195  0.9740 -1.1777
  199MOL   C11048026   5.381   0.170   5.445  0.5615 -0.2084  0.0254
  199MOL   C11148027   5.310   0.080   5.560 -0.0876  0.4946 -0.6813
  199MOL   O11248028   5.168   0.079   5.538  0.1342  0.1146  0.4610
  199MOL   C11348029   5.073   0.108   5.640  0.1122  0.5891 -0.3110
  199MOL   C11448030   4.927   0.070   5.594 -0.0676 -0.1463  0.4497
  199MOL   O11548031   5.096   0.142   5.756 -0.3752 -0.5572 -0.0862
  199MOL   H11648032   5.354   0.127   5.348  0.4236 -0.7151  0.2824
  199MOL   H11748033   5.490   0.169   5.449  0.5729 -0.1846 -0.3185
  199MOL   H11848034   5.332   0.128   5.655  0.1635 -0.3936 -0.2858
  199MOL   H11948035   4.861   0.050   5.678 -0.7861  2.9157  0.6735
  199MOL   H12048036   4.927   8.020   5.511 -0.5348 -0.6663  0.8942
  199MOL   H12148037   4.879   0.160   5.554  1.4388 -0.3380 -1.9131
  199MOL   C12248038   5.369   7.959   5.577 -0.2452 -0.1373 -0.0280
  199MOL   C12348039   5.321   7.871   5.695 -0.5277  0.2855  0.9074
  199MOL   O12448040   5.223   7.791   5.638  0.3560  0.4850  0.1814
  199MOL   C12548041   5.117   7.747   5.716  0.4125  0.3801  0.4328
  199MOL   C12648042   5.002   7.679   5.636  0.6275 -0.8104 -1.0083
  199MOL   O12748043   5.110   7.750   5.843  0.0092 -0.7312 -0.6523
  199MOL   H12848044   5.361   7.911   5.479 -1.3744  1.3084 -0.6654
  199MOL   H12948045   5.469   7.984   5.611  0.5329 -2.2864 -0.6537
  199MOL   H13048046   5.270   7.936   5.766 -0.3324  1.8466 -0.3382
  199MOL   H13148047   4.943   7.754   5.582  1.8351  0.0018 -1.2187
  199MOL   H13248048   4.937   7.629   5.708  1.0463 -0.8021 -0.6277
  199MOL   H13348049   5.044   7.605   5.568  0.5491 -1.1106 -0.7267
  199MOL   C13448050   5.435   7.775   5.747  0.2847  0.1953  0.2257
  199MOL   C13548051   5.542   7.855   5.828  0.4797  0.5244  0.5092
  199MOL   O13648052   5.473   7.931   5.932 -0.3751  0.1326 -0.4403
  199MOL   C13748053   5.462   0.041   5.934  0.2330  0.3049 -0.4706
  199MOL   C13848054   5.393   0.093   6.061  0.4568 -0.0913  0.6307
  199MOL   O13948055   5.504   0.118   5.848 -0.7103  0.1238  0.2854
  199MOL   H14048056   5.384   7.707   5.815 -0.3582  1.3741  0.9378
  199MOL   H14148057   5.472   7.714   5.665  0.3111  0.4762  0.0243
  199MOL   H14248058   5.587   7.931   5.764  1.4196  0.1496  0.7325
  199MOL   H14348059   5.290   0.123   6.040  0.9994  1.8190  0.6394
  199MOL   H14448060   5.441   0.182   6.100  0.3886  0.3143 -0.2006
  199MOL   H14548061   5.386   0.015   6.137  1.8709  2.5566  3.5866
  199MOL   C14648062   5.640   7.757   5.897  0.4894 -0.0717  0.8494
  199MOL   C14748063   5.743   7.819   5.998  0.0222  0.0919 -0.4339
  199MOL   O14848064   5.822   7.723   6.070  0.0451 -0.3504 -0.1786
  199MOL   C14948065   5.775   7.656   6.178 -0.2121 -0.0162  0.3807
  199MOL   C15048066   5.878   7.561   6.232  1.1587  0.7126  0.0572
  199MOL   O15148067   5.663   7.667   6.221  0.3236 -0.5669  0.0873
  199MOL   H15248068   5.580   7.689   5.957  1.1834  0.1594  1.8312
  199MOL   H15348069   5.685   7.698   5.818 -0.5696  0.8292 -0.4327
  199MOL   H15448070   5.687   7.881   6.069 -0.6064  1.4623 -2.0968
  199MOL   H15548071   5.903   7.599   6.332  3.4628 -0.5250 -0.0116
  199MOL   H15648072   5.972   7.562   6.176 -0.7323 -3.2781 -3.4578
  199MOL   H15748073   5.841   7.459   6.244  2.4794  0.2261  0.1113
  199MOL   C15848074   5.838   7.925   5.933 -0.4793  1.3763 -0.0328
  199MOL   C15948075   5.961   7.971   6.015 -0.2616 -0.4521  0.3157
  199MOL   O16048076   6.041   0.031   5.926  0.1503  0.4790  0.2696
  199MOL   C16148077   6.176   0.048   5.952 -0.5457  0.5713  0.1371
  199MOL   C16248078   6.244   0.140   5.852 -0.2384  1.2157  0.2351
  199MOL   O16348079   6.240   0.007   6.048  0.5937  0.3920  0.3324
  199MOL   H16448080   5.877   7.887   5.839 -1.5168  0.8307 -0.2526
  199MOL   H16548081   5.775   8.013   5.923 -2.2091  0.4632  2.2894
  199MOL   H16648082   6.013   7.880   6.045  2.0139  0.6470 -0.1465
  199MOL   H16748083   6.325   0.197   5.897  0.9040 -1.4774  1.6909
  199MOL   H16848084   6.177   0.204   5.796  1.4225  1.1822 -1.9012
  199MOL   H16948085   6.295   0.081   5.775  0.8640 -0.9887  2.5991
  199MOL   C17048086   5.918   0.014   6.145 -0.1822 -0.1022 -0.2279
  199MOL   C17148087   6.014   0.008   6.266  0.6245 -0.1243  0.7032
  199MOL   O17248088   5.932   0.053   6.373 -0.1987 -1.1004 -0.1748
  199MOL   C17348089   5.964   0.165   6.443 -0.7654 -0.3575  0.6034
  199MOL   C17448090   5.868   0.200   6.563 -1.0881 -0.2801  0.0997
  199MOL   O17548091   6.043   0.250   6.402 -0.3479 -0.4433  0.3386
  199MOL   H17648092   5.893   0.119   6.127  0.7013 -0.1032 -1.4681
  199MOL   H17748093   5.829   7.987   6.187 -0.3440 -1.4398 -2.0852
  199MOL   H17848094   6.096   0.075   6.240  1.0501 -0.7650  0.3862
  199MOL   H17948095   5.788   0.127   6.558 -1.5413  0.0870  1.6018
  199MOL   H18048096   5.844   0.302   6.534  0.3565 -0.1985 -0.8393
  199MOL   H18148097   5.918   0.185   6.659 -0.6151 -1.4131 -0.3239
  199MOL   C18248098   6.084   7.896   6.299  0.2919 -0.0487  0.5480
  199MOL   C18348099   6.164   7.898   6.433  0.3284 -0.1651  0.1735
  199MOL   O18448100   6.173   7.770   6.492 -0.4922 -0.6682 -0.0385
  199MOL   C18548101   6.079   7.727   6.578 -0.1335  0.3437 -0.8160
  199MOL   C18648102   6.106   7.586   6.644  0.2923  0.0986  0.0974
  199MOL   O18748103   5.987   7.793   6.622  0.2618 -0.3593 -0.1278
  199MOL   H18848104   5.998   7.831   6.318 -0.8164  0.6551 -1.8804
  199MOL   H18948105   6.141   7.852   6.218 -3.1657 -1.3596 -1.2709
  199MOL   H19048106   6.116   7.966   6.504  0.9863 -0.3540  0.8035
  199MOL   H19148107   6.178   7.591   6.726  0.5744  2.5220 -0.2791
  199MOL   H19248108   6.149   7.515   6.574  0.4561  0.4220 -0.1282
  199MOL   H19348109   6.027   7.533   6.699  2.5850 -0.9266  2.5164
  199MOL   C19448110   6.312   7.942   6.413 -0.4224 -0.1091  0.2893
  199MOL   C19548111   6.351   0.028   6.510  0.2137 -0.2057 -0.3540
  199MOL   O19648112   6.343   7.996   6.640 -0.2270 -0.8087  0.0181
  199MOL   C19748113   6.277   0.034   6.746 -0.4049 -0.3393 -0.1606
  199MOL   C19848114   6.236   7.964   6.864 -0.5001 -0.1362  0.4314
  199MOL   O19948115   6.232   0.146   6.744 -0.4547 -0.0149 -0.2227
  199MOL   H20048116   6.375   7.853   6.425  0.2600  0.6449  2.6456
  199MOL   H20148117   6.327   7.980   6.312  1.7551  1.6623  1.2403
  199MOL   H20248118   6.289   0.117   6.508 -0.5185 -0.7194 -0.5484
  199MOL   H20348119   6.169   7.889   6.822  1.0194 -2.0427  1.3302
  199MOL   H20448120   6.189   0.001   6.943  0.0326 -0.8958  1.3320
  199MOL   H20548121   6.328   7.917   6.899  0.0353  1.4035  1.1176
  199MOL   C20648122   6.496   0.083   6.503  0.2224  0.4866  0.1150
  199MOL   C20748123   6.516   0.196   6.395 -0.6197  0.3976 -0.1365
  199MOL   O20848124   6.512   0.133   6.269  0.1429 -0.0418  0.0549
  199MOL   C20948125   6.614   0.074   6.210  0.2185 -0.0155 -0.7809
  199MOL   C21048126   6.578   0.025   6.071  0.7685  0.3563 -0.2274
  199MOL   O21148127   6.727   0.051   6.253  0.0768 -0.6295 -0.3647
  199MOL   H21248128   6.519   0.128   6.600  0.5017  0.3806  0.0974
  199MOL   H21348129   6.566   0.000   6.490 -0.6297 -0.1632 -0.3816
  199MOL   H21448130   6.617   0.234   6.412 -0.7942  1.6554 -1.7322
  199MOL   H21548131   6.508   7.966   6.095  1.4879 -0.0998  0.3525
  199MOL   H21648132   6.662   7.999   6.020  0.0271 -0.3178 -0.8464
  199MOL   H21748133   6.525   0.098   6.010 -0.6746 -0.0261  0.5259
  199MOL   C21848134   6.415   0.315   6.379 -0.3070  0.4538  0.0729
  199MOL   C21948135   6.373   0.392   6.502  0.5181 -0.1394 -0.0773
  199MOL   O22048136   6.487   0.457   6.542 -0.2946 -0.0206 -0.4782
  199MOL   C22148137   6.550   0.422   6.653  0.2918  0.3359  0.2256
  199MOL   C22248138   6.630   0.537   6.716  0.4120  0.5321  0.4070
  199MOL   O22348139   6.516   0.330   6.728 -0.3801 -0.0355 -0.2280
  199MOL   H22448140   6.470   0.372   6.304  1.1224 -2.9272 -1.5236
  199MOL   H22548141   6.320   0.288   6.333 -1.0364  1.4757  0.9534
  199MOL   H22648142   6.337   0.311   6.564  0.5416  0.0688  0.2065
  199MOL   H22748143   6.693   0.494   6.794  1.6708 -1.1185 -1.4644
  199MOL   H22848144   6.563   0.613   6.755  0.1565  0.7707 -0.4923
  199MOL   H22948145   6.692   0.581   6.638  0.7125  1.4561  1.1648
  199MOL   C23048146   6.263   0.486   6.480 -0.5166  0.0569  0.3475
  199MOL   C23148147   6.197   0.525   6.600  0.6779  0.1496  0.0243
  199MOL   O23248148   6.278   0.611   6.672  0.7632 -0.3875 -0.4404
  199MOL   C23348149   6.268   0.742   6.651  0.1549 -0.2993  0.3586
  199MOL   C23448150   6.349   0.824   6.749 -0.3338  0.1372  0.6513
  199MOL   O23548151   6.179   0.798   6.582 -0.6615  0.4197 -0.0702
  199MOL   H23648152   6.299   0.573   6.423 -0.7471 -0.8573 -1.2255
  199MOL   H23748153   6.188   0.444   6.413  1.6043  0.5643 -2.4802
  199MOL   H23848154   6.168   0.437   6.657 -0.3127  0.1986 -0.4022
  199MOL   H23948155   6.344   0.929   6.718  1.3531  0.1322  0.2943
  199MOL   H24048156   6.451   0.785   6.748 -0.2372  0.3899  0.2379
  199MOL   H24148157   6.325   0.820   6.855 -1.7125  1.7614  0.4220
  199MOL   H24248158   6.101   0.574   6.585 -0.1839 -1.8525 -1.2006
  200MOL     C148159   0.013   0.209   5.482 -0.5797 -0.0742  0.2876
  200MOL     C248160   0.043   0.237   5.334  0.1376 -0.1125 -0.3429
  200MOL     O348161   7.951   0.181   5.262  0.4280  0.1036 -0.1602
  200MOL     C448162   7.961   0.057   5.219 -0.2197 -0.2408  0.9876
  200MOL     C548163   7.840   0.004   5.144 -0.2621  0.0521  0.1592
  200MOL     O648164   0.038   8.003   5.243  0.0290 -0.3192  0.1446
  200MOL     H748165   0.085   0.255   5.550 -1.4879  2.9657 -0.7620
  200MOL     H848166   0.017   0.104   5.513 -1.5011  1.2462  5.2315
  200MOL     H948167   0.136   0.183   5.316  0.0663 -0.0793 -0.8197
  200MOL    H1048168   7.777   7.977   5.218  2.8278 -2.9698  0.8932
  200MOL    H1148169   7.866   7.945   5.075 -2.0580 -0.6506  0.2721
  200MOL    H1248170   7.777   0.078   5.094 -0.2673  0.8096  1.2743
  200MOL    H1348171   7.933   0.240   5.505 -0.6406  0.2478 -0.4034
  200MOL    C1448172   0.071   0.384   5.311 -0.6882  0.0623 -0.0008
  200MOL    C1548173   0.141   0.412   5.180 -0.2152 -0.6046 -0.5230
  200MOL    O1648174   0.089   0.348   5.066 -0.4932 -0.3891  0.1555
  200MOL    C1748175   7.985   0.379   5.008  0.2144  0.2242  0.3720
  200MOL    C1848176   7.967   0.305   4.875  0.1841 -0.9132  0.3188
  200MOL    O1948177   7.898   0.453   5.052 -0.0894 -0.0188 -0.4161
  200MOL    H2048178   8.000   0.441   5.312 -1.7285 -1.4851 -2.6388
  200MOL    H2148179   0.133   0.428   5.389 -0.8195  1.0989 -0.4819
  200MOL    H2248180   0.239   0.364   5.185  0.9538  1.6463 -0.9412
  200MOL    H2348181   7.873   0.250   4.883  0.3965 -1.4298 -0.6597
  200MOL    H2448182   0.032   0.239   4.865 -1.3592 -2.8428 -0.9248
  200MOL    H2548183   7.955   0.380   4.797  3.1676  0.8983  1.5377
  200MOL    C2648184   0.177   0.562   5.163 -0.5508 -0.1573 -0.5751
  200MOL    C2748185   0.265   0.590   5.035 -0.4310  0.1241 -0.3600
  200MOL    O2848186   0.232   0.719   4.996  0.2683  0.0712 -0.3852
  200MOL    C2948187   0.165   0.747   4.880 -0.4861  0.1206  0.0245
  200MOL    C3048188   0.167   0.894   4.861 -0.2863  0.2756 -0.3262
  200MOL    O3148189   0.126   0.663   4.803  0.2939  0.1910 -0.0790
  200MOL    H3248190   0.080   0.611   5.169 -1.1444 -1.2904 -0.6830
  200MOL    H3348191   0.235   0.610   5.241  0.7564  1.2286 -2.3526
  200MOL    H3448192   0.234   0.519   4.958  0.5885  0.9469 -1.5343
  200MOL    H3548193   0.070   0.944   4.858  0.8711  2.6381  0.0564
  200MOL    H3648194   0.223   0.908   4.769  0.8053  0.2848  0.3282
  200MOL    H3748195   0.227   0.939   4.941 -2.4797 -0.8504  2.0198
  200MOL    C3848196   0.419   0.600   5.061 -0.1191  0.2536 -0.5581
  200MOL    C3948197   0.496   0.465   5.043  0.1269  0.2174  0.3095
  200MOL    O4048198   0.483   0.420   4.907 -0.6297  0.2983 -0.5990
  200MOL    C4148199   0.460   0.288   4.873  0.5024 -0.3412 -0.2213
  200MOL    C4248200   0.446   0.256   4.726 -0.2057  0.0987  0.5401
  200MOL    O4348201   0.459   0.199   4.955 -0.3305 -0.3169  0.3861
  200MOL    H4448202   0.462   0.668   4.989 -0.1295  0.3410 -0.4811
  200MOL    H4548203   0.449   0.634   5.160  0.6925  1.0690 -1.0869
  200MOL    H4648204   0.456   0.395   5.117  0.0722 -0.5780 -0.4605
  200MOL    H4748205   0.349   0.209   4.709  0.0174  0.2303 -1.2246
  200MOL    H4848206   0.532   0.200   4.687  0.2663  1.3637 -0.2511
  200MOL    H4948207   0.439   0.337   4.654 -0.1616 -2.1937 -2.1690
  200MOL    C5048208   0.644   0.467   5.088 -0.5130  0.4243 -0.0627
  200MOL    C5148209   0.668   0.433   5.231  0.1094 -0.0258  0.2741
  200MOL    O5248210   0.631   0.299   5.252  0.3916  0.4404  0.4167
  200MOL    C5348211   0.512   0.274   5.309 -0.0108 -0.6681  0.6203
  200MOL    C5448212   0.476   0.122   5.320  0.1819  0.4491  0.5771
  200MOL    O5548213   0.425   0.355   5.346 -0.3563 -0.5550  0.4945
  200MOL    H5648214   0.697   0.395   5.025  0.4764  0.4946  0.6708
  200MOL    H5748215   0.680   0.566   5.061  0.8140 -0.1031 -0.2970
  200MOL    H5848216   0.606   0.499   5.292  0.8518  2.2802 -1.4051
  200MOL    H5948217   0.477   0.089   5.424  1.7526 -1.9852 -0.1748
  200MOL    H6048218   0.535   0.057   5.256 -0.4108  0.9500 -0.4842
  200MOL    H6148219   0.376   0.110   5.279  0.1914  1.2984  0.2957
  200MOL    C6248220   0.806   0.454   5.290  0.0132  0.0095  0.0985
  200MOL    C6348221   0.870   0.597   5.284 -0.0351 -0.0150  0.7019
  200MOL    O6448222   0.798   0.682   5.369 -0.1408  0.3549  0.0315
  200MOL    C6548223   0.740   0.791   5.323 -0.5503 -0.1268  0.0389
  200MOL    C6648224   0.679   0.873   5.436  0.4405  0.3257  0.2684
  200MOL    O6748225   0.752   0.837   5.205  0.0577  0.6954  0.3346
  200MOL    H6848226   0.795   0.419   5.393  1.4913  1.3223  0.7270
  200MOL    H6948227   0.868   0.381   5.239 -1.4256 -1.2520  0.0992
  200MOL    H7048228   0.855   0.636   5.183 -1.8113  0.4243  1.1133
  200MOL    H7148229   0.624   0.962   5.409  0.1395 -0.0709 -0.4255
  200MOL    H7248230   0.747   0.910   5.513  1.2044 -2.2758  0.9209
  200MOL    H7348231   0.613   0.800   5.483 -1.2507  0.4104 -1.9083
  200MOL    C7448232   1.022   0.594   5.311  0.1018 -0.0204 -0.6300
  200MOL    C7548233   1.108   0.725   5.291  0.4139 -0.3897  0.1503
  200MOL    O7648234   1.231   0.711   5.359 -0.6655  0.4815  0.7037
  200MOL    C7748235   1.268   0.781   5.465 -0.3983 -0.0280  0.0740
  200MOL    C7848236   1.418   0.768   5.506  1.3007 -0.5935 -0.3909
  200MOL    O7948237   1.192   0.858   5.524  0.5311  0.0702  0.1304
  200MOL    H8048238   1.038   0.583   5.418 -0.6347 -0.0597 -0.5239
  200MOL    H8148239   1.060   0.510   5.252 -0.8075 -0.3096 -0.8076
  200MOL    H8248240   1.047   0.802   5.339  0.1355 -1.5437  1.6979
  200MOL    H8348241   1.459   0.868   5.517 -1.0198  0.2786  0.6802
  200MOL    H8448242   1.460   0.697   5.435  0.3739 -1.4792 -0.0677
  200MOL    H8548243   1.418   0.726   5.606  0.6840 -1.5673 -0.7903
  200MOL    C8648244   1.116   0.783   5.149 -0.5013 -0.4242 -0.5597
  200MOL    C8748245   1.194   0.915   5.141 -0.5901  0.3015 -0.2905
  200MOL    O8848246   1.197   0.942   5.004  0.5470  0.0521 -0.2924
  200MOL    C8948247   1.301   0.899   4.929 -0.4232  0.3671  0.4770
  200MOL    C9048248   1.277   0.933   4.783 -0.4275 -0.4058 -0.3869
  200MOL    O9148249   1.380   0.809   4.953 -0.4462  0.0122  0.2089
  200MOL    H9248250   1.169   0.709   5.089  1.6949  1.2802 -0.7801
  200MOL    H9348251   1.019   0.793   5.101 -0.6156 -0.5295 -0.3482
  200MOL    H9448252   1.296   0.902   5.177 -0.8346  1.5517  0.8951
  200MOL    H9548253   1.205   0.869   4.731 -1.8083  0.5185  0.3732
  200MOL    H9648254   1.370   0.955   4.729  0.3699 -1.1240  0.6701
  200MOL    H9748255   1.223   1.025   4.762  0.9722  0.0880 -1.9261
  200MOL    C9848256   1.145   1.044   5.212 -0.3497  0.0795 -0.1163
  200MOL    C9948257   1.230   1.174   5.213 -0.7046  0.2135  0.5577
  200MOL   O10048258   1.345   1.158   5.292 -0.3035  0.2784 -0.7653
  200MOL   C10148259   1.342   1.187   5.423  0.0836 -0.0972 -0.4071
  200MOL   C10248260   1.462   1.143   5.502 -0.5733 -0.5872  0.1642
  200MOL   O10348261   1.252   1.238   5.487  0.9444 -0.1743  0.0641
  200MOL   H10448262   1.048   1.067   5.168 -0.6272 -0.6022  0.1447
  200MOL   H10548263   1.131   1.018   5.317  1.0109 -2.0050 -0.4317
  200MOL   H10648264   1.159   1.249   5.248 -1.2319 -0.7304  1.5388
  200MOL   H10748265   1.519   1.064   5.453 -2.2082 -0.5714 -1.8288
  200MOL   H10848266   1.423   1.099   5.594  0.4906  2.3030  2.0452
  200MOL   H10948267   1.532   1.225   5.518 -1.1180  0.2333 -1.5138
  200MOL   C11048268   1.278   1.220   5.072  0.4389  0.0182  0.4217
  200MOL   C11148269   1.329   1.364   5.056  0.5751 -0.4329  0.4230
  200MOL   O11248270   1.359   1.364   4.918  0.1755  0.3352 -0.2522
  200MOL   C11348271   1.480   1.336   4.879 -0.2782  0.2576 -0.4132
  200MOL   C11448272   1.513   1.369   4.734  0.0662 -0.5588  0.3620
  200MOL   O11548273   1.577   1.299   4.950 -0.5084  0.3660 -0.8065
  200MOL   H11648274   1.362   1.154   5.048  0.0620 -0.6131  0.8386
  200MOL   H11748275   1.195   1.193   5.008  1.0124 -1.6364  0.3535
  200MOL   H11848276   1.415   1.379   5.121  0.5205  2.2744 -0.0712
  200MOL   H11948277   1.609   1.420   4.730  0.2877 -0.9429  0.7226
  200MOL   H12048278   1.434   1.428   4.689  0.6855  0.1571  0.2032
  200MOL   H12148279   1.518   1.273   4.681 -1.7083 -0.5507  0.1542
  200MOL   C12248280   1.221   1.474   5.089 -0.8184 -0.5357  0.3956
  200MOL   C12348281   1.241   1.616   5.024 -0.7172 -0.3781 -0.2315
  200MOL   O12448282   1.130   1.698   4.995 -0.0382  0.9146  0.5682
  200MOL   C12548283   1.062   1.667   4.879  0.1882 -0.3876  0.4765
  200MOL   C12648284   0.962   1.780   4.852  0.4662  0.6069 -0.1137
  200MOL   O12748285   1.080   1.568   4.808  0.6835  0.0702  0.2525
  200MOL   H12848286   1.125   1.450   5.044 -1.6058 -0.2796  1.9436
  200MOL   H12948287   1.203   1.476   5.196  0.4711  3.6370  0.6341
  200MOL   H13048288   1.290   1.583   4.932  0.8186 -0.3252  0.5454
  200MOL   H13148289   0.904   1.766   4.760  0.9361  0.4497 -0.3907
  200MOL   H13248290   1.009   1.878   4.846 -0.6495  1.1198 -0.7270
  200MOL   H13348291   0.885   1.785   4.929 -0.2936  0.0651 -0.8255
  200MOL   C13448292   1.339   1.703   5.098 -0.1345 -0.7691  0.3494
  200MOL   C13548293   1.453   1.740   5.006  0.2449  0.2182  0.2391
  200MOL   O13648294   1.418   1.824   4.884  0.5950  0.5010 -0.2979
  200MOL   C13748295   1.433   1.773   4.753  0.3073  0.2229 -0.4855
  200MOL   C13848296   1.373   1.867   4.651  0.8502  0.2990  0.1044
  200MOL   O13948297   1.465   1.659   4.725 -0.2561 -0.3111  0.5979
  200MOL   H14048298   1.281   1.788   5.135 -1.6327 -1.1883 -0.9902
  200MOL   H14148299   1.388   1.657   5.184 -1.7950  0.9816  2.2998
  200MOL   H14248300   1.507   1.650   4.976 -0.7437 -1.4786  3.3178
  200MOL   H14348301   1.311   1.826   4.572  0.6029 -2.0472  1.4724
  200MOL   H14448302   1.448   1.931   4.604  0.9484 -0.3295 -0.6011
  200MOL   H14548303   1.319   1.934   4.718  0.3027 -0.9700  0.9525
  200MOL   C14648304   1.562   1.827   5.081  0.4109  0.0417 -0.3543
  200MOL   C14748305   1.633   1.753   5.196  0.2489  0.1382 -0.4265
  200MOL   O14848306   1.702   1.637   5.143  0.3017  0.3573  0.1198
  200MOL   C14948307   1.672   1.516   5.189 -0.9146  0.4208 -0.1004
  200MOL   C15048308   1.778   1.407   5.154  0.1117 -0.1633  0.3561
  200MOL   O15148309   1.581   1.491   5.267 -0.2522  0.1513 -0.2386
  200MOL   H15248310   1.636   1.847   5.003  0.7606 -4.1358 -1.2321
  200MOL   H15348311   1.527   1.926   5.109  0.9771  0.4374 -1.0197
  200MOL   H15448312   1.557   1.721   5.267 -0.3456  3.1814  0.3677
  200MOL   H15548313   1.730   1.311   5.173 -0.9179  0.3414  0.3403
  200MOL   H15648314   1.868   1.432   5.210 -0.0167  2.4222 -0.4910
  200MOL   H15748315   1.803   1.411   5.048 -1.2437  1.1347  0.0601
  200MOL   C15848316   1.736   1.840   5.257 -0.4998  0.1154 -0.3459
  200MOL   C15948317   1.798   1.804   5.391  0.3103 -0.1850 -0.6568
  200MOL   O16048318   1.907   1.887   5.410  0.2853 -0.8816  0.1630
  200MOL   C16148319   2.010   1.845   5.484 -0.1071  0.1755 -0.4121
  200MOL   C16248320   2.143   1.917   5.452  0.1049 -0.8477  0.6943
  200MOL   O16348321   2.001   1.764   5.578  0.3755  0.0064  0.1256
  200MOL   H16448322   1.808   1.869   5.181  0.8706  1.6321  1.4703
  200MOL   H16548323   1.687   1.933   5.286  1.5556  0.6190  1.6980
  200MOL   H16648324   1.849   1.712   5.361  0.5229  0.6301 -2.8802
  200MOL   H16748325   2.177   1.890   5.352 -0.9951  0.4661 -0.0465
  200MOL   H16848326   2.223   1.895   5.523 -0.8329  0.2037  2.1098
  200MOL   H16948327   2.132   2.025   5.453  0.1836 -0.8170 -0.8852
  200MOL   C17048328   1.699   1.792   5.507  0.4977  0.2467  0.5144
  200MOL   C17148329   1.641   1.927   5.550 -0.0253  0.4344  0.2329
  200MOL   O17248330   1.514   1.914   5.601 -0.0125 -0.1547  0.5230
  200MOL   C17348331   1.411   1.922   5.501 -0.1088  0.1690 -0.5613
  200MOL   C17448332   1.277   1.941   5.560  0.2540  0.7535 -0.1109
  200MOL   O17548333   1.424   1.921   5.379  0.2548  0.3186  0.6896
  200MOL   H17648334   1.625   1.719   5.476  1.5852 -1.4416  1.8176
  200MOL   H17748335   1.752   1.746   5.590  0.8359  0.8679  0.6530
  200MOL   H17848336   1.648   2.002   5.471 -0.3899 -1.0442 -1.1998
  200MOL   H17948337   1.261   2.046   5.585  1.5346  1.7321 -3.0813
  200MOL   H18048338   1.246   1.878   5.643  0.2556  2.4388  1.2072
  200MOL   H18148339   1.204   1.913   5.485 -1.2331 -1.9690  2.2677
  200MOL   C18248340   1.724   1.989   5.669  0.3244  0.8350  0.0094
  200MOL   C18348341   1.688   2.132   5.715  0.6998 -0.4888 -0.6573
  200MOL   O18448342   1.732   2.162   5.847 -0.6018 -0.2357  0.0968
  200MOL   C18548343   1.641   2.169   5.946  0.3836  0.4437 -0.2160
  200MOL   C18648344   1.706   2.214   6.074 -0.1200  0.1497 -0.0033
  200MOL   O18748345   1.516   2.138   5.939  0.2706 -0.2696 -0.1600
  200MOL   H18848346   1.707   1.916   5.748  2.4835  0.5167  0.2214
  200MOL   H18948347   1.830   1.984   5.646 -0.0680 -1.8884 -1.3878
  200MOL   H19048348   1.581   2.152   5.705  1.0336  2.2044  0.7793
  200MOL   H19148349   1.656   2.291   6.133 -1.0010 -1.0930  0.9134
  200MOL   H19248350   1.807   2.247   6.050 -0.5742  0.1092 -2.0638
  200MOL   H19348351   1.714   2.122   6.131 -0.6103 -1.2917 -2.2002
  200MOL   C19448352   1.762   2.240   5.623 -0.2472  0.1018  0.5852
  200MOL   C19548353   1.713   2.385   5.642  0.1409 -0.1498  0.2608
  200MOL   O19648354   1.579   2.404   5.661 -0.5576  0.7083  0.0374
  200MOL   C19748355   1.492   2.407   5.566 -1.2624  0.5919 -0.2569
  200MOL   C19848356   1.351   2.418   5.617 -0.2432 -0.5851 -0.0304
  200MOL   O19948357   1.515   2.425   5.447  0.2811 -0.7800  0.1991
  200MOL   H20048358   1.868   2.220   5.637  0.0459  1.5521  0.5116
  200MOL   H20148359   1.741   2.219   5.518 -0.5136 -2.9376  1.1927
  200MOL   H20248360   1.732   2.429   5.544  0.6174  0.2353  0.5207
  200MOL   H20348361   1.282   2.361   5.555  0.3074 -0.4142 -0.8140
  200MOL   H20448362   1.308   2.517   5.610 -1.3195 -1.0804 -0.5086
  200MOL   H20548363   1.341   2.392   5.722  0.0370  0.1690  0.1821
  200MOL   C20648364   1.798   2.454   5.747  0.2822  0.7015  0.4177
  200MOL   C20748365   1.952   2.441   5.719 -0.1207 -0.7701  0.6882
  200MOL   O20848366   1.967   2.468   5.581 -0.3213  0.6387 -0.5262
  200MOL   C20948367   2.070   2.403   5.519  0.9135  0.1112 -0.1560
  200MOL   C21048368   2.079   2.450   5.375 -0.0727  0.4450  0.0613
  200MOL   O21148369   2.157   2.328   5.571  0.3069 -0.3343 -0.6419
  200MOL   H21248370   1.766   2.558   5.751 -2.3154 -0.0117 -0.3508
  200MOL   H21348371   1.777   2.419   5.848  0.5006  0.2213  0.2984
  200MOL   H21448372   1.994   2.343   5.741  1.4209 -0.5988 -1.3088
  200MOL   H21548373   1.983   2.449   5.323  0.5281 -1.2615 -1.0380
  200MOL   H21648374   2.150   2.383   5.326 -0.3923  0.4632 -0.4326
  200MOL   H21748375   2.107   2.556   5.381 -0.7057  0.6652 -0.7287
  200MOL   C21848376   2.028   2.553   5.797  0.9005  0.3046  1.1026
  200MOL   C21948377   2.028   2.534   5.943  0.1453  0.2701  0.1920
  200MOL   O22048378   2.099   2.416   5.970  0.0901 -0.1444 -0.1233
  200MOL   C22148379   2.076   2.332   6.072 -0.8222 -0.1954 -0.0956
  200MOL   C22248380   2.187   2.220   6.062  0.8361 -0.3325 -0.0448
  200MOL   O22348381   2.006   2.346   6.170 -0.1786  0.8567 -0.0927
  200MOL   H22448382   2.132   2.543   5.766  0.5146  0.1356 -0.1493
  200MOL   H22548383   1.999   2.647   5.750  1.6353 -0.2879 -0.5867
  200MOL   H22648384   1.930   2.514   5.985 -0.2425 -0.3716 -1.0214
  200MOL   H22748385   2.274   2.239   6.000 -0.0455 -1.9242 -1.8092
  200MOL   H22848386   2.143   2.129   6.021 -1.0415 -0.1930  1.5640
  200MOL   H22948387   2.221   2.198   6.163  0.3965  1.9498  0.6336
  200MOL   C23048388   2.100   2.659   6.003  0.2298 -0.9966  0.3677
  200MOL   C23148389   2.051   2.693   6.137 -0.3555 -0.1750 -0.2049
  200MOL   O23248390   2.162   2.750   6.193 -0.2329  0.4338  0.0561
  200MOL   C23348391   2.139   2.842   6.295 -0.8406  0.2609 -0.3348
  200MOL   C23448392   2.259   2.938   6.298 -0.4940  1.0304  0.3708
  200MOL   O23548393   2.040   2.864   6.370 -0.0355 -0.0028  0.3634
  200MOL   H23648394   2.206   2.634   5.999  0.0157 -2.5726  3.3385
  200MOL   H23748395   2.078   2.740   5.932  0.2587 -0.4845  0.9421
  200MOL   H23848396   2.026   2.599   6.185  0.0493 -1.2629 -2.0693
  200MOL   H23948397   2.361   2.899   6.291 -0.6021  0.5410  1.3570
  200MOL   H24048398   2.259   3.007   6.383 -1.0296  2.2823 -0.6332
  200MOL   H24148399   2.261   3.001   6.209 -0.1914  1.1545  0.4625
  200MOL   H24248400   1.976   2.773   6.138  0.6961  0.8281  0.1154
  201MOL     C148401   3.465   5.123   1.657  0.3186  0.3715 -0.4286
  201MOL     C248402   3.368   5.126   1.773 -0.1591  0.4694  0.3796
  201MOL     O348403   3.276   5.021   1.748 -0.3543  0.0097  0.1151
  201MOL     C448404   3.143   5.045   1.753  0.8516  0.1604  0.4833
  201MOL     C548405   3.070   4.912   1.766  0.3998  0.2699 -0.2491
  201MOL     O648406   3.081   5.150   1.744 -0.2486  0.1144  0.1497
  201MOL     H748407   3.511   5.024   1.655 -1.2354 -0.3474 -1.1024
  201MOL     H848408   3.539   5.202   1.649  0.2864  0.4510  0.0433
  201MOL     H948409   3.310   5.218   1.766 -0.7141  0.0343 -1.0024
  201MOL    H1048410   3.037   4.883   1.666 -0.0731 -1.1481  0.3172
  201MOL    H1148411   2.982   4.907   1.831  1.2056 -0.9121  0.7661
  201MOL    H1248412   3.127   4.829   1.807  0.7404  1.3879  1.6213
  201MOL    H1348413   3.405   5.132   1.566 -2.0792 -0.4067  1.0209
  201MOL    C1448414   3.438   5.113   1.908 -0.0819  0.1876  0.1996
  201MOL    C1548415   3.323   5.137   2.018 -0.2839  0.6694  0.2726
  201MOL    O1648416   3.373   5.105   2.154 -0.2216 -0.0072 -0.4643
  201MOL    C1748417   3.291   5.045   2.236 -0.3205 -0.0211 -0.1314
  201MOL    C1848418   3.354   5.047   2.378  0.3154 -0.2709 -0.2536
  201MOL    O1948419   3.173   5.018   2.219 -0.4851 -0.3449  0.0557
  201MOL    H2048420   3.475   5.011   1.922  1.5880  0.9354  1.3169
  201MOL    H2148421   3.520   5.183   1.926  1.1331 -0.2631 -3.1220
  201MOL    H2248422   3.227   5.089   2.000 -1.6523  2.9268  1.2924
  201MOL    H2348423   3.335   5.147   2.416 -2.5204 -0.0389 -2.1486
  201MOL    H2448424   3.461   5.027   2.368  0.0653 -1.9508  0.1832
  201MOL    H2548425   3.301   4.979   2.446  0.8640 -0.6034 -0.1527
  201MOL    C2648426   3.294   5.288   2.022 -0.0422  0.1845  0.3949
  201MOL    C2748427   3.181   5.340   2.111 -0.8655 -0.5430  0.1408
  201MOL    O2848428   3.171   5.482   2.087  0.0981 -0.5772 -0.0734
  201MOL    C2948429   3.175   5.563   2.192  0.0195  0.5485  1.1161
  201MOL    C3048430   3.178   5.705   2.144  0.1403  0.2178 -0.2688
  201MOL    O3148431   3.170   5.529   2.314 -0.1210 -0.5043  0.0112
  201MOL    H3248432   3.388   5.338   2.046 -1.6007  3.1652  0.5972
  201MOL    H3348433   3.287   5.330   1.922 -0.4646  0.0685  0.3737
  201MOL    H3448434   3.201   5.328   2.218 -2.6408 -0.8069  0.4688
  201MOL    H3548435   3.241   5.714   2.056 -1.6782  0.1872 -1.6117
  201MOL    H3648436   3.230   5.761   2.221  1.9686 -1.2864 -0.3905
  201MOL    H3748437   3.084   5.747   2.108  1.0215  3.7493  1.3309
  201MOL    C3848438   3.045   5.280   2.076 -0.0938  0.2322 -0.0027
  201MOL    C3948439   2.927   5.308   2.177 -0.3903  0.2375 -0.4877
  201MOL    O4048440   2.807   5.272   2.118 -0.5756  0.1664 -0.4861
  201MOL    C4148441   2.720   5.355   2.057  0.2327  0.3949  0.1730
  201MOL    C4248442   2.596   5.277   2.013  0.1499 -0.6657  0.2001
  201MOL    O4348443   2.727   5.474   2.040  0.5297 -0.0251 -0.1146
  201MOL    H4448444   3.028   5.308   1.972 -0.4879  0.8640  0.2306
  201MOL    H4548445   3.044   5.171   2.073 -1.3007  0.2010  1.0684
  201MOL    H4648446   2.909   5.415   2.187 -0.6848  0.4454 -2.9974
  201MOL    H4748447   2.506   5.332   2.042  0.8360  0.0766  0.9464
  201MOL    H4848448   2.606   5.181   2.064  3.0965  0.2569  1.4555
  201MOL    H4948449   2.595   5.263   1.905  2.4017 -1.1124  0.2163
  201MOL    C5048450   2.932   5.256   2.322  0.0889 -0.3218 -0.4163
  201MOL    C5148451   2.806   5.282   2.412  0.0706 -0.3303  0.1187
  201MOL    O5248452   2.764   5.153   2.457 -0.8442  0.2111 -0.5262
  201MOL    C5348453   2.655   5.094   2.403 -0.2502  0.0176 -0.3541
  201MOL    C5448454   2.635   4.946   2.451 -0.2032  0.5578  0.0602
  201MOL    O5548455   2.567   5.137   2.332 -0.2177  0.4856 -0.4853
  201MOL    H5648456   2.950   5.149   2.318 -1.3751 -0.5874 -0.2272
  201MOL    H5748457   3.029   5.286   2.362  0.2563 -2.1215  0.5653
  201MOL    H5848458   2.727   5.332   2.356  1.6066  3.0509  0.8814
  201MOL    H5948459   2.661   4.932   2.555 -2.0087 -1.6916  0.2492
  201MOL    H6048460   2.686   4.882   2.380 -1.5204 -0.1946 -0.2337
  201MOL    H6148461   2.530   4.917   2.438 -0.1602 -0.0689  1.1196
  201MOL    C6248462   2.838   5.364   2.544  0.2739  0.4579  0.4146
  201MOL    C6348463   2.710   5.434   2.601  0.1275  0.5136  0.3192
  201MOL    O6448464   2.742   5.489   2.728 -0.3960 -0.2068  0.3562
  201MOL    C6548465   2.657   5.488   2.829  0.5978  0.2736 -0.2777
  201MOL    C6648466   2.710   5.547   2.953  0.0078  0.2405 -0.4289
  201MOL    O6748467   2.540   5.442   2.825 -0.4505 -0.0527  0.4786
  201MOL    H6848468   2.882   5.300   2.621 -1.3459  1.4084  2.1749
  201MOL    H6948469   2.920   5.434   2.527  2.0452 -1.2984  1.5245
  201MOL    H7048470   2.634   5.357   2.615 -0.3136  1.3337  2.6831
  201MOL    H7148471   2.747   5.648   2.936 -0.9960  0.5562 -0.8104
  201MOL    H7248472   2.792   5.490   2.997 -0.5559  1.3437  2.1519
  201MOL    H7348473   2.628   5.561   3.024 -2.4530 -0.2041 -3.0951
  201MOL    C7448474   2.661   5.543   2.509 -0.2348 -0.0139  0.1170
  201MOL    C7548475   2.509   5.566   2.515 -0.2217  0.0240  0.2119
  201MOL    O7648476   2.474   5.694   2.452 -0.6597  0.2429  0.4896
  201MOL    C7748477   2.424   5.785   2.532 -0.0375 -0.1130 -0.4753
  201MOL    C7848478   2.387   5.914   2.456 -1.3620  0.8090  0.1200
  201MOL    O7948479   2.419   5.787   2.654 -0.2452  0.3458  0.4406
  201MOL    H8048480   2.712   5.634   2.540  0.1241  0.4123 -1.6697
  201MOL    H8148481   2.694   5.526   2.406 -0.5195  0.9626 -0.1397
  201MOL    H8248482   2.470   5.556   2.617  0.9095 -2.4978  0.4438
  201MOL    H8348483   2.372   6.000   2.522  1.4275  2.5500 -1.4019
  201MOL    H8448484   2.291   5.897   2.406 -1.1795 -2.7319  0.9090
  201MOL    H8548485   2.463   5.936   2.381  1.2304 -0.9270  2.1815
  201MOL    C8648486   2.444   5.461   2.422  0.3012 -0.0674 -0.2456
  201MOL    C8748487   2.290   5.472   2.391 -0.5358  0.0616 -0.0894
  201MOL    O8848488   2.258   5.354   2.313 -0.6632 -0.1866 -0.5333
  201MOL    C8948489   2.249   5.365   2.178  0.5589 -0.2735  0.7759
  201MOL    C9048490   2.254   5.218   2.125 -0.3976 -0.7214 -0.3620
  201MOL    O9148491   2.250   5.466   2.109  0.0074 -0.2860 -0.2939
  201MOL    H9248492   2.494   5.456   2.325  0.3904 -0.8482 -0.1633
  201MOL    H9348493   2.467   5.365   2.468 -2.8781 -0.8890 -0.2907
  201MOL    H9448494   2.268   5.571   2.352  4.0155  1.3238  0.2832
  201MOL    H9548495   2.225   5.140   2.195  1.4928 -0.3313  0.8838
  201MOL    H9648496   2.349   5.185   2.086 -0.2083 -1.6119  0.8388
  201MOL    H9748497   2.188   5.212   2.039 -0.6942 -0.2215 -0.1739
  201MOL    C9848498   2.203   5.468   2.523  0.1643  0.2918 -0.1756
  201MOL    C9948499   2.047   5.447   2.508  0.2180  0.4006  0.2901
  201MOL   O10048500   1.991   5.424   2.636 -0.5844  0.4956 -0.1210
  201MOL   C10148501   1.874   5.365   2.644  0.4684 -0.4804  0.1317
  201MOL   C10248502   1.839   5.343   2.789  0.4478  0.3703  0.0907
  201MOL   O10348503   1.792   5.345   2.558 -0.6744 -0.6881  0.7646
  201MOL   H10448504   2.240   5.376   2.568 -0.5662 -0.0856 -0.3350
  201MOL   H10548505   2.216   5.543   2.602  0.0382  1.6038 -1.3761
  201MOL   H10648506   2.031   5.359   2.446  0.1956 -0.4065  1.4320
  201MOL   H10748507   1.880   5.424   2.849  0.4475  0.4534 -0.0217
  201MOL   H10848508   1.898   5.260   2.829 -0.7633 -1.2397 -1.3384
  201MOL   H10948509   1.731   5.335   2.797  0.4605  1.0960  1.1502
  201MOL   C11048510   1.973   5.558   2.436  0.6250  0.3953  0.0593
  201MOL   C11148511   1.960   5.691   2.515  0.1480  0.4233  0.2385
  201MOL   O11248512   1.975   5.787   2.412 -0.3991 -0.4344 -0.5572
  201MOL   C11348513   2.011   5.909   2.445  0.2441  0.0001 -0.0743
  201MOL   C11448514   2.000   5.998   2.325  0.2516  0.2084 -0.4128
  201MOL   O11548515   2.051   5.950   2.559 -0.1490 -0.3006  1.0519
  201MOL   H11648516   2.015   5.568   2.336  1.6664 -0.5778  0.3888
  201MOL   H11748517   1.872   5.529   2.409  0.3910  1.1858  0.0718
  201MOL   H11848518   2.040   5.707   2.586 -0.1056 -0.5650  0.7616
  201MOL   H11948519   1.947   6.091   2.346  2.1637  0.8196  1.7962
  201MOL   H12048520   1.948   5.947   2.243  0.6911 -1.2952  0.2134
  201MOL   H12148521   2.103   6.010   2.291  0.9697 -1.0529  1.2528
  201MOL   C12248522   1.822   5.707   2.587  0.4128 -0.5754  0.2212
  201MOL   C12348523   1.827   5.811   2.707  0.0865 -0.1717 -0.2997
  201MOL   O12448524   1.695   5.800   2.761 -0.6613  0.1845 -0.0665
  201MOL   C12548525   1.611   5.911   2.742 -0.5705  0.0098 -0.0075
  201MOL   C12648526   1.485   5.911   2.819  0.3334 -0.4789 -0.1073
  201MOL   O12748527   1.632   5.998   2.660  0.3730 -0.3820  0.2830
  201MOL   H12848528   1.748   5.733   2.511 -0.4711 -0.2511  1.1828
  201MOL   H12948529   1.801   5.614   2.640  3.5827 -1.5751 -0.1500
  201MOL   H13048530   1.841   5.909   2.661  0.0509 -0.6264 -1.2872
  201MOL   H13148531   1.398   5.904   2.754 -0.5670  2.3055  0.7095
  201MOL   H13248532   1.489   6.009   2.866  0.7822 -0.0749 -0.9746
  201MOL   H13348533   1.472   5.831   2.892 -2.1176 -0.4533 -0.4879
  201MOL   C13448534   1.922   5.781   2.828  0.4852  0.7378 -0.2709
  201MOL   C13548535   1.986   5.906   2.891  0.0618  0.7741 -0.0699
  201MOL   O13648536   1.873   5.978   2.933  0.5495  0.0392  0.2647
  201MOL   C13748537   1.862   6.116   2.915 -0.2432 -0.2482  0.1084
  201MOL   C13848538   1.735   6.169   2.980 -0.3145 -0.0898  0.0430
  201MOL   O13948539   1.948   6.193   2.871 -0.1450  0.3616  0.4606
  201MOL   H14048540   1.861   5.721   2.895  1.1581 -1.7048 -1.7949
  201MOL   H14148541   2.002   5.717   2.793 -0.5342 -1.2518  0.9581
  201MOL   H14248542   2.034   5.965   2.813  1.9928  2.3756  2.2748
  201MOL   H14348543   1.643   6.115   2.957 -0.2679  0.5522 -1.7002
  201MOL   H14448544   1.722   6.277   2.976  1.2435  0.2557  2.7788
  201MOL   H14548545   1.751   6.156   3.087 -0.0057  0.4336  0.0607
  201MOL   C14648546   2.080   5.870   3.011  1.1403 -0.5831  0.3325
  201MOL   C14748547   2.022   5.779   3.117  0.1558  0.3472  0.5219
  201MOL   O14848548   2.126   5.680   3.148 -0.3196  0.4598  0.7134
  201MOL   C14948549   2.120   5.560   3.097 -0.8539  0.5587  0.3896
  201MOL   C15048550   2.238   5.468   3.138 -0.2402  0.4777 -0.1126
  201MOL   O15148551   2.036   5.522   3.019  0.0144 -0.2264 -0.0336
  201MOL   H15248552   2.169   5.831   2.962  2.9259  1.6805  1.6258
  201MOL   H15348553   2.128   5.959   3.053  0.4674  0.9269 -2.0057
  201MOL   H15448554   1.931   5.738   3.073  0.3933 -1.8919  2.0391
  201MOL   H15548555   2.305   5.527   3.200  0.0964 -0.9634  0.9379
  201MOL   H15648556   2.264   5.432   3.039 -1.1840  2.1158 -0.9754
  201MOL   H15748557   2.205   5.379   3.193 -0.2027  0.2874 -0.3989
  201MOL   C15848558   1.981   5.863   3.242  0.3096  0.8076  0.0258
  201MOL   C15948559   1.894   5.789   3.350 -0.4880  0.0481  0.3435
  201MOL   O16048560   1.984   5.721   3.437  0.0338  0.0550 -0.7827
  201MOL   C16148561   1.989   5.580   3.448  0.7946 -0.0954 -0.3967
  201MOL   C16248562   2.083   5.528   3.555 -0.1375  0.0453 -0.1983
  201MOL   O16348563   1.919   5.502   3.392  0.1802 -0.7404  0.3219
  201MOL   H16448564   2.068   5.899   3.297  0.6768  2.1653 -1.4261
  201MOL   H16548565   1.924   5.944   3.197 -0.6347  0.7424  1.0587
  201MOL   H16648566   1.828   5.711   3.311  0.6848 -1.3277  1.0825
  201MOL   H16748567   2.123   5.434   3.517  0.2229 -0.2691  0.9441
  201MOL   H16848568   2.035   5.482   3.642 -0.3965 -1.7376 -1.2600
  201MOL   H16948569   2.166   5.599   3.556  0.4461 -0.6034 -1.8576
  201MOL   C17048570   1.816   5.883   3.444 -1.0427 -0.4845  0.2767
  201MOL   C17148571   1.696   5.967   3.374 -0.1717  0.5559  0.0616
  201MOL   O17248572   1.584   5.886   3.373 -0.4119 -0.1593  0.1263
  201MOL   C17348573   1.523   5.873   3.252 -0.4414 -0.3390  0.0846
  201MOL   C17448574   1.389   5.792   3.252  0.3905  0.2352  0.2856
  201MOL   O17548575   1.556   5.920   3.142  0.4731 -0.4575  0.2068
  201MOL   H17648576   1.762   5.824   3.518 -3.6736 -0.8022 -1.8176
  201MOL   H17748577   1.889   5.948   3.490 -1.1314  0.1772 -0.5038
  201MOL   H17848578   1.732   5.993   3.274  2.2862 -1.4391  0.3712
  201MOL   H17948579   1.333   5.798   3.158  0.0956 -0.7728  0.3927
  201MOL   H18048580   1.318   5.827   3.326  0.9951 -0.9997  1.4559
  201MOL   H18148581   1.413   5.691   3.284 -0.7828 -1.5479 -4.0224
  201MOL   C18248582   1.647   6.086   3.458 -0.0859 -0.1924  0.4589
  201MOL   C18348583   1.743   6.197   3.477 -0.2125  0.3450 -0.0428
  201MOL   O18448584   1.801   6.250   3.361 -0.2050 -0.1721 -0.5876
  201MOL   C18548585   1.926   6.222   3.329  0.2277  0.5944 -0.5672
  201MOL   C18648586   1.991   6.312   3.221  0.8269  0.4400  0.2733
  201MOL   O18748587   2.006   6.140   3.382  0.4310  0.6453 -0.3766
  201MOL   H18848588   1.563   6.133   3.406  0.2517  1.8993  1.7708
  201MOL   H18948589   1.606   6.058   3.555 -0.8555  0.5565  0.3530
  201MOL   H19048590   1.826   6.155   3.533 -1.3080 -1.1284  0.5206
  201MOL   H19148591   1.911   6.378   3.186  0.1273  0.3016  1.5605
  201MOL   H19248592   2.035   6.258   3.138  0.1666 -1.1936  0.9523
  201MOL   H19348593   2.062   6.373   3.277  0.9453  2.5896 -2.1128
  201MOL   C19448594   1.671   6.320   3.549  0.2833 -0.2482  0.2491
  201MOL   C19548595   1.753   6.451   3.572 -0.4007 -0.1938 -0.4265
  201MOL   O19648596   1.783   6.519   3.451 -0.5140 -0.0162 -0.1406
  201MOL   C19748597   1.903   6.578   3.421 -0.6013  0.0784 -0.5473
  201MOL   C19848598   1.882   6.665   3.294 -0.3109  0.4701  0.1004
  201MOL   O19948599   2.012   6.568   3.485 -0.5154 -0.2884  0.2281
  201MOL   H20048600   1.580   6.344   3.493 -1.1038 -0.8193  2.1924
  201MOL   H20148601   1.628   6.273   3.637 -0.2941 -2.1314 -1.0094
  201MOL   H20248602   1.848   6.426   3.618 -0.9441 -0.6639  0.4677
  201MOL   H20348603   1.841   6.759   3.331  0.3010  0.9220 -0.3637
  201MOL   H20448604   1.831   6.618   3.209  0.6728  0.1164 -0.2969
  201MOL   H20548605   1.977   6.705   3.261 -1.1848  1.7136 -0.9662
  201MOL   C20648606   1.689   6.553   3.666  0.8492  0.2372  0.3121
  201MOL   C20748607   1.705   6.531   3.820 -0.1814  0.8455 -0.2223
  201MOL   O20848608   1.840   6.510   3.869  0.3453 -0.0459  0.6801
  201MOL   C20948609   1.886   6.408   3.946 -0.0474 -0.5297  0.0564
  201MOL   C21048610   2.031   6.426   3.980  0.0348  0.2790  0.3032
  201MOL   O21148611   1.823   6.305   3.969  0.9036 -0.1159 -0.2415
  201MOL   H21248612   1.742   6.648   3.661 -1.5774  1.5777 -0.9601
  201MOL   H21348613   1.589   6.577   3.630  1.1022 -0.1641 -0.6617
  201MOL   H21448614   1.661   6.438   3.854  0.5177  0.5591 -0.0832
  201MOL   H21548615   2.092   6.405   3.892 -0.6624 -1.1148  0.1436
  201MOL   H21648616   2.062   6.368   4.067 -0.9222 -0.0705  0.4121
  201MOL   H21748617   2.040   6.532   4.003  1.5414  0.4109 -0.8806
  201MOL   C21848618   1.630   6.636   3.915  0.0858  0.5335  0.4697
  201MOL   C21948619   1.609   6.594   4.064 -0.2873 -0.4893  0.1302
  201MOL   O22048620   1.538   6.709   4.113 -0.0763 -0.3051 -0.2118
  201MOL   C22148621   1.559   6.746   4.241  1.2487  0.4104  0.2761
  201MOL   C22248622   1.482   6.875   4.269  0.1314  0.5677  0.2994
  201MOL   O22348623   1.623   6.685   4.323  0.1765  0.5173  0.2096
  201MOL   H22448624   1.682   6.731   3.922 -0.0529  0.8879 -2.6466
  201MOL   H22548625   1.534   6.668   3.876 -0.8967 -0.3896  2.0503
  201MOL   H22648626   1.699   6.583   4.124  0.2117  0.1470 -0.5066
  201MOL   H22748627   1.411   6.862   4.350  0.2369 -0.1702  0.2827
  201MOL   H22848628   1.429   6.911   4.181  1.8647  2.9323  0.1879
  201MOL   H22948629   1.547   6.956   4.300  1.8877 -0.6160 -0.1997
  201MOL   C23048630   1.523   6.467   4.084 -0.1196  0.2581  0.0104
  201MOL   C23148631   1.557   6.402   4.220 -0.0077  0.2925  0.4336
  201MOL   O23248632   1.488   6.280   4.227  0.1910  0.0937  0.3957
  201MOL   C23348633   1.484   6.208   4.345 -0.4919  0.7028  0.4804
  201MOL   C23448634   1.377   6.102   4.339  0.1081  0.8365 -0.0353
  201MOL   O23548635   1.561   6.218   4.441 -0.5606 -0.2385  0.1077
  201MOL   H23648636   1.415   6.483   4.083 -0.6112 -2.7054 -1.4690
  201MOL   H23748637   1.554   6.388   4.016 -1.4988 -0.1324 -0.1810
  201MOL   H23848638   1.530   6.467   4.303  1.7702  1.0225  0.4741
  201MOL   H23948639   1.280   6.148   4.318  1.1925  2.1631 -2.3477
  201MOL   H24048640   1.375   6.058   4.438  1.6669  0.6131 -0.1049
  201MOL   H24148641   1.402   6.025   4.266 -0.1599 -0.1995  0.9514
  201MOL   H24248642   1.665   6.383   4.224 -0.2914 -1.0478  4.1944
  202MOL     C148643   1.873   5.938   0.457 -0.1356 -0.2730 -0.9449
  202MOL     C248644   1.738   5.980   0.518 -0.5864  0.3356  0.0182
  202MOL     O348645   1.644   5.996   0.414  0.1793  0.6047 -0.1559
  202MOL     C448646   1.573   6.106   0.409 -0.7820 -0.0893 -0.3639
  202MOL     C548647   1.464   6.099   0.308  0.1091  0.4163 -1.0121
  202MOL     O648648   1.577   6.199   0.489  0.4445  0.2116 -0.2043
  202MOL     H748649   1.862   5.846   0.400  0.0448 -1.8115  1.4331
  202MOL     H848650   1.954   5.908   0.524 -1.8615 -2.1367  0.3374
  202MOL     H948651   1.761   6.067   0.580  1.9196  0.2024 -0.6581
  202MOL    H1048652   1.434   6.203   0.296  0.8070  0.4936 -2.1889
  202MOL    H1148653   1.378   6.044   0.348  0.5548 -0.3969 -1.1746
  202MOL    H1248654   1.495   6.070   0.208 -0.2347  0.8638 -1.2516
  202MOL    H1348655   1.898   6.025   0.395  1.8368 -0.3235 -0.2640
  202MOL    C1448656   1.684   5.870   0.615 -0.3112  0.1958 -0.0494
  202MOL    C1548657   1.561   5.903   0.707  0.3813  0.5677  0.2365
  202MOL    O1648658   1.513   5.794   0.780  0.0578  0.3660 -0.0915
  202MOL    C1748659   1.426   5.707   0.722 -0.1108  0.3781  0.1533
  202MOL    C1848660   1.370   5.600   0.810 -0.0034  0.1161 -0.5682
  202MOL    O1948661   1.424   5.693   0.600  0.5957  0.0345 -0.1129
  202MOL    H2048662   1.654   5.788   0.549 -1.7616  0.3968  0.3333
  202MOL    H2148663   1.770   5.845   0.676  2.5805  0.5547 -3.8100
  202MOL    H2248664   1.475   5.942   0.653  0.4661 -1.2443 -1.2878
  202MOL    H2348665   1.315   5.530   0.748 -1.6848  1.2907 -0.4364
  202MOL    H2448666   1.307   5.647   0.886 -0.0808 -0.3845 -0.3199
  202MOL    H2548667   1.447   5.553   0.872 -0.9898  2.5146  2.6553
  202MOL    C2648668   1.586   6.009   0.817  0.0896 -0.2998 -0.3092
  202MOL    C2748669   1.459   6.082   0.877 -1.1152 -0.1201 -0.3230
  202MOL    O2848670   1.490   6.092   1.017  0.2673  0.3717 -0.4085
  202MOL    C2948671   1.413   6.025   1.108  0.7447 -0.0885  0.1196
  202MOL    C3048672   1.479   6.023   1.241  0.1942 -0.3643 -0.4363
  202MOL    O3148673   1.313   5.964   1.075  0.1297  0.5067  0.0632
  202MOL    H3248674   1.666   5.985   0.886  0.7481 -0.2235 -1.0361
  202MOL    H3348675   1.638   6.086   0.759  1.8770 -0.2769  1.2723
  202MOL    H3448676   1.375   6.016   0.854  0.1734 -1.3436 -1.5978
  202MOL    H3548677   1.428   6.085   1.315 -1.8270 -1.1202 -1.1487
  202MOL    H3648678   1.584   6.050   1.238 -0.1520  1.0322 -0.2685
  202MOL    H3748679   1.471   5.920   1.277  1.1501 -0.3842 -0.2625
  202MOL    C3848680   1.422   6.221   0.825 -0.4643 -0.2794 -0.3867
  202MOL    C3948681   1.275   6.260   0.851  0.4310 -0.1312  0.0987
  202MOL    O4048682   1.259   6.296   0.987  0.4047  0.3113  0.2908
  202MOL    C4148683   1.146   6.257   1.051 -0.0576 -0.8889  0.4121
  202MOL    C4248684   1.151   6.279   1.200  0.0459  1.0516 -0.5831
  202MOL    O4348685   1.050   6.204   0.998 -0.3658  0.2834 -0.3966
  202MOL    H4448686   1.492   6.296   0.862  0.5212 -0.6499 -1.4771
  202MOL    H4548687   1.441   6.222   0.717 -2.4181 -0.0659 -0.7609
  202MOL    H4648688   1.205   6.180   0.828  0.7142  0.1015 -1.6475
  202MOL    H4748689   1.252   6.261   1.234  0.5240  0.3759 -2.3076
  202MOL    H4848690   1.080   6.218   1.256  1.3547  0.6533  0.6486
  202MOL    H4948691   1.123   6.385   1.206  1.8446  1.4684  0.9272
  202MOL    C5048692   1.229   6.383   0.765  0.4572 -0.5220  0.0291
  202MOL    C5148693   1.323   6.503   0.752  0.2113 -0.9911 -0.1866
  202MOL    O5248694   1.277   6.594   0.659 -0.3525  0.4477  0.2254
  202MOL    C5348695   1.349   6.682   0.591  0.2226  0.5202  0.1939
  202MOL    C5448696   1.257   6.786   0.530 -0.2461 -0.1686 -0.2599
  202MOL    O5548697   1.472   6.681   0.583 -0.0665 -0.1443 -0.5341
  202MOL    H5648698   1.202   6.345   0.666 -0.7536  1.1055 -0.3042
  202MOL    H5748699   1.132   6.422   0.796 -0.3215 -0.4936 -2.3173
  202MOL    H5848700   1.413   6.456   0.711 -0.2261 -2.2419  0.2475
  202MOL    H5948701   1.155   6.758   0.556 -0.5404  1.6683  0.6100
  202MOL    H6048702   1.270   6.789   0.422 -3.4796 -1.2670 -0.7326
  202MOL    H6148703   1.280   6.886   0.566 -0.2960 -0.4866  0.6683
  202MOL    C6248704   1.376   6.569   0.877  0.2841  0.5267 -0.7549
  202MOL    C6348705   1.283   6.665   0.960  1.3184 -0.5453 -0.1189
  202MOL    O6448706   1.161   6.596   1.001  0.3600  0.0368 -0.0430
  202MOL    C6548707   1.056   6.673   1.024 -0.0464  0.1164  0.2994
  202MOL    C6648708   0.935   6.594   1.033  0.2783 -0.0336 -0.1772
  202MOL    O6748709   1.064   6.793   1.052  0.3241 -0.5200 -0.5759
  202MOL    H6848710   1.413   6.491   0.945  0.2455  1.2062  0.0442
  202MOL    H6948711   1.464   6.628   0.852  0.6008  0.0829 -0.7097
  202MOL    H7048712   1.251   6.738   0.886  0.4273 -0.3886  0.4129
  202MOL    H7148713   0.921   6.556   1.134 -1.3030 -0.9705 -0.7336
  202MOL    H7248714   0.921   6.528   0.947  1.3915 -0.2185 -0.2268
  202MOL    H7348715   0.860   6.674   1.025  0.8803  0.4390 -1.2823
  202MOL    C7448716   1.357   6.731   1.082  0.4519 -0.1325  0.6025
  202MOL    C7548717   1.431   6.856   1.049 -0.3465 -0.0865 -0.2352
  202MOL    O7648718   1.343   6.965   1.053  0.0967  0.2016  0.3342
  202MOL    C7748719   1.278   7.010   0.947  0.2677 -0.4556  0.1062
  202MOL    C7848720   1.191   7.137   0.988  0.4842  0.0261  0.1528
  202MOL    O7948721   1.275   6.959   0.834 -0.1382  0.2094 -0.0321
  202MOL    H8048722   1.296   6.745   1.171  1.3739  1.2218  1.0425
  202MOL    H8148723   1.439   6.665   1.114  2.4286  2.1127  0.2949
  202MOL    H8248724   1.474   6.838   0.950  0.9162 -0.6551  0.4019
  202MOL    H8348725   1.256   7.186   1.061  0.6974 -1.2270  0.8178
  202MOL    H8448726   1.098   7.101   1.032 -0.7625  2.0515 -0.7445
  202MOL    H8548727   1.167   7.206   0.907  1.1207 -1.3482 -1.2330
  202MOL    C8648728   1.548   6.896   1.146 -0.0484 -0.7402  0.8917
  202MOL    C8748729   1.521   6.927   1.295 -0.1497 -0.1902  0.3399
  202MOL    O8848730   1.517   6.807   1.369  0.3169 -0.0498  0.2445
  202MOL    C8948731   1.416   6.783   1.458 -0.5500  0.1760 -0.0649
  202MOL    C9048732   1.389   6.630   1.494  0.2607 -0.9255  0.0293
  202MOL    O9148733   1.346   6.866   1.507  0.3603  0.5412 -0.0188
  202MOL    H9248734   1.637   6.834   1.141  1.4547  1.5428 -1.9424
  202MOL    H9348735   1.592   6.982   1.094  2.0652 -1.6819  1.0742
  202MOL    H9448736   1.433   6.992   1.302  0.4346  0.6608 -0.1076
  202MOL    H9548737   1.489   6.593   1.518  0.3928  0.3783  1.5559
  202MOL    H9648738   1.370   6.566   1.408 -1.5709 -0.7839  0.3101
  202MOL    H9748739   1.329   6.615   1.583  1.2637 -0.5387  0.7798
  202MOL    C9848740   1.645   6.994   1.369 -0.3808  0.3581 -0.0970
  202MOL    C9948741   1.673   7.136   1.318 -0.1921 -0.5599 -0.4672
  202MOL   O10048742   1.558   7.210   1.356  0.1904 -0.0660 -0.3985
  202MOL   C10148743   1.475   7.268   1.270 -0.3556  0.9225 -0.4123
  202MOL   C10248744   1.347   7.320   1.340 -0.0052  0.1490 -0.0510
  202MOL   O10348745   1.494   7.268   1.148  0.0832  0.6708 -0.1974
  202MOL   H10448746   1.636   6.989   1.477 -0.5197  1.1341 -0.0666
  202MOL   H10548747   1.738   6.943   1.344 -0.8079 -0.0544 -0.8800
  202MOL   H10648748   1.689   7.136   1.210  0.2760 -0.9717 -0.4054
  202MOL   H10748749   1.348   7.428   1.354 -1.0242  0.1985 -0.3466
  202MOL   H10848750   1.342   7.289   1.445 -1.7256 -0.3490 -0.2559
  202MOL   H10948751   1.257   7.291   1.285 -0.1630 -0.8360  0.6945
  202MOL   C11048752   1.798   7.207   1.368 -0.3259  0.3949 -0.1979
  202MOL   C11148753   1.866   7.284   1.254  0.2258  0.5619 -0.1132
  202MOL   O11248754   1.956   7.384   1.309 -0.6030  0.1746  0.0805
  202MOL   C11348755   1.900   7.505   1.340  0.2706 -0.0133  0.1275
  202MOL   C11448756   2.003   7.623   1.337  0.6438  0.2951 -0.5445
  202MOL   O11548757   1.781   7.522   1.364 -0.2931 -0.0893 -0.2578
  202MOL   H11648758   1.750   7.271   1.442  1.0865  0.4542  0.6821
  202MOL   H11748759   1.863   7.135   1.418 -2.2882 -1.1301  0.2181
  202MOL   H11848760   1.783   7.333   1.202  0.1253  0.1577 -0.3383
  202MOL   H11948761   2.105   7.600   1.367 -0.6826 -0.7656  3.4537
  202MOL   H12048762   1.963   7.714   1.382  1.1512  0.3101 -0.1094
  202MOL   H12148763   2.026   7.653   1.235 -1.6007  1.2039 -0.8185
  202MOL   C12248764   1.949   7.197   1.158  0.5045  0.4772  0.0161
  202MOL   C12348765   1.931   7.216   1.006  0.6614 -0.0222  0.5034
  202MOL   O12448766   2.014   7.135   0.920 -0.1336 -0.1757  0.6472
  202MOL   C12548767   2.149   7.163   0.897  0.2517 -0.2253 -0.4391
  202MOL   C12648768   2.210   7.063   0.801 -0.1759 -0.5790  0.0130
  202MOL   O12748769   2.222   7.246   0.953 -0.1772  0.5747  0.2978
  202MOL   H12848770   2.054   7.216   1.181  0.0451  3.2135  0.0737
  202MOL   H12948771   1.938   7.090   1.173  2.8152 -0.1637 -2.5335
  202MOL   H13048772   1.957   7.318   0.980 -3.1746  1.1363  0.8237
  202MOL   H13148773   2.138   7.044   0.722 -1.7677  0.2253  1.2468
  202MOL   H13248774   2.238   6.972   0.856 -0.7606 -0.4646  0.5079
  202MOL   H13348775   2.301   7.111   0.765 -0.3048  0.1831  0.6918
  202MOL   C13448776   1.790   7.199   0.955 -0.0005 -0.1492  0.0265
  202MOL   C13548777   1.769   7.222   0.804 -0.3903 -0.3082 -0.2315
  202MOL   O13648778   1.652   7.156   0.758  0.8407  0.2484 -0.0043
  202MOL   C13748779   1.628   7.133   0.624  0.3162 -0.0793  0.0812
  202MOL   C13848780   1.511   7.047   0.591 -0.0921  0.4273  0.0972
  202MOL   O13948781   1.699   7.171   0.531  0.0333 -0.0202 -0.4140
  202MOL   H14048782   1.763   7.093   0.963  0.8714 -0.2937  1.2776
  202MOL   H14148783   1.709   7.249   1.009 -0.1933 -1.1876  0.7277
  202MOL   H14248784   1.849   7.168   0.754 -0.2045  0.0856 -0.3596
  202MOL   H14348785   1.481   7.051   0.486  3.9270 -1.3275 -1.2003
  202MOL   H14448786   1.429   7.051   0.663  0.4544  0.2266  0.7319
  202MOL   H14548787   1.556   6.950   0.614 -0.5132 -0.7729 -3.7492
  202MOL   C14648788   1.760   7.370   0.766  0.0226 -0.6477  0.3643
  202MOL   C14748789   1.647   7.452   0.823 -0.3200 -1.0855 -0.3605
  202MOL   O14848790   1.705   7.592   0.824  0.2929  0.1840 -0.3019
  202MOL   C14948791   1.759   7.639   0.934  0.3758 -0.5219 -0.4365
  202MOL   C15048792   1.817   7.776   0.929 -0.5690 -0.7439  0.0627
  202MOL   O15148793   1.752   7.575   1.036 -0.2110  0.2037  0.5394
  202MOL   H15248794   1.858   7.407   0.796  0.3639  1.5468 -3.1587
  202MOL   H15348795   1.757   7.372   0.657  0.9106 -0.2517  0.3473
  202MOL   H15448796   1.626   7.433   0.928  0.5187 -1.6918 -0.2924
  202MOL   H15548797   1.894   7.776   1.006 -0.9894  2.3189  0.5367
  202MOL   H15648798   1.740   7.846   0.959 -0.9326 -1.4453  0.7878
  202MOL   H15748799   1.862   7.800   0.832  0.5440  2.0144  1.2078
  202MOL   C15848800   1.512   7.429   0.746 -0.0727 -0.0685  0.5861
  202MOL   C15948801   1.398   7.525   0.800  0.2141 -0.2947  0.6061
  202MOL   O16048802   1.285   7.495   0.723  0.7754 -0.0889  0.1118
  202MOL   C16148803   1.237   7.579   0.631 -0.1654  0.2315 -0.0937
  202MOL   C16248804   1.113   7.530   0.560 -0.4336 -0.2209 -0.0036
  202MOL   O16348805   1.284   7.690   0.603 -0.2120  0.0149  0.6230
  202MOL   H16448806   1.534   7.462   0.645 -1.2496  0.6140  0.5514
  202MOL   H16548807   1.484   7.323   0.747  1.9833 -0.6394  0.2471
  202MOL   H16648808   1.443   7.622   0.776  1.7303 -1.6218 -2.1695
  202MOL   H16748809   1.030   7.588   0.599  1.1428  3.4427 -1.7902
  202MOL   H16848810   1.109   7.421   0.559 -1.3023 -0.1934 -1.2946
  202MOL   H16948811   1.127   7.564   0.457 -1.1536 -3.3330 -1.1691
  202MOL   C17048812   1.349   7.498   0.947 -0.1943 -0.1168  0.2868
  202MOL   C17148813   1.214   7.566   0.978  0.3677 -0.3482 -0.1785
  202MOL   O17248814   1.163   7.506   1.101  0.1080  0.0482 -0.0704
  202MOL   C17348815   1.042   7.448   1.113 -0.1026 -0.3528 -0.6423
  202MOL   C17448816   1.002   7.396   1.248 -0.2341 -0.0641 -0.1535
  202MOL   O17548817   0.971   7.426   1.014 -0.4848  0.2723  0.3527
  202MOL   H17648818   1.333   7.390   0.954  1.3830 -0.3882  0.0491
  202MOL   H17748819   1.432   7.527   1.012  0.5018 -1.3871 -0.0109
  202MOL   H17848820   1.146   7.553   0.894  0.4389  0.1810 -0.3196
  202MOL   H17948821   0.895   7.381   1.264  0.1551 -0.8584  1.7936
  202MOL   H18048822   1.044   7.466   1.319 -0.3932 -0.7692  0.6355
  202MOL   H18148823   1.050   7.298   1.254 -0.9605 -0.4958 -1.1822
  202MOL   C18248824   1.234   7.717   0.988  0.8409  0.4502  0.1274
  202MOL   C18348825   1.122   7.803   0.928  0.0430  0.4502  0.0813
  202MOL   O18448826   0.990   7.760   0.974  0.4878 -0.0211  0.2465
  202MOL   C18548827   0.886   7.760   0.881 -0.0480  0.0832 -0.2141
  202MOL   C18648828   0.755   7.713   0.943 -0.5996 -0.0813 -0.0907
  202MOL   O18748829   0.892   7.783   0.758 -0.5188 -0.3027 -0.1856
  202MOL   H18848830   1.247   7.735   1.095  0.2770 -3.2183  0.8636
  202MOL   H18948831   1.331   7.741   0.946  0.7332 -1.0516 -0.9986
  202MOL   H19048832   1.127   7.781   0.821 -0.0073 -0.1034  0.1936
  202MOL   H19148833   0.692   7.798   0.970 -1.3750 -0.2153 -1.4087
  202MOL   H19248834   0.767   7.652   1.032  0.3671  1.8854  1.1600
  202MOL   H19348835   0.708   7.657   0.862  1.4314  1.2749 -2.2626
  202MOL   C19448836   1.140   7.949   0.954  0.3709 -0.9506  0.0044
  202MOL   C19548837   1.282   8.005   0.903  0.7114  0.1573 -0.8118
  202MOL   O19648838   1.306   7.991   0.762  0.0328  0.2548 -0.4758
  202MOL   C19748839   1.424   7.953   0.724 -0.5313  0.4884 -0.6237
  202MOL   C19848840   1.444   7.962   0.575  0.2836  0.1148  0.1955
  202MOL   O19948841   1.514   7.915   0.799  0.1013 -0.4688 -0.2984
  202MOL   H20048842   1.057   8.009   0.916  0.6595 -1.0281 -0.7665
  202MOL   H20148843   1.151   7.964   1.061  2.5325 -1.5006 -0.1218
  202MOL   H20248844   1.357   7.953   0.963  1.0375  0.8764 -0.5811
  202MOL   H20348845   1.511   0.023   0.552 -1.1177  1.0714 -0.5322
  202MOL   H20448846   1.350   8.001   0.537 -0.0813 -0.6244  0.3297
  202MOL   H20548847   1.494   7.880   0.523  0.5167 -0.4905  1.3648
  202MOL   C20648848   1.309   0.139   0.930  0.0791 -0.1586  0.0912
  202MOL   C20748849   1.190   0.238   0.900 -0.4027  0.1745 -0.1330
  202MOL   O20848850   1.210   0.366   0.954  0.3126 -0.2075  0.7793
  202MOL   C20948851   1.168   0.399   1.079  0.1663 -0.0613 -0.4280
  202MOL   C21048852   1.156   0.548   1.099 -0.4029  0.2769  0.4130
  202MOL   O21148853   1.129   0.330   1.171  0.0525  0.1931  0.2503
  202MOL   H21248854   1.327   0.154   1.036 -2.2410 -2.5041  0.8617
  202MOL   H21348855   1.394   0.183   0.876  1.3964 -0.6713  1.7157
  202MOL   H21448856   1.097   0.198   0.942  0.4643 -0.2732  1.4139
  202MOL   H21548857   1.255   0.593   1.090 -1.0213  1.4605 -0.6003
  202MOL   H21648858   1.105   0.571   1.192  0.3000 -1.2418  1.1861
  202MOL   H21748859   1.102   0.590   1.014  0.3213 -1.9798 -1.2472
  202MOL   C21848860   1.174   0.261   0.747 -0.5593 -0.0325 -0.1442
  202MOL   C21948861   1.044   0.187   0.697 -0.6229  0.7272  0.3197
  202MOL   O22048862   0.931   0.274   0.721  0.3181  0.2956  0.0102
  202MOL   C22148863   0.817   0.229   0.770 -0.0189  0.2238  0.4452
  202MOL   C22248864   0.717   0.335   0.791  0.3436 -0.8175  0.1487
  202MOL   O22348865   0.792   0.110   0.798  0.1896  0.6445 -0.6614
  202MOL   H22448866   1.179   0.365   0.714 -3.3423  0.3342  0.5193
  202MOL   H22548867   1.265   0.220   0.703  0.8176  1.7266  0.9980
  202MOL   H22648868   1.039   0.093   0.750  0.1467  1.6714  2.1105
  202MOL   H22748869   0.639   0.294   0.854 -0.9382 -0.7552 -1.3735
  202MOL   H22848870   0.689   0.371   0.692 -1.1594 -0.9583  0.5143
  202MOL   H22948871   0.762   0.418   0.847  0.0969  0.4459 -1.4752
  202MOL   C23048872   1.047   0.130   0.556  0.1053 -0.3227  0.1723
  202MOL   C23148873   0.968   8.019   0.530  0.0377 -0.2419 -0.5816
  202MOL   O23248874   0.968   7.979   0.395  0.3071  0.3044 -0.4949
  202MOL   C23348875   0.851   8.012   0.322  0.3795  0.0602 -0.2668
  202MOL   C23448876   0.833   7.943   0.194  0.1671  0.5701  0.2099
  202MOL   O23548877   0.759   0.062   0.363 -0.4163 -0.6804 -0.1396
  202MOL   H23648878   1.024   0.209   0.484 -0.6185 -0.2868  0.4447
  202MOL   H23748879   1.148   0.116   0.518 -0.2676 -3.1829  0.1439
  202MOL   H23848880   0.868   8.011   0.572  0.2857  0.3001  0.1268
  202MOL   H23948881   0.921   7.883   0.170 -0.6979 -0.7291  0.2612
  202MOL   H24048882   0.805   8.012   0.114  1.3030  0.4359 -0.3169
  202MOL   H24148883   0.739   7.890   0.210 -0.1994  1.5496  1.3728
  202MOL   H24248884   1.019   7.935   0.578 -1.7753 -0.8682  0.2986
  203MOL     C148885   2.774   2.118   6.174  0.1173  0.2106  0.5290
  203MOL     C248886   2.905   2.193   6.207  0.3006 -0.2814  0.5365
  203MOL     O348887   2.879   2.301   6.288  0.8674 -0.0560 -0.2121
  203MOL     C448888   2.861   2.423   6.247 -0.0084 -0.3582  0.7304
  203MOL     C548889   2.822   2.515   6.358  0.0379  0.1146 -0.0675
  203MOL     O648890   2.855   2.452   6.123  0.3199  0.0355 -0.4389
  203MOL     H748891   2.785   2.040   6.098  0.7462 -0.6789  1.5270
  203MOL     H848892   2.689   2.178   6.142  0.5386 -0.1454 -1.3295
  203MOL     H948893   2.939   2.236   6.113 -3.3598  1.6908 -0.0017
  203MOL    H1048894   2.718   2.526   6.391  0.2511  0.2722  0.5573
  203MOL    H1148895   2.864   2.613   6.331 -0.1008  0.1785 -0.0511
  203MOL    H1248896   2.868   2.475   6.448  2.0776  3.6976  0.6017
  203MOL    H1348897   2.749   2.067   6.267 -0.1244 -0.6121  0.0188
  203MOL    C1448898   3.015   2.101   6.272 -0.4341  0.2543  0.0341
  203MOL    C1548899   3.153   2.176   6.284  0.0069 -1.2652 -0.1330
  203MOL    O1648900   3.243   2.107   6.366 -0.1698 -0.0470  0.1017
  203MOL    C1748901   3.311   2.171   6.462  0.8494 -0.3384  0.2247
  203MOL    C1848902   3.418   2.082   6.518  0.2897  0.4392  0.1752
  203MOL    O1948903   3.280   2.283   6.505 -0.5308  0.8997 -0.2456
  203MOL    H2048904   2.979   2.071   6.370 -1.6807  0.0725 -0.4637
  203MOL    H2148905   3.016   2.013   6.208 -1.4355  0.6924 -0.6003
  203MOL    H2248906   3.122   2.268   6.334  1.8648 -1.6828  1.8526
  203MOL    H2348907   3.515   2.113   6.479  0.9355 -2.1256 -0.4079
  203MOL    H2448908   3.409   1.979   6.484 -0.9466  0.3988  0.5971
  203MOL    H2548909   3.432   2.087   6.626  1.1292 -1.7314  0.1885
  203MOL    C2648910   3.211   2.180   6.142  0.8971 -0.1266 -0.7522
  203MOL    C2748911   3.330   2.280   6.127 -1.0406 -0.1048  0.5072
  203MOL    O2848912   3.411   2.235   6.019  0.0164  0.0083 -0.5379
  203MOL    C2948913   3.518   2.157   6.042 -0.8582  0.5505 -0.2379
  203MOL    C3048914   3.569   2.090   5.916 -0.4445  0.4506  0.3446
  203MOL    O3148915   3.574   2.149   6.152 -0.5018  0.5936  0.1020
  203MOL    H3248916   3.246   2.079   6.118 -1.4171 -1.0973 -0.1144
  203MOL    H3348917   3.130   2.196   6.071 -0.5462  0.6188  1.0468
  203MOL    H3448918   3.381   2.289   6.222 -0.0804 -1.6186  0.1559
  203MOL    H3548919   3.515   2.118   5.825 -0.6347 -0.1653  0.2679
  203MOL    H3648920   3.544   1.984   5.913 -0.8496  0.4847  2.2797
  203MOL    H3748921   3.677   2.101   5.910 -0.2071 -0.5112  2.4300
  203MOL    C3848922   3.263   2.413   6.099 -0.7550 -0.2895 -0.3060
  203MOL    C3948923   3.360   2.528   6.068  0.3284  0.0180  0.3947
  203MOL    O4048924   3.272   2.619   6.011  0.0141  0.1074 -0.0367
  203MOL    C4148925   3.278   2.650   5.882  1.1167 -0.5202 -0.2517
  203MOL    C4248926   3.203   2.777   5.852  0.4390 -0.3639  0.6301
  203MOL    O4348927   3.354   2.608   5.801  0.3042  0.0058  0.2047
  203MOL    H4448928   3.212   2.395   6.004  2.2238  0.4653 -2.1364
  203MOL    H4548929   3.196   2.441   6.181  0.8538  2.0327  0.2749
  203MOL    H4648930   3.441   2.495   6.003 -0.9516  0.1815 -1.3186
  203MOL    H4748931   3.129   2.758   5.774  0.0577  1.5822  0.4735
  203MOL    H4848932   3.270   2.857   5.819  0.4885 -0.9665 -0.7832
  203MOL    H4948933   3.145   2.798   5.942  0.9810  2.1806  0.4116
  203MOL    C5048934   3.427   2.584   6.201  0.0096  0.5454  0.0371
  203MOL    C5148935   3.496   2.718   6.170 -0.1109  0.2276 -0.1078
  203MOL    O5248936   3.525   2.775   6.293 -0.1337 -0.1108  0.2594
  203MOL    C5348937   3.464   2.893   6.336 -0.2802 -0.4013  0.0948
  203MOL    C5448938   3.526   2.938   6.464  0.5082  0.6669 -0.2507
  203MOL    O5548939   3.367   2.951   6.287  0.0867  0.3534 -0.2402
  203MOL    H5648940   3.361   2.586   6.288  0.6184  1.9928  0.4683
  203MOL    H5748941   3.505   2.518   6.240  0.3138  0.1266 -1.2538
  203MOL    H5848942   3.429   2.786   6.117 -0.4151 -1.1615 -1.5670
  203MOL    H5948943   3.448   2.960   6.537 -0.1684  1.3230 -1.1459
  203MOL    H6048944   3.574   3.035   6.451 -0.5421  1.5326  2.1126
  203MOL    H6148945   3.595   2.864   6.504  0.9617  1.1789 -0.0909
  203MOL    C6248946   3.629   2.699   6.090  0.5675  0.2200 -0.5771
  203MOL    C6348947   3.664   2.831   6.006  0.1917 -0.0698  0.0830
  203MOL    O6448948   3.741   2.902   6.103 -0.3372 -0.1270  0.0059
  203MOL    C6548949   3.738   3.033   6.098  0.2106 -0.1656 -0.3239
  203MOL    C6648950   3.787   3.088   6.225  0.2087 -0.6928 -0.1467
  203MOL    O6748951   3.686   3.106   6.013 -0.5739 -0.0039  0.3271
  203MOL    H6848952   3.703   2.687   6.169  0.8220 -0.2283 -0.8800
  203MOL    H6948953   3.621   2.613   6.023  2.0270 -1.1329  0.9497
  203MOL    H7048954   3.573   2.885   5.981  0.3575 -0.1750 -0.7521
  203MOL    H7148955   3.782   3.197   6.223  1.0040 -0.6260  1.2236
  203MOL    H7248956   3.887   3.063   6.261  1.4649  0.5537 -2.6613
  203MOL    H7348957   3.718   3.051   6.300  0.6734 -1.8129 -0.2671
  203MOL    C7448958   3.755   2.785   5.887 -0.9982 -0.5700  0.0304
  203MOL    C7548959   3.681   2.770   5.752  0.7997  0.2023  0.3443
  203MOL    O7648960   3.677   2.914   5.722  0.3436 -0.1131 -0.2186
  203MOL    C7748961   3.560   2.968   5.666 -0.5034  0.8980  0.0389
  203MOL    C7848962   3.557   3.125   5.667  0.0986  0.2666  0.0402
  203MOL    O7948963   3.475   2.902   5.611 -0.0229  0.2206  0.7933
  203MOL    H8048964   3.834   2.859   5.877  0.6728 -2.3916 -0.4730
  203MOL    H8148965   3.808   2.691   5.901 -0.2569 -0.2732 -0.7876
  203MOL    H8248966   3.580   2.734   5.771 -0.0462  2.0491 -0.5046
  203MOL    H8348967   3.653   3.145   5.619  1.3655 -1.1973  1.9027
  203MOL    H8448968   3.538   3.168   5.765 -1.0572 -0.1429  0.0042
  203MOL    H8548969   3.482   3.152   5.593  0.4118 -2.2066 -1.2456
  203MOL    C8648970   3.741   2.701   5.630 -0.4781  0.9585  0.0210
  203MOL    C8748971   3.734   2.546   5.646  0.6160 -0.2655 -0.1568
  203MOL    O8848972   3.601   2.505   5.627  0.3033 -0.0275  0.0830
  203MOL    C8948973   3.556   2.396   5.690 -0.2175 -0.8796  0.5617
  203MOL    C9048974   3.417   2.364   5.655  0.1528  0.2150 -0.0700
  203MOL    O9148975   3.606   2.336   5.780  0.1633 -0.3327 -0.1878
  203MOL    H9248976   3.689   2.738   5.542 -1.2776  0.2580  0.1950
  203MOL    H9348977   3.844   2.728   5.608  0.1743 -1.2106  0.3251
  203MOL    H9448978   3.768   2.521   5.747  0.8855 -1.4385 -0.5271
  203MOL    H9548979   3.394   2.281   5.588 -0.9207 -0.5105  1.1692
  203MOL    H9648980   3.364   2.449   5.612 -1.7396 -0.7835  0.2395
  203MOL    H9748981   3.355   2.341   5.741 -3.1145 -1.8215 -2.8376
  203MOL    C9848982   3.817   2.478   5.544 -0.4577  0.6996  0.3653
  203MOL    C9948983   3.970   2.472   5.569 -0.0047  0.0017  0.0966
  203MOL   O10048984   4.000   2.399   5.686 -0.4362  0.2635  0.1472
  203MOL   C10148985   4.114   2.420   5.750  0.1674  0.3899 -0.5376
  203MOL   C10248986   4.139   2.319   5.864 -0.4957 -0.5798  0.5397
  203MOL   O10348987   4.195   2.513   5.724 -0.1475  0.0787  0.0080
  203MOL   H10448988   3.785   2.373   5.539 -1.9330  1.1865 -0.9992
  203MOL   H10548989   3.790   2.530   5.452  0.9097  0.0062 -0.4433
  203MOL   H10648990   4.010   2.573   5.578  2.3620 -0.8154 -1.0291
  203MOL   H10748991   4.231   2.338   5.920  1.4674 -4.5714 -1.1434
  203MOL   H10848992   4.138   2.217   5.826  2.3140 -0.6310  0.4830
  203MOL   H10948993   4.063   2.334   5.941 -1.5216 -0.8459 -0.4045
  203MOL   C11048994   4.046   2.412   5.448  0.3160 -0.3177  0.8636
  203MOL   C11148995   4.019   2.493   5.319 -0.2282 -0.2571  0.2150
  203MOL   O11248996   4.115   2.594   5.306 -0.2449 -0.0942 -0.5941
  203MOL   C11348997   4.092   2.719   5.347  0.2889 -1.0564  0.6049
  203MOL   C11448998   4.224   2.808   5.344 -0.7404 -0.6495  0.2976
  203MOL   O11548999   3.981   2.767   5.379  0.2221 -0.0967  0.2025
  203MOL   H11649000   4.153   2.406   5.464  0.3069 -0.1646  0.9925
  203MOL   H11749001   4.014   2.309   5.434  0.7830 -0.2076 -1.0461
  203MOL   H11849002   3.919   2.536   5.318  0.5722  1.6630 -0.5874
  203MOL   H11949003   4.207   2.886   5.271  0.5713  0.0130  0.6882
  203MOL   H12049004   4.314   2.747   5.331 -1.0164 -0.6890 -1.5475
  203MOL   H12149005   4.230   2.865   5.437 -1.9621 -0.0906  0.0370
  203MOL   C12249006   4.032   2.408   5.195  0.8420 -0.5762  0.0154
  203MOL   C12349007   3.979   2.483   5.072 -0.3667 -0.2601  0.0983
  203MOL   O12449008   4.089   2.548   5.005 -0.1447  0.2514  0.1875
  203MOL   C12549009   4.079   2.667   4.954 -0.4220 -0.1173 -0.1669
  203MOL   C12649010   4.199   2.710   4.870  1.3322  0.4181 -0.3665
  203MOL   O12749011   3.986   2.751   4.970  0.1235  0.3178 -0.2022
  203MOL   H12849012   4.132   2.366   5.182  1.0413 -0.2582  0.4862
  203MOL   H12949013   3.968   2.320   5.208 -0.5980  0.3815 -0.4906
  203MOL   H13049014   3.906   2.554   5.110  1.3779  0.3438  2.4791
  203MOL   H13149015   4.177   2.802   4.817 -1.1267  0.8972  1.3917
  203MOL   H13249016   4.221   2.631   4.798 -1.6493 -1.0426  0.2232
  203MOL   H13349017   4.278   2.716   4.945  1.1987 -1.3654 -0.0487
  203MOL   C13449018   3.918   2.381   4.976 -0.5484 -0.3601  0.1790
  203MOL   C13549019   3.778   2.330   5.006  0.2762 -0.0602  0.2587
  203MOL   O13649020   3.696   2.432   5.050 -0.0158 -0.0475  0.1576
  203MOL   C13749021   3.619   2.423   5.151 -0.1924 -0.3056  0.6236
  203MOL   C13849022   3.557   2.554   5.195  0.1788  0.1824  0.7879
  203MOL   O13949023   3.605   2.327   5.222 -0.1392 -0.2307  0.0644
  203MOL   H14049024   3.913   2.437   4.882 -0.7364  1.2565  1.1250
  203MOL   H14149025   3.983   2.294   4.966  0.4371  0.3792  0.0194
  203MOL   H14249026   3.791   2.252   5.081  1.3447  1.5426  1.8026
  203MOL   H14349027   3.551   2.621   5.110  1.0202 -0.0843  0.5198
  203MOL   H14449028   3.624   2.603   5.267  0.8301 -1.1892  1.1292
  203MOL   H14549029   3.460   2.541   5.243 -0.3227 -1.9370 -0.7300
  203MOL   C14649030   3.706   2.274   4.878 -0.5336 -0.6310 -0.4642
  203MOL   C14749031   3.601   2.165   4.910 -0.6225 -0.4976 -0.0288
  203MOL   O14849032   3.541   2.133   4.782  0.0294  0.1336 -0.2622
  203MOL   C14949033   3.415   2.188   4.758  0.3774  0.6993  0.3858
  203MOL   C15049034   3.356   2.153   4.619 -0.1163 -0.5507  0.4627
  203MOL   O15149035   3.352   2.259   4.836 -0.1538  0.5073  0.5534
  203MOL   H15249036   3.660   2.350   4.816  1.9282  2.5591  1.5039
  203MOL   H15349037   3.781   2.220   4.821  0.9113  2.0488 -1.1566
  203MOL   H15449038   3.530   2.215   4.977 -0.5560 -0.4568  0.0111
  203MOL   H15549039   3.249   2.138   4.633 -0.4349  2.8654  2.1626
  203MOL   H15649040   3.409   2.077   4.561  1.4392 -0.2435  1.4355
  203MOL   H15749041   3.371   2.251   4.575  0.3115 -0.1705  1.4301
  203MOL   C15849042   3.647   2.037   4.984 -0.5898 -0.0996  0.5936
  203MOL   C15949043   3.563   1.997   5.108 -0.0049 -0.2139  0.5668
  203MOL   O16049044   3.429   1.970   5.052  0.4083 -0.3498 -0.0777
  203MOL   C16149045   3.325   1.982   5.135 -0.1983  0.4080 -0.2421
  203MOL   C16249046   3.195   1.954   5.057 -0.0417 -0.1462 -0.1628
  203MOL   O16349047   3.330   2.005   5.258 -0.0349  0.0228  0.4720
  203MOL   H16449048   3.646   1.950   4.919 -2.0458  0.5960 -0.3413
  203MOL   H16549049   3.752   2.046   5.012 -1.1857  1.8180  2.3322
  203MOL   H16649050   3.566   2.070   5.189  1.5358  1.6017 -1.0936
  203MOL   H16749051   3.212   1.877   4.981  2.4165 -1.1893  1.3762
  203MOL   H16849052   3.169   2.043   4.999 -1.1441 -0.4170 -0.0943
  203MOL   H16949053   3.116   1.925   5.126  0.1602 -0.9199 -0.2536
  203MOL   C17049054   3.609   1.862   5.173 -0.6291 -0.6364  0.3703
  203MOL   C17149055   3.737   1.878   5.252 -0.5926 -0.7868 -0.5818
  203MOL   O17249056   3.688   1.909   5.382  0.0515  0.3646  0.2184
  203MOL   C17349057   3.743   2.011   5.454  0.4866 -0.7378 -0.0732
  203MOL   C17449058   3.712   2.020   5.602  0.3658 -0.3728 -0.7159
  203MOL   O17549059   3.824   2.091   5.412  0.2372 -0.1428 -0.0137
  203MOL   H17649060   3.523   1.829   5.230 -0.6842 -0.8841  0.1446
  203MOL   H17749061   3.625   1.795   5.088 -0.7459 -0.1585 -0.0307
  203MOL   H17849062   3.803   1.951   5.206 -2.7397  1.3841 -0.3109
  203MOL   H17949063   3.807   2.023   5.657  0.5214  2.1788 -1.0660
  203MOL   H18049064   3.649   1.942   5.645 -0.1414  0.6236  0.4001
  203MOL   H18149065   3.663   2.115   5.625  2.5412  0.6810 -0.2390
  203MOL   C18249066   3.822   1.752   5.253  0.1847 -0.1798 -0.2741
  203MOL   C18349067   3.917   1.746   5.135 -1.1826 -0.3099 -0.1658
  203MOL   O18449068   4.025   1.833   5.170  0.6773  0.4639 -0.4564
  203MOL   C18549069   4.066   1.937   5.084  0.8502  0.1477  0.1799
  203MOL   C18649070   4.195   1.992   5.130 -0.2642  0.4596 -0.4217
  203MOL   O18749071   4.008   1.983   4.984  0.8512  0.0548 -0.1472
  203MOL   H18849072   3.875   1.741   5.347  0.1389 -3.0243 -0.5421
  203MOL   H18949073   3.760   1.663   5.248  0.9278 -0.6932 -0.5776
  203MOL   H19049074   3.865   1.772   5.042 -0.2236 -0.7837 -0.8470
  203MOL   H19149075   4.246   2.022   5.038  1.1621  0.2514  0.2984
  203MOL   H19249076   4.260   1.924   5.185 -2.1578 -0.7587  0.3862
  203MOL   H19349077   4.168   2.078   5.190  2.6959  1.5576 -0.5921
  203MOL   C19449078   3.974   1.609   5.121  0.1880  0.0262  0.3837
  203MOL   C19549079   4.065   1.599   4.993  0.4211  0.0390  0.0555
  203MOL   O19649080   4.107   1.463   4.981  0.1746 -1.1621 -0.1528
  203MOL   C19749081   4.203   1.412   5.053  0.8742 -0.4645 -0.8781
  203MOL   C19849082   4.210   1.258   5.022 -0.1722  0.9079  0.2643
  203MOL   O19949083   4.288   1.475   5.122 -0.0686 -0.1377  0.2134
  203MOL   H20049084   4.039   1.586   5.205  4.9801  0.6480 -2.9583
  203MOL   H20149085   3.895   1.535   5.130 -0.3945  0.6843  0.7193
  203MOL   H20249086   4.153   1.662   5.000  0.3052  0.3860 -1.5280
  203MOL   H20349087   4.208   1.206   5.118 -1.2361 -1.6536 -1.0857
  203MOL   H20449088   4.315   1.241   4.996 -0.2083 -3.1092  2.4070
  203MOL   H20549089   4.136   1.213   4.956 -1.6677  1.1785  1.7260
  203MOL   C20649090   3.988   1.618   4.860  0.6314  0.3735 -0.6073
  203MOL   C20749091   4.079   1.604   4.734  0.2750  0.2751  0.5215
  203MOL   O20849092   3.998   1.589   4.611 -0.6280  0.1618 -0.2106
  203MOL   C20949093   3.990   1.461   4.557 -0.6324  0.2117 -0.4937
  203MOL   C21049094   3.923   1.453   4.428 -0.4561  0.6526  0.5674
  203MOL   O21149095   4.020   1.350   4.610  0.5673  0.2585 -0.3959
  203MOL   H21249096   3.907   1.545   4.864  0.1689  1.0123  2.5827
  203MOL   H21349097   3.946   1.718   4.859 -0.7538 -0.1934 -0.1680
  203MOL   H21449098   4.144   1.517   4.742  1.5086  0.8634 -2.4268
  203MOL   H21549099   3.974   1.376   4.370  0.5302  0.2362  1.9669
  203MOL   H21649100   3.926   1.553   4.383  0.5842 -0.3731 -1.7371
  203MOL   H21749101   3.819   1.429   4.449 -0.7632  0.6543 -0.9083
  203MOL   C21849102   4.155   1.729   4.690  0.2896  0.0777 -0.0283
  203MOL   C21949103   4.250   1.702   4.567 -0.4474 -0.2168  0.2171
  203MOL   O22049104   4.303   1.824   4.513 -0.1035 -0.2976  0.0080
  203MOL   C22149105   4.237   1.920   4.446  0.4159  0.0711 -0.2057
  203MOL   C22249106   4.326   2.037   4.402 -1.4205 -0.2893  0.1337
  203MOL   O22349107   4.119   1.912   4.404  0.2424 -0.3862 -0.3707
  203MOL   H22449108   4.097   1.819   4.669  0.2925  0.1812  0.3945
  203MOL   H22549109   4.224   1.756   4.769 -1.0857 -1.0364  1.5911
  203MOL   H22649110   4.201   1.641   4.492  0.4681  0.1286 -0.6681
  203MOL   H22749111   4.303   2.118   4.472 -0.0049 -0.3335  0.6661
  203MOL   H22849112   4.282   2.079   4.312 -0.6041  1.5029  0.5428
  203MOL   H22949113   4.432   2.011   4.411 -1.0455  0.5700 -1.6021
  203MOL   C23049114   4.374   1.621   4.611  0.4982 -0.0046  0.1272
  203MOL   C23149115   4.454   1.572   4.492  0.4381 -0.3976  0.4166
  203MOL   O23249116   4.553   1.489   4.547  0.3875 -0.2204  0.1934
  203MOL   C23349117   4.682   1.520   4.528  0.3425 -0.7878 -0.6413
  203MOL   C23449118   4.772   1.428   4.604 -0.4414 -0.3539  0.6125
  203MOL   O23549119   4.735   1.597   4.443 -0.1543 -0.0255  0.2033
  203MOL   H23649120   4.436   1.681   4.678  1.2493  0.0761 -0.6345
  203MOL   H23749121   4.344   1.536   4.673 -2.1167  1.6216  1.1776
  203MOL   H23849122   4.505   1.651   4.438  1.8217 -1.1966  0.5242
  203MOL   H23949123   4.817   1.474   4.693 -1.4174  0.4763  0.6917
  203MOL   H24049124   4.862   1.394   4.553  0.6064  0.4564  1.8881
  203MOL   H24149125   4.716   1.349   4.654  0.5831 -2.0674 -0.8921
  203MOL   H24249126   4.388   1.519   4.423  0.3263 -0.8227  0.8435
  204MOL     C149127   1.305   4.122   0.090  0.6743 -0.0738  0.2746
  204MOL     C249128   1.340   4.171   0.233  0.1683 -0.2513 -0.3153
  204MOL     O349129   1.457   4.240   0.198 -0.2971 -0.7787 -0.0441
  204MOL     C449130   1.578   4.201   0.252 -0.0024  0.1957  0.9663
  204MOL     C549131   1.682   4.307   0.231 -0.3939 -0.4927  0.2683
  204MOL     O649132   1.597   4.094   0.308 -0.0649  0.6342 -0.1147
  204MOL     H749133   1.204   4.082   0.085 -0.6336  3.3092 -2.2827
  204MOL     H849134   1.375   4.047   0.051  1.0949  1.1489 -1.3951
  204MOL     H949135   1.364   4.082   0.292  1.0125 -0.3878 -0.8646
  204MOL    H1049136   1.776   4.252   0.237 -0.1281 -0.2360 -1.2909
  204MOL    H1149137   1.671   4.372   0.317  0.0018  0.1242 -0.1457
  204MOL    H1249138   1.665   4.359   0.136 -2.1122 -0.9493  0.3068
  204MOL    H1349139   1.306   4.204   0.018  1.0727 -0.8036 -0.5719
  204MOL    C1449140   1.236   4.266   0.299 -0.0720  0.1111  1.0550
  204MOL    C1549141   1.106   4.184   0.341 -0.3076  0.3940 -0.2246
  204MOL    O1649142   1.120   4.129   0.476 -0.4188 -0.1898  0.3351
  204MOL    C1749143   1.138   4.003   0.488 -0.2387 -0.7508 -0.1675
  204MOL    C1849144   1.164   3.956   0.628 -0.4673  0.1050  0.1195
  204MOL    O1949145   1.135   3.923   0.397 -0.0101 -0.7862 -0.7841
  204MOL    H2049146   1.293   4.299   0.386  1.3754 -1.4618  0.7300
  204MOL    H2149147   1.217   4.340   0.222 -2.9355 -2.3409 -0.6849
  204MOL    H2249148   1.097   4.107   0.264  0.6489  2.3365 -2.3319
  204MOL    H2349149   1.207   3.857   0.634  2.2860  1.2139 -0.6660
  204MOL    H2449150   1.062   3.953   0.667 -1.1811  1.3036 -1.5766
  204MOL    H2549151   1.221   4.035   0.677 -0.1272  1.3744 -2.1921
  204MOL    C2649152   0.979   4.270   0.343 -0.5138 -0.4637 -0.4449
  204MOL    C2749153   0.947   4.352   0.223 -0.3453  0.8354  0.2820
  204MOL    O2849154   0.934   4.275   0.111  0.3369 -0.1815  0.6111
  204MOL    C2949155   1.009   4.305   0.008  0.2797  0.3747  0.0685
  204MOL    C3049156   0.968   4.226   7.908  0.5602 -0.8914 -0.6462
  204MOL    O3149157   1.094   4.392   8.015 -0.1426 -0.0730  0.0393
  204MOL    H3249158   0.897   4.204   0.372 -0.4943 -0.5056 -0.4873
  204MOL    H3349159   1.005   4.329   0.431  2.5912 -0.9738 -0.9840
  204MOL    H3449160   1.026   4.427   0.218 -0.0918  0.7714  2.9322
  204MOL    H3549161   0.866   4.256   7.883  0.4734  0.9008  1.6510
  204MOL    H3649162   0.990   4.119   7.915  0.6153 -0.7207  2.5048
  204MOL    H3749163   1.023   4.266   7.823 -3.1275 -1.6213 -3.5251
  204MOL    C3849164   0.818   4.438   0.254  0.6237 -0.0991  0.7556
  204MOL    C3949165   0.804   4.584   0.193 -0.5572 -0.1792 -0.0128
  204MOL    O4049166   0.676   4.636   0.215 -1.0475 -0.5240 -0.0761
  204MOL    C4149167   0.611   4.712   0.116 -0.5143 -0.0315 -0.3432
  204MOL    C4249168   0.473   4.774   0.158 -0.3832  0.4256  0.1511
  204MOL    O4349169   0.664   4.747   0.010 -0.4507 -0.3378 -0.3841
  204MOL    H4449170   0.724   4.385   0.234 -0.7135  1.3483  2.9364
  204MOL    H4549171   0.820   4.445   0.363 -0.4801 -0.6785  0.8257
  204MOL    H4649172   0.819   4.574   0.085  1.0544  0.2261  0.1568
  204MOL    H4749173   0.396   4.726   0.097 -0.4562  1.2944 -0.4485
  204MOL    H4849174   0.471   4.881   0.137 -4.2156  0.0161 -2.0167
  204MOL    H4949175   0.470   4.747   0.263  1.5603 -1.3093 -0.1950
  204MOL    C5049176   0.922   4.687   0.229  0.1842  0.2262 -0.5464
  204MOL    C5149177   0.949   4.701   0.372  0.6755 -0.6573 -0.6087
  204MOL    O5249178   1.060   4.776   0.397  0.9013 -0.7920  0.3856
  204MOL    C5349179   1.179   4.723   0.407 -0.2724  0.0476 -0.6576
  204MOL    C5449180   1.274   4.822   0.464  0.2408  0.5630 -0.4848
  204MOL    O5549181   1.209   4.610   0.384 -0.3406  0.4639 -0.3545
  204MOL    H5649182   1.006   4.665   0.163  0.8513  1.1993 -0.0282
  204MOL    H5749183   0.901   4.789   0.195  2.4378  1.0104  0.3346
  204MOL    H5849184   0.964   4.606   0.422  1.2339 -1.0173 -1.4576
  204MOL    H5949185   1.249   4.927   0.448 -1.2068  0.4177  0.6674
  204MOL    H6049186   1.375   4.817   0.424 -0.3329  2.2704 -2.2316
  204MOL    H6149187   1.276   4.802   0.571 -0.3499  0.5768 -0.4723
  204MOL    C6249188   0.836   4.773   0.453  0.3332 -0.2325 -0.4252
  204MOL    C6349189   0.846   4.768   0.606  0.1877 -0.5501 -0.3400
  204MOL    O6449190   0.937   4.865   0.653  0.1793 -0.4244 -0.8631
  204MOL    C6549191   1.022   4.834   0.754 -0.2664  0.2601  0.3908
  204MOL    C6649192   1.121   4.951   0.771  0.6964  0.0723 -0.1940
  204MOL    O6749193   1.023   4.727   0.813  0.0926 -0.0018 -0.3562
  204MOL    H6849194   0.819   4.876   0.421 -1.2661 -0.6478 -0.9528
  204MOL    H6949195   0.737   4.731   0.436  1.5725 -2.8862 -1.4608
  204MOL    H7049196   0.869   4.664   0.627 -1.4148 -1.2630 -1.9433
  204MOL    H7149197   1.083   5.051   0.750  0.8119  0.1918  0.1714
  204MOL    H7249198   1.209   4.933   0.709 -0.3118 -2.1146 -1.0463
  204MOL    H7349199   1.159   4.948   0.873  2.7577  0.6020 -0.9094
  204MOL    C7449200   0.713   4.804   0.672  0.5608  0.2333  0.4549
  204MOL    C7549201   0.595   4.709   0.667 -0.3980  0.3168 -0.2843
  204MOL    O7649202   0.622   4.594   0.746 -0.3551 -0.1505  0.2652
  204MOL    C7749203   0.664   4.483   0.692  0.1142 -0.2013  0.1843
  204MOL    C7849204   0.673   4.382   0.804  0.7326  0.2735  0.2128
  204MOL    O7949205   0.696   4.459   0.573  0.0229  0.1495 -0.2204
  204MOL    H8049206   0.734   4.820   0.778 -0.9254  2.3700  0.4626
  204MOL    H8149207   0.682   4.900   0.630 -0.7990 -0.0548  0.7765
  204MOL    H8249208   0.574   4.674   0.566 -0.0792 -0.7441  0.0099
  204MOL    H8349209   0.749   4.304   0.797  0.6351  0.1374  0.6648
  204MOL    H8449210   0.576   4.335   0.819 -0.5478  2.0782 -2.0256
  204MOL    H8549211   0.702   4.422   0.901 -0.2446  0.8674  0.2620
  204MOL    C8649212   0.474   4.787   0.713  0.0298 -0.6238  0.4855
  204MOL    C8749213   0.340   4.724   0.725  0.1355 -0.1198  0.0054
  204MOL    O8849214   0.302   4.659   0.599  0.0792  0.0106  0.5711
  204MOL    C8949215   0.256   4.730   0.497 -0.3200  0.4415  0.5825
  204MOL    C9049216   0.229   4.644   0.371 -0.2910 -0.0526 -0.0727
  204MOL    O9149217   0.235   4.849   0.505 -0.0281  0.0944  0.4583
  204MOL    H9249218   0.480   4.839   0.809 -1.0303  0.3125  0.0513
  204MOL    H9349219   0.465   4.869   0.643 -0.3389 -2.1365 -1.2743
  204MOL    H9449220   0.259   4.794   0.744 -0.8234 -0.5674 -2.2320
  204MOL    H9549221   0.172   4.706   0.302 -0.7088  1.5540  1.6732
  204MOL    H9649222   0.159   4.563   0.392 -0.7152  0.6597  1.2949
  204MOL    H9749223   0.323   4.605   0.330  0.6470 -0.8007  2.6739
  204MOL    C9849224   0.331   4.614   0.834  0.3074 -0.5160 -0.1890
  204MOL    C9949225   0.353   4.659   0.979  0.0852 -0.6751  0.3160
  204MOL   O10049226   0.232   4.724   1.023  0.9004  0.2047 -0.3497
  204MOL   C10149227   0.230   4.844   1.076 -0.7029  0.1677 -0.2077
  204MOL   C10249228   0.088   4.896   1.077 -0.3691 -0.6694 -0.4773
  204MOL   O10349229   0.327   4.906   1.116 -0.1124 -0.2817  0.2808
  204MOL   H10449230   0.232   4.568   0.837  0.6854 -1.2847  0.9906
  204MOL   H10549231   0.402   4.535   0.810  1.9234  0.1162  2.2413
  204MOL   H10649232   0.418   4.746   0.977 -0.3217 -0.3935 -1.9783
  204MOL   H10749233   0.049   4.922   1.175 -2.2534 -1.5411 -0.9714
  204MOL   H10849234   0.020   4.826   1.027  0.4753 -0.7347 -1.5793
  204MOL   H10949235   0.081   4.987   1.017 -2.6184 -0.7490 -0.3831
  204MOL   C11049236   0.403   4.549   1.074  0.0724  0.1791  0.3555
  204MOL   C11149237   0.484   4.609   1.194  0.2990  0.2447  0.6224
  204MOL   O11249238   0.519   4.499   1.276 -0.4417 -0.2840  0.2133
  204MOL   C11349239   0.473   4.487   1.400  0.0138 -0.5393  0.3414
  204MOL   C11449240   0.518   4.356   1.474 -0.2033  0.6107  0.1500
  204MOL   O11549241   0.387   4.563   1.445  0.3267 -0.6039  0.1545
  204MOL   H11649242   0.311   4.509   1.118  0.4899 -0.3755  0.7362
  204MOL   H11749243   0.469   4.481   1.021 -0.2182  0.3182 -0.1890
  204MOL   H11849244   0.423   4.683   1.246 -1.8493  1.2272 -3.1529
  204MOL   H11949245   0.562   4.285   1.403  0.4699 -0.3087  1.4705
  204MOL   H12049246   0.438   4.312   1.532  1.1906  0.2286  1.8420
  204MOL   H12149247   0.594   4.385   1.546 -1.4719 -0.0059  1.7495
  204MOL   C12249248   0.616   4.679   1.143 -0.0671  0.4046 -0.6431
  204MOL   C12349249   0.701   4.731   1.260 -0.4201 -0.2627 -0.2434
  204MOL   O12449250   0.827   4.761   1.196 -0.0110  0.8383  0.2743
  204MOL   C12549251   0.926   4.681   1.212  0.3561  0.0499 -0.1725
  204MOL   C12649252   1.055   4.721   1.141  0.5648 -0.5709 -0.2487
  204MOL   O12749253   0.925   4.579   1.281 -0.1548 -0.0445 -0.3470
  204MOL   H12849254   0.681   4.617   1.082  2.9740  1.4046  1.4606
  204MOL   H12949255   0.599   4.764   1.077 -2.2332  0.5943  0.1140
  204MOL   H13049256   0.703   4.648   1.330 -0.8920 -1.4319 -1.5941
  204MOL   H13149257   1.110   4.634   1.106 -0.3276 -0.1239 -2.8485
  204MOL   H13249258   1.114   4.782   1.210  0.0937  0.3100 -0.6178
  204MOL   H13349259   1.024   4.785   1.058 -1.1044 -1.8869 -0.6537
  204MOL   C13449260   0.636   4.854   1.324  0.5028 -0.0033 -0.3543
  204MOL   C13549261   0.707   4.890   1.456  1.1017 -0.0561 -0.3268
  204MOL   O13649262   0.818   4.969   1.432 -0.4251  0.1557 -0.0012
  204MOL   C13749263   0.947   4.926   1.467 -0.9921  0.2661 -0.1426
  204MOL   C13849264   1.060   5.016   1.430  0.0055 -0.4232  0.3301
  204MOL   O13949265   0.982   4.829   1.529  0.3494  0.3194 -0.0672
  204MOL   H14049266   0.642   4.941   1.259  0.7044 -0.7213 -1.3039
  204MOL   H14149267   0.535   4.825   1.353  0.4889 -0.6547 -1.0380
  204MOL   H14249268   0.735   4.799   1.509 -1.1688 -0.2447  0.6122
  204MOL   H14349269   1.025   5.117   1.450  0.8579 -0.1643  0.5280
  204MOL   H14449270   1.082   5.023   1.323  0.4929  0.2627  0.4745
  204MOL   H14549271   1.151   4.992   1.485 -0.1465 -1.7315  0.0175
  204MOL   C14649272   0.611   4.958   1.558  0.2828  0.1206 -1.1521
  204MOL   C14749273   0.567   5.105   1.536 -0.4095 -0.3679 -0.6679
  204MOL   O14849274   0.459   5.089   1.444  0.0144 -0.9680 -0.0991
  204MOL   C14949275   0.410   5.195   1.376 -0.5265 -0.7324 -0.6195
  204MOL   C15049276   0.278   5.165   1.314  0.2762 -0.4227  0.1116
  204MOL   O15149277   0.463   5.309   1.366 -0.5595  0.0326 -0.0850
  204MOL   H15249278   0.530   4.890   1.582  0.0939  0.7145 -0.0844
  204MOL   H15349279   0.668   4.958   1.651 -0.6753  1.7997 -0.5446
  204MOL   H15449280   0.650   5.156   1.488  1.0651  0.6841  2.8257
  204MOL   H15549281   0.255   5.234   1.231 -0.3147  0.1999  0.7814
  204MOL   H15649282   0.204   5.196   1.388  0.4546 -0.4200  0.2880
  204MOL   H15749283   0.281   5.061   1.281  2.8986 -0.0403 -0.9913
  204MOL   C15849284   0.537   5.180   1.668  0.1690 -0.4601 -0.3409
  204MOL   C15949285   0.419   5.120   1.746  0.6813 -0.3868 -0.3570
  204MOL   O16049286   0.461   5.012   1.833  0.9128  0.0814  0.4785
  204MOL   C16149287   0.379   4.913   1.846 -0.3317 -1.2736  0.1600
  204MOL   C16249288   0.430   4.807   1.946  0.2675 -0.2775  0.2575
  204MOL   O16349289   0.263   4.902   1.799 -0.2892 -1.2235 -0.5444
  204MOL   H16449290   0.629   5.184   1.726  0.7214 -1.2353 -1.1419
  204MOL   H16549291   0.504   5.279   1.637  1.1026 -0.0608 -0.0563
  204MOL   H16649292   0.341   5.085   1.678 -1.7194  2.3826  0.8404
  204MOL   H16749293   0.352   4.795   2.021 -1.2486  0.4112 -1.1923
  204MOL   H16849294   0.531   4.834   1.979 -0.4518  1.4593  1.0599
  204MOL   H16949295   0.424   4.712   1.893  0.5370  1.5248 -3.1405
  204MOL   C17049296   0.354   5.233   1.837 -0.1345  0.3732  0.5381
  204MOL   C17149297   0.213   5.293   1.778 -0.2525  0.4821 -0.4141
  204MOL   O17249298   0.236   5.387   1.671 -0.5056  0.1813 -0.2444
  204MOL   C17349299   0.254   5.514   1.693 -0.3463 -0.1486 -0.4147
  204MOL   C17449300   0.257   5.596   1.561 -0.3525 -0.2651  0.5279
  204MOL   O17549301   0.265   5.575   1.799 -0.2775 -0.1821 -0.0221
  204MOL   H17649302   0.336   5.196   1.937  0.3610  1.0516  0.8793
  204MOL   H17749303   0.420   5.318   1.852  1.7819 -0.8518 -0.6980
  204MOL   H17849304   0.177   5.356   1.859 -1.6089 -0.7769 -0.0114
  204MOL   H17949305   0.182   5.556   1.492  0.4812 -0.0128 -0.5383
  204MOL   H18049306   0.354   5.576   1.516  0.1292 -2.0483  2.3151
  204MOL   H18149307   0.239   5.703   1.570 -0.4849  0.0305 -2.6079
  204MOL   C18249308   0.102   5.192   1.755  0.2506 -0.5150  0.2814
  204MOL   C18349309   7.986   5.262   1.756 -0.1422 -0.2046  0.5589
  204MOL   O18449310   7.968   5.329   1.628 -0.3912  0.4628 -0.1812
  204MOL   C18549311   7.907   5.450   1.624 -0.0047  0.1799  0.6161
  204MOL   C18649312   7.874   5.500   1.482  0.4323  0.3017  0.0108
  204MOL   O18749313   7.885   5.517   1.724 -0.1752 -0.1558  0.0897
  204MOL   H18849314   0.138   5.145   1.663  0.0111 -1.7439  0.8082
  204MOL   H18949315   0.114   5.119   1.834  0.1539  0.2546  1.0129
  204MOL   H19049316   7.974   5.336   1.836 -0.5201  1.1955 -0.7790
  204MOL   H19149317   7.787   5.564   1.466  0.8760  0.4727 -1.8220
  204MOL   H19249318   7.859   5.410   1.423 -0.3797  0.1447  0.4480
  204MOL   H19349319   7.959   5.552   1.437 -1.5165  1.8503 -2.0116
  204MOL   C19449320   7.873   5.161   1.770  0.2483 -0.2538  0.1642
  204MOL   C19549321   7.841   5.079   1.644 -0.4025 -0.2759 -0.8981
  204MOL   O19649322   7.948   4.989   1.615  0.7264 -0.2192 -0.1833
  204MOL   C19749323   8.003   4.978   1.490 -0.3507  0.3283  0.5435
  204MOL   C19849324   0.101   4.886   1.478  0.0015  0.1941 -0.0173
  204MOL   O19949325   7.960   5.035   1.389 -0.3574 -0.0429  0.0590
  204MOL   H20049326   7.907   5.094   1.849  2.2958  0.7811  0.1861
  204MOL   H20149327   7.783   5.201   1.817  1.8069  0.6610  2.4543
  204MOL   H20249328   7.817   5.154   1.569 -0.6157  2.7675  2.0673
  204MOL   H20349329   0.109   4.828   1.570  1.0509  1.1369  0.4988
  204MOL   H20449330   0.195   4.938   1.462  1.8749 -3.1425 -0.1876
  204MOL   H20549331   0.084   4.819   1.394  0.3581 -1.8384  1.4905
  204MOL   C20649332   7.712   4.999   1.657  0.9087 -0.5964  0.3618
  204MOL   C20749333   7.648   4.963   1.517 -0.3351  0.5383  0.1534
  204MOL   O20849334   7.559   4.847   1.531  0.7186  0.4124  0.3621
  204MOL   C20949335   7.596   4.722   1.479  0.5842  0.4925  1.3395
  204MOL   C21049336   7.497   4.614   1.518  0.3388 -0.3256 -0.1764
  204MOL   O21149337   7.703   4.692   1.414  0.7240 -0.1049  0.1286
  204MOL   H21249338   7.730   4.910   1.718  0.3159 -0.4439  0.7688
  204MOL   H21349339   7.645   5.060   1.718  1.4251 -0.4045  0.7435
  204MOL   H21449340   7.731   4.929   1.454  1.1761 -1.0409  2.9069
  204MOL   H21549341   7.520   4.522   1.465  1.9444 -1.2590  2.0628
  204MOL   H21649342   7.400   4.655   1.492  0.7275  1.2204  0.7414
  204MOL   H21749343   7.508   4.585   1.623  1.6358 -0.4465 -0.3416
  204MOL   C21849344   7.598   5.073   1.426  0.2270 -0.1058 -0.2560
  204MOL   C21949345   7.463   5.125   1.478 -0.6406 -0.0908  0.6307
  204MOL   O22049346   7.464   5.268   1.460 -0.6767  0.0103  0.5838
  204MOL   C22149347   7.523   5.349   1.540 -0.5578  0.5285  0.0561
  204MOL   C22249348   7.507   5.488   1.494  0.4408  0.3695  0.1300
  204MOL   O22349349   7.574   5.323   1.645  0.6685  0.4494 -0.2969
  204MOL   H22449350   7.675   5.146   1.401 -1.1913  1.2313 -0.8294
  204MOL   H22549351   7.579   5.033   1.327  0.1858 -0.4791 -0.0957
  204MOL   H22649352   7.456   5.106   1.585  0.3355  0.7879  0.8628
  204MOL   H22749353   7.562   5.506   1.401  0.7700 -1.8377 -0.1247
  204MOL   H22849354   7.556   5.556   1.564 -1.1423  2.7603 -1.0137
  204MOL   H22949355   7.406   5.527   1.485  1.5693  3.2257 -0.9078
  204MOL   C23049356   7.337   5.057   1.415  0.0107 -0.1929 -0.3617
  204MOL   C23149357   7.202   5.109   1.478  0.5770  0.1315  0.9474
  204MOL   O23249358   7.085   5.056   1.409  0.1873  0.7943  0.1031
  204MOL   C23349359   6.982   5.138   1.370  0.1670  0.4047 -0.7543
  204MOL   C23449360   6.863   5.079   1.295  0.4651  0.1713 -0.4847
  204MOL   O23549361   6.991   5.260   1.389 -0.1963 -0.0150 -0.1122
  204MOL   H23649362   7.346   5.067   1.307 -1.0825  0.2539 -0.4163
  204MOL   H23749363   7.346   4.949   1.425  1.0156 -0.0215  0.8482
  204MOL   H23849364   7.206   5.218   1.487  0.7361  0.1859  0.2621
  204MOL   H23949365   6.897   4.977   1.277 -1.5217 -0.6453  0.3230
  204MOL   H24049366   6.850   5.126   1.198  2.4305 -0.3888 -1.0482
  204MOL   H24149367   6.777   5.070   1.362  1.2001 -0.1674  0.4428
  204MOL   H24249368   7.189   5.068   1.578  1.3016 -1.5102  0.3921
  205MOL     C149369   3.410   2.289   7.760  0.3006 -0.0888  0.1800
  205MOL     C249370   3.519   2.380   7.704 -0.5635 -0.4414  0.2803
  205MOL     O349371   3.643   2.362   7.773 -0.4323 -0.2517  0.2477
  205MOL     C449372   3.663   2.429   7.887  0.6071 -0.6390 -0.1262
  205MOL     C549373   3.803   2.414   7.941 -0.3092  0.0934  0.0081
  205MOL     O649374   3.587   2.515   7.938 -0.0682  0.2538 -0.5447
  205MOL     H749375   3.389   2.305   7.866 -3.7450  1.0840 -0.7135
  205MOL     H849376   3.450   2.188   7.751  0.6890  0.0800  0.0431
  205MOL     H949377   3.488   2.484   7.710  0.0705 -0.3203  1.6039
  205MOL    H1049378   3.818   2.427   0.026 -1.1430  0.2284  0.1052
  205MOL    H1149379   3.882   2.467   7.886 -0.3240  2.5077  2.2408
  205MOL    H1249380   3.822   2.310   7.916 -1.6080  0.1716 -1.3452
  205MOL    H1349381   3.310   2.296   7.716 -0.1080 -1.7402  0.8053
  205MOL    C1449382   3.546   2.367   7.554  0.1492 -0.6574 -0.3016
  205MOL    C1549383   3.428   2.372   7.460  0.3263  0.3651  0.2177
  205MOL    O1649384   3.371   2.496   7.488  0.4666 -0.6065 -0.2969
  205MOL    C1749385   3.234   2.506   7.499 -0.5421  0.0061 -0.3061
  205MOL    C1849386   3.186   2.649   7.470 -0.4109  0.1370  0.2963
  205MOL    O1949387   3.160   2.412   7.524  0.6744  0.3718 -0.1903
  205MOL    H2049388   3.625   2.433   7.518  0.7223 -2.1647 -1.9307
  205MOL    H2149389   3.608   2.278   7.545  2.1350  0.4862  1.6355
  205MOL    H2249390   3.353   2.298   7.490  0.8313 -0.0765  0.4052
  205MOL    H2349391   3.100   2.677   7.531  0.5961 -0.3108  1.9620
  205MOL    H2449392   3.155   2.672   7.368  1.3549 -1.8253 -0.7055
  205MOL    H2549393   3.264   2.723   7.488  0.5536 -0.5739 -0.9515
  205MOL    C2649394   3.467   2.348   7.314 -0.2383 -0.2449  0.3783
  205MOL    C2749395   3.521   2.201   7.290 -0.5541 -0.3557  0.1908
  205MOL    O2849396   3.431   2.101   7.333  0.0665 -0.1165 -0.3683
  205MOL    C2949397   3.469   2.015   7.439  0.0016 -0.1731  0.3432
  205MOL    C3049398   3.367   1.908   7.469  0.0774 -0.0478 -0.5144
  205MOL    O3149399   3.572   2.035   7.504  0.6363 -0.3913  0.2763
  205MOL    H3249400   3.384   2.373   7.248 -1.0436  0.6925  1.7283
  205MOL    H3349401   3.534   2.425   7.273  0.6917 -0.3789  1.6151
  205MOL    H3449402   3.611   2.188   7.350  0.4868  1.5696 -0.9076
  205MOL    H3549403   3.417   1.812   7.485  3.4271  1.7249  0.3259
  205MOL    H3649404   3.292   1.896   7.391  1.8669  2.2096 -2.6494
  205MOL    H3749405   3.309   1.936   7.557 -1.7292 -0.3969 -1.5713
  205MOL    C3849406   3.554   2.153   7.145  0.1230  0.8891 -0.3504
  205MOL    C3949407   3.642   2.250   7.051 -0.0244 -0.1828 -0.7057
  205MOL    O4049408   3.775   2.228   7.095 -0.3021 -0.2884 -0.0340
  205MOL    C4149409   3.826   2.313   7.183  0.5116 -0.1983  0.1738
  205MOL    C4249410   3.962   2.278   7.234 -0.6123 -0.3251 -0.1334
  205MOL    O4349411   3.766   2.417   7.214 -0.2143 -0.6177  0.9731
  205MOL    H4449412   3.617   2.064   7.149  0.3985  1.0406 -1.3451
  205MOL    H4549413   3.464   2.142   7.085 -0.1716  2.5779 -0.2369
  205MOL    H4649414   3.597   2.348   7.063  0.0610 -0.0641 -1.3242
  205MOL    H4749415   4.010   2.215   7.160  1.6511 -1.2538  2.0262
  205MOL    H4849416   3.966   2.232   7.333 -0.1423 -1.2466 -0.5848
  205MOL    H4949417   4.029   2.363   7.243 -0.8825 -0.0455 -0.7442
  205MOL    C5049418   3.625   2.227   6.903 -0.1933 -0.1393 -0.2976
  205MOL    C5149419   3.704   2.319   6.808  0.9883 -0.3634 -0.0648
  205MOL    O5249420   3.841   2.277   6.812  0.6912 -0.2014 -0.4191
  205MOL    C5349421   3.948   2.364   6.796 -1.1648  0.1974 -0.1066
  205MOL    C5449422   4.075   2.295   6.828 -1.3630  0.1631  0.1932
  205MOL    O5549423   3.936   2.482   6.773 -0.0586 -0.3758  0.1515
  205MOL    H5649424   3.650   2.123   6.881  1.5967  0.0968  0.5510
  205MOL    H5749425   3.517   2.234   6.896 -0.1984 -0.4659 -0.5742
  205MOL    H5849426   3.686   2.423   6.835  0.4976 -0.1506 -1.1670
  205MOL    H5949427   4.061   2.188   6.844  0.1321 -0.1925 -0.7761
  205MOL    H6049428   4.131   2.323   6.918  0.1914 -0.1753 -0.6487
  205MOL    H6149429   4.134   2.294   6.737 -1.1369 -0.0940  0.3424
  205MOL    C6249430   3.657   2.296   6.664  0.7893  0.0254 -0.3150
  205MOL    C6349431   3.674   2.414   6.556 -0.9854  0.1014 -0.1326
  205MOL    O6449432   3.688   2.362   6.431 -0.3809 -0.4918  0.2877
  205MOL    C6549433   3.813   2.319   6.394  0.2727  0.2748 -0.4594
  205MOL    C6649434   3.839   2.305   6.235 -0.1552  0.1181 -0.1173
  205MOL    O6749435   3.906   2.293   6.472  0.1686 -0.2373  1.0446
  205MOL    H6849436   3.688   2.203   6.617  0.7120  0.1148 -0.5458
  205MOL    H6949437   3.551   2.272   6.672  0.7905  1.0372  3.2585
  205MOL    H7049438   3.761   2.476   6.580 -0.2189 -0.6748 -0.8623
  205MOL    H7149439   3.809   2.398   6.187 -0.9867  0.9213  1.8993
  205MOL    H7249440   3.800   2.218   6.183 -0.0284  0.0877 -0.1601
  205MOL    H7349441   3.946   2.292   6.221 -0.2211  0.4854 -1.0049
  205MOL    C7449442   3.552   2.503   6.557  0.5261 -0.5969 -0.2462
  205MOL    C7549443   3.525   2.575   6.692 -0.0679 -0.4531  0.0791
  205MOL    O7649444   3.635   2.660   6.716  0.2147  0.3584 -0.1497
  205MOL    C7749445   3.665   2.690   6.848 -0.0493  0.1097  0.5234
  205MOL    C7849446   3.794   2.775   6.861 -0.0243 -0.3589  0.0422
  205MOL    O7949447   3.596   2.665   6.947  0.0037 -0.4037 -0.1054
  205MOL    H8049448   3.569   2.581   6.484  2.8376 -1.3725 -0.5776
  205MOL    H8149449   3.463   2.444   6.533 -0.4916  1.1838 -0.9597
  205MOL    H8249450   3.526   2.503   6.773  1.2049  1.1093  1.4724
  205MOL    H8349451   3.789   2.832   6.954  2.0574 -0.8750  0.4867
  205MOL    H8449452   3.810   2.844   6.779 -0.9794  1.1103  1.0670
  205MOL    H8549453   3.881   2.711   6.845  0.5143  0.8400 -1.9411
  205MOL    C8649454   3.387   2.653   6.678 -0.0010  0.5303  0.2403
  205MOL    C8749455   3.270   2.563   6.723 -0.2752  0.4624  0.5736
  205MOL    O8849456   3.271   2.551   6.864  0.2229  0.1994  0.1309
  205MOL    C8949457   3.225   2.645   6.947  0.5011  0.5199 -0.1475
  205MOL    C9049458   3.218   2.599   7.096 -0.2495  0.0686  0.2016
  205MOL    O9149459   3.193   2.761   6.919 -0.0126  0.1483  0.1431
  205MOL    H9249460   3.388   2.752   6.724 -1.4061  0.3623  0.6655
  205MOL    H9349461   3.361   2.685   6.577  0.9059  1.1904  0.2110
  205MOL    H9449462   3.309   2.470   6.681  0.7497  0.5112  1.3768
  205MOL    H9549463   3.135   2.536   7.127 -1.5726  1.1505 -1.0792
  205MOL    H9649464   3.191   2.689   7.151  0.5051  0.6915 -0.4337
  205MOL    H9749465   3.319   2.575   7.130 -0.5898  2.5268  3.1004
  205MOL    C9849466   3.134   2.596   6.658  0.4377  0.3897  0.7164
  205MOL    C9949467   3.024   2.500   6.725 -0.1272  0.3382  0.1499
  205MOL   O10049468   2.896   2.558   6.687  0.1652 -0.0576  0.0197
  205MOL   C10149469   2.830   2.635   6.770  0.3546  0.3328 -0.1021
  205MOL   C10249470   2.688   2.657   6.734 -0.3380  0.7369 -0.1769
  205MOL   O10349471   2.879   2.689   6.866  0.4765  0.2037 -0.0017
  205MOL   H10449472   3.111   2.700   6.679  0.3340  0.1783  1.6898
  205MOL   H10549473   3.138   2.585   6.550  0.2731 -1.7225  0.8933
  205MOL   H10649474   3.024   2.498   6.834  3.8458  1.4479  0.2401
  205MOL   H10749475   2.671   2.598   6.644 -0.9720 -2.2516  1.8140
  205MOL   H10849476   2.654   2.760   6.731  1.5940  1.4958  2.4486
  205MOL   H10949477   2.631   2.624   6.821  0.9833  0.6835  0.6714
  205MOL   C11049478   3.041   2.357   6.663 -0.1744  0.7014 -0.5789
  205MOL   C11149479   2.936   2.246   6.704 -0.4501 -0.0112 -0.6657
  205MOL   O11249480   2.824   2.261   6.623 -0.5834 -0.5188  0.1208
  205MOL   C11349481   2.698   2.264   6.662  0.0246  0.2464  0.5978
  205MOL   C11449482   2.601   2.324   6.564 -0.8688  0.0494  0.1703
  205MOL   O11549483   2.660   2.226   6.768  0.2488  0.6865  0.5265
  205MOL   H11649484   3.033   2.364   6.555  0.7878 -2.3434 -0.9156
  205MOL   H11749485   3.144   2.333   6.693 -0.2789  1.6043  0.5320
  205MOL   H11849486   2.909   2.265   6.808 -1.5652  2.6046 -1.3965
  205MOL   H11949487   2.625   2.430   6.555  1.2235 -0.3679  0.5698
  205MOL   H12049488   2.499   2.322   6.602 -1.6350 -0.2139 -1.8769
  205MOL   H12149489   2.605   2.271   6.469 -0.8119  0.1166  0.1353
  205MOL   C12249490   2.987   2.102   6.681  0.1849 -0.5903 -0.0354
  205MOL   C12349491   3.099   2.061   6.770 -1.0201 -0.3163 -0.2667
  205MOL   O12449492   3.069   2.076   6.908  0.2526 -0.1271  0.1342
  205MOL   C12549493   3.133   2.164   6.989 -0.6757  0.1892  0.8726
  205MOL   C12649494   3.114   2.137   7.135 -0.6243  0.7317  0.1547
  205MOL   O12749495   3.209   2.252   6.955 -0.1369  0.2860 -0.5905
  205MOL   H12849496   2.910   2.025   6.693 -2.2671  1.3822 -2.4741
  205MOL   H12949497   3.037   2.085   6.586 -1.3989 -1.5761 -0.7190
  205MOL   H13049498   3.182   2.129   6.748 -1.4081  1.6284  3.6586
  205MOL   H13149499   3.025   2.080   7.160 -1.2043  1.3109 -0.5781
  205MOL   H13249500   3.085   2.232   7.179 -3.5239 -0.4846  0.9911
  205MOL   H13349501   3.205   2.099   7.182  0.3658 -1.5872 -3.3855
  205MOL   C13449502   3.156   1.927   6.738  0.6130 -0.3507 -1.0613
  205MOL   C13549503   3.272   1.869   6.822  0.1679  0.2189  0.0300
  205MOL   O13649504   3.236   1.847   6.957 -0.0902 -0.6793  0.2068
  205MOL   C13749505   3.143   1.766   7.010 -0.3991  0.8385  0.2414
  205MOL   C13849506   3.148   1.774   7.159 -0.1170  0.2107  0.5905
  205MOL   O13949507   3.061   1.698   6.946  0.1243 -0.0878  0.2163
  205MOL   H14049508   3.075   1.855   6.750  0.7991 -0.6295 -1.4425
  205MOL   H14149509   3.176   1.909   6.632  0.0556  0.2488 -1.2716
  205MOL   H14249510   3.346   1.950   6.822  0.0866  0.3851 -4.4121
  205MOL   H14349511   3.052   1.801   7.203 -0.0844  0.0542  0.7593
  205MOL   H14449512   3.209   1.854   7.201 -0.4213  0.2165  1.0246
  205MOL   H14549513   3.186   1.677   7.191  1.5138  0.6687  0.0636
  205MOL   C14649514   3.321   1.734   6.761 -0.2623 -0.2243  0.3321
  205MOL   C14749515   3.462   1.686   6.811  0.2184  0.2568 -0.0050
  205MOL   O14849516   3.471   1.684   6.952  0.4757  0.2330  0.3484
  205MOL   C14949517   3.530   1.783   7.018  0.2552 -0.7263  0.9182
  205MOL   C15049518   3.550   1.752   7.167  0.1762 -0.1813  0.2792
  205MOL   O15149519   3.570   1.879   6.955 -0.5185 -0.2334 -0.0221
  205MOL   H15249520   3.249   1.654   6.778 -1.5412  0.4759 -1.6235
  205MOL   H15349521   3.326   1.739   6.652  2.0243  0.2145  0.4223
  205MOL   H15449522   3.533   1.755   6.767 -0.6485  0.3768 -1.2285
  205MOL   H15549523   3.650   1.782   7.199  0.1765 -0.2872  0.3780
  205MOL   H15649524   3.543   1.644   7.183  1.0023 -0.7233 -2.8463
  205MOL   H15749525   3.477   1.810   7.224 -1.0145 -0.3848 -1.0292
  205MOL   C15849526   3.497   1.546   6.749  0.5427  0.5786 -0.3823
  205MOL   C15949527   3.619   1.466   6.805 -0.2805  1.3874  0.6891
  205MOL   O16049528   3.621   1.333   6.758  0.1259  0.0093 -0.3502
  205MOL   C16149529   3.570   1.226   6.826  0.1511  0.2368  0.0763
  205MOL   C16249530   3.584   1.093   6.752  0.2907  0.3683  0.2524
  205MOL   O16349531   3.503   1.233   6.927 -0.3162 -0.1562  0.0436
  205MOL   H16449532   3.414   1.475   6.757  1.9655 -0.9347  1.7121
  205MOL   H16549533   3.492   1.546   6.641  1.2517 -0.2540 -0.4205
  205MOL   H16649534   3.601   1.457   6.912 -1.4923  0.3033  0.4042
  205MOL   H16749535   3.632   1.011   6.806  0.0092 -1.4948 -2.1858
  205MOL   H16849536   3.643   1.089   6.660 -0.5764  1.9883 -0.3860
  205MOL   H16949537   3.488   1.042   6.741 -0.9365  2.8063 -0.6555
  205MOL   C17049538   3.755   1.539   6.787  0.8639  0.1982  0.7847
  205MOL   C17149539   3.877   1.459   6.833  0.1805  0.5420 -0.0640
  205MOL   O17249540   3.918   1.373   6.723 -0.4614 -0.0014 -0.3260
  205MOL   C17349541   3.966   1.247   6.739  0.9868 -1.1932 -0.8668
  205MOL   C17449542   3.999   1.181   6.604  0.2085 -0.2101 -1.0120
  205MOL   O17549543   3.981   1.181   6.849  0.3584  0.0614  0.1360
  205MOL   H17649544   3.775   1.560   6.682 -0.3245 -2.0523  0.0869
  205MOL   H17749545   3.757   1.627   6.852  2.5160  0.3892  0.5022
  205MOL   H17849546   3.846   1.388   6.909  1.5680  0.3755  0.3587
  205MOL   H17949547   4.047   1.083   6.614  0.2007 -0.1415 -0.2728
  205MOL   H18049548   4.066   1.243   6.544  0.3186  2.4603  1.7299
  205MOL   H18149549   3.902   1.172   6.556 -0.3163 -3.0552  0.5026
  205MOL   C18249550   3.999   1.534   6.887  0.4401 -0.3983 -0.1924
  205MOL   C18349551   4.069   1.653   6.810  0.0817 -0.1339  0.4700
  205MOL   O18449552   3.969   1.747   6.784  0.5527  0.1163  0.4080
  205MOL   C18549553   3.962   1.806   6.673 -0.7719  0.2491  0.2368
  205MOL   C18649554   3.851   1.909   6.676  0.0294  0.2190  0.4215
  205MOL   O18749555   4.046   1.807   6.581  0.3744 -0.3342 -0.2808
  205MOL   H18849556   3.967   1.572   6.984 -1.4059  0.7262 -1.2176
  205MOL   H18949557   4.076   1.458   6.906 -1.5708 -2.8765 -1.6447
  205MOL   H19049558   4.109   1.600   6.722 -0.9601  2.8145 -1.8587
  205MOL   H19149559   3.872   1.998   6.617  2.9269 -2.5800 -3.0103
  205MOL   H19249560   3.844   1.934   6.782  0.6833 -1.8965  1.0004
  205MOL   H19349561   3.754   1.867   6.649 -0.1445  1.7517 -1.4220
  205MOL   C19449562   4.199   1.700   6.887 -0.5062 -0.6475  0.2959
  205MOL   C19549563   4.267   1.836   6.859 -0.3052  0.6825 -0.2940
  205MOL   O19649564   4.352   1.873   6.971 -0.1466  0.3166 -0.2686
  205MOL   C19749565   4.321   1.972   7.051 -0.7033  0.2068 -0.1502
  205MOL   C19849566   4.432   1.991   7.157  0.3067  0.1334  0.3878
  205MOL   O19949567   4.223   2.049   7.040  0.6679  0.3542  0.3185
  205MOL   H20049568   4.182   1.702   6.995 -1.6853  1.7113  0.0778
  205MOL   H20149569   4.274   1.622   6.872  0.2165  0.1908 -0.4909
  205MOL   H20249570   4.197   1.920   6.849 -0.7276  0.7803  2.9301
  205MOL   H20349571   4.448   1.917   7.235 -0.0126  1.4429  1.7204
  205MOL   H20449572   4.410   2.083   7.212  0.4157 -0.2231  1.0401
  205MOL   H20549573   4.528   1.997   7.104 -0.9528  0.8496 -1.8886
  205MOL   C20649574   4.350   1.846   6.730  0.6236 -0.3796  0.9671
  205MOL   C20749575   4.401   1.986   6.688  0.6781  0.5949  0.5640
  205MOL   O20849576   4.490   2.032   6.785 -0.1876 -0.7770  0.1892
  205MOL   C20949577   4.508   2.166   6.808 -0.5072 -0.2229  0.0194
  205MOL   C21049578   4.619   2.189   6.909  0.3381  0.2379 -0.0641
  205MOL   O21149579   4.444   2.262   6.762 -0.0458  0.2985 -0.0204
  205MOL   H21249580   4.424   1.766   6.738  0.3886 -0.4530  2.7851
  205MOL   H21349581   4.293   1.812   6.644 -0.0627  1.8335  0.5143
  205MOL   H21449582   4.308   2.041   6.675  1.9184  1.9811 -2.8862
  205MOL   H21549583   4.675   2.097   6.924 -2.4677 -1.4926  0.1085
  205MOL   H21649584   4.574   2.231   6.999  0.7448 -1.0089  0.7380
  205MOL   H21749585   4.690   2.256   6.861  0.3393  0.0507 -0.3292
  205MOL   C21849586   4.475   1.983   6.547 -0.2197 -0.1555 -0.1780
  205MOL   C21949587   4.393   2.003   6.424  0.0922  0.0869  0.4091
  205MOL   O22049588   4.358   2.146   6.422 -0.3945 -0.1268 -0.1859
  205MOL   C22149589   4.256   2.193   6.365  0.2298  0.2768  0.1721
  205MOL   C22249590   4.252   2.345   6.354  0.4326  1.7731 -0.0825
  205MOL   O22349591   4.179   2.127   6.298  0.3948  0.1070 -0.0170
  205MOL   H22449592   4.544   2.066   6.555 -0.7845  0.4661 -1.5925
  205MOL   H22549593   4.527   1.889   6.526 -1.2420 -1.0602  1.2728
  205MOL   H22649594   4.308   1.935   6.422  0.7601 -0.7229 -0.9951
  205MOL   H22749595   4.195   2.371   6.265 -0.5140 -0.2541 -0.0934
  205MOL   H22849596   4.350   2.393   6.358  0.8009  1.0710 -0.6221
  205MOL   H22949597   4.200   2.392   6.438  0.5869  0.5993  0.6847
  205MOL   C23049598   4.491   1.985   6.308  0.1533 -0.0641  0.7440
  205MOL   C23149599   4.458   2.037   6.172 -0.4099 -0.6666  0.0960
  205MOL   O23249600   4.549   1.998   6.063 -0.2286 -0.3328 -0.4513
  205MOL   C23349601   4.681   2.057   6.043 -0.5885  0.1314 -0.2489
  205MOL   C23449602   4.768   1.992   5.937  0.5906  1.0788  0.4521
  205MOL   O23549603   4.724   2.151   6.110 -0.7705 -0.1770  0.1362
  205MOL   H23649604   4.586   2.037   6.321  0.2357 -0.2412  0.8470
  205MOL   H23749605   4.514   1.880   6.294  1.5928  0.4285 -0.7956
  205MOL   H23849606   4.446   2.146   6.172  0.2247 -0.5916 -0.4260
  205MOL   H23949607   4.859   1.954   5.983  0.0911  1.4501  1.7727
  205MOL   H24049608   4.807   2.050   5.854 -0.4066  1.6614  0.3806
  205MOL   H24149609   4.720   1.899   5.904 -1.2750  2.1229  0.1484
  205MOL   H24249610   4.358   2.005   6.142 -0.5021 -0.4229  0.1400
  206MOL     C149611   7.169   6.911   4.508  0.1712  0.3001  0.1210
  206MOL     C249612   7.185   6.916   4.357 -0.1591  1.0783  0.1706
  206MOL     O349613   7.205   6.782   4.315  0.5938  0.4414 -0.7292
  206MOL     C449614   7.239   6.747   4.190  0.2044 -0.5474  0.3561
  206MOL     C549615   7.241   6.594   4.174  0.5902  0.1811  0.2535
  206MOL     O649616   7.270   6.822   4.097 -0.4357  0.6944  0.0692
  206MOL     H749617   7.239   6.838   4.546 -0.8251 -1.6454 -1.6673
  206MOL     H849618   7.071   6.877   4.543 -0.5556  2.0257 -0.1481
  206MOL     H949619   7.262   6.987   4.327  0.9036  0.8446  2.2443
  206MOL    H1049620   7.224   6.534   4.263  0.4746 -1.6552 -0.9823
  206MOL    H1149621   7.339   6.578   4.128  0.0937 -0.2400 -0.6646
  206MOL    H1249622   7.158   6.569   4.108 -0.2049  0.9767  0.9341
  206MOL    H1349623   7.183   7.002   4.567  0.5228  0.3907 -0.1051
  206MOL    C1449624   7.056   6.975   4.295 -0.9903  0.3556  0.0846
  206MOL    C1549625   7.012   7.111   4.354  0.1435 -0.3637 -0.2467
  206MOL    O1649626   7.119   7.215   4.341  0.4593 -0.2361  0.2146
  206MOL    C1749627   7.157   7.299   4.436 -0.4263 -0.1116 -0.2333
  206MOL    C1849628   7.297   7.356   4.404 -0.2827 -0.0026 -0.4239
  206MOL    O1949629   7.097   7.315   4.539 -0.2282 -0.6242  0.1215
  206MOL    H2049630   7.078   6.991   4.190  0.4227  1.5221  0.5260
  206MOL    H2149631   6.975   6.905   4.310 -0.3368 -0.6793 -1.1518
  206MOL    H2249632   6.989   7.101   4.460  0.0828 -0.8944 -0.3124
  206MOL    H2349633   7.327   7.404   4.498  1.5842 -2.2611  0.2042
  206MOL    H2449634   7.284   7.432   4.328 -2.5094  0.0767  0.0188
  206MOL    H2549635   7.370   7.281   4.372  0.5429  0.0589  1.2138
  206MOL    C2649636   6.883   7.162   4.291  0.1969 -0.0087 -0.2081
  206MOL    C2749637   6.872   7.167   4.139 -0.1687 -0.3853 -0.1835
  206MOL    O2849638   6.852   7.032   4.094  0.3985  0.4687  0.0586
  206MOL    C2949639   6.894   6.980   3.979 -0.6706 -0.1108  0.5438
  206MOL    C3049640   6.865   6.832   3.966 -0.1765  0.3821  0.6855
  206MOL    O3149641   6.940   7.043   3.884 -0.0208 -0.8490  0.0131
  206MOL    H3249642   6.806   7.100   4.336  0.8823 -2.6296 -2.5590
  206MOL    H3349643   6.887   7.263   4.332  0.1634 -0.0971  0.0158
  206MOL    H3449644   6.962   7.197   4.086 -0.1121 -1.1244 -0.5143
  206MOL    H3549645   6.856   6.800   4.070 -1.0355 -0.5199  0.3337
  206MOL    H3649646   6.956   6.796   3.918  1.2777  1.5243  2.4811
  206MOL    H3749647   6.779   6.806   3.905 -0.7268  0.2325  1.5190
  206MOL    C3849648   6.758   7.253   4.073 -0.5820 -0.1921 -0.0829
  206MOL    C3949649   6.757   7.402   4.103 -0.5096  0.0602  0.2726
  206MOL    O4049650   6.873   7.463   4.042 -0.3023  0.1309 -0.4265
  206MOL    C4149651   6.936   7.568   4.111 -0.0726  1.1533  0.4994
  206MOL    C4249652   7.014   7.653   4.019  0.3600 -0.0953  0.4429
  206MOL    O4349653   6.932   7.582   4.236  0.2908 -0.4195  0.6010
  206MOL    H4449654   6.759   7.240   3.965 -3.1934 -1.2712 -0.0077
  206MOL    H4549655   6.661   7.205   4.087 -0.0190 -1.4668 -0.4875
  206MOL    H4649656   6.758   7.415   4.212 -2.6312 -2.0503  0.5786
  206MOL    H4749657   7.065   7.730   4.076 -0.9517  2.1625 -1.3640
  206MOL    H4849658   6.941   7.696   3.950  2.8966  1.6034 -1.2310
  206MOL    H4949659   7.087   7.590   3.969 -0.2383  0.5473 -1.2687
  206MOL    C5049660   6.626   7.469   4.057 -0.4480  0.6398  0.7506
  206MOL    C5149661   6.502   7.478   4.146 -0.1909 -1.0668 -0.4649
  206MOL    O5249662   6.441   7.346   4.141  0.4274 -0.5462 -0.0871
  206MOL    C5349663   6.351   7.323   4.049  0.5335 -0.0650  0.1399
  206MOL    C5449664   6.285   7.183   4.050  0.0277  0.0798 -0.5070
  206MOL    O5549665   6.314   7.412   3.974  0.3393 -0.6194 -1.0311
  206MOL    H5649666   6.651   7.572   4.031  0.6599  0.5538  1.4401
  206MOL    H5749667   6.609   7.438   3.954  0.4395  0.2071  0.7353
  206MOL    H5849668   6.441   7.561   4.109 -1.6720 -1.2337  1.5545
  206MOL    H5949669   6.177   7.188   4.039 -0.3654 -0.8368  2.5593
  206MOL    H6049670   6.314   7.135   4.143 -0.1030 -1.2157 -1.1199
  206MOL    H6149671   6.314   7.128   3.960  0.0759  0.4798 -0.7393
  206MOL    C6249672   6.543   7.499   4.297 -0.0933  0.1670  1.1909
  206MOL    C6349673   6.613   7.636   4.322  0.2952 -0.6754  0.1319
  206MOL    O6449674   6.523   7.746   4.294  0.3157  0.7930  0.0714
  206MOL    C6549675   6.540   7.820   4.186  0.6065 -0.3668 -0.6382
  206MOL    C6649676   6.445   7.936   4.177  0.4540 -0.2029 -0.0134
  206MOL    O6749677   6.627   7.814   4.102  0.5542  0.3206  0.1678
  206MOL    H6849678   6.451   7.497   4.356 -1.2168 -1.1823 -0.5553
  206MOL    H6949679   6.609   7.421   4.335  2.3690  0.9569 -1.2940
  206MOL    H7049680   6.700   7.639   4.257  0.5915  0.4218  0.5615
  206MOL    H7149681   6.394   7.945   4.273  0.2655 -1.1104 -0.0229
  206MOL    H7249682   6.376   7.914   4.096 -1.0933 -1.2954  1.5700
  206MOL    H7349683   6.503   0.007   4.174 -2.5887  1.7310 -1.2483
  206MOL    C7449684   6.679   7.650   4.460 -0.6109  0.2330 -0.4817
  206MOL    C7549685   6.584   7.632   4.580  0.1274  0.4626 -0.3244
  206MOL    O7649686   6.660   7.631   4.704 -0.1147 -0.1894 -0.0048
  206MOL    C7749687   6.624   7.535   4.800 -1.0602  0.0866 -0.3866
  206MOL    C7849688   6.697   7.555   4.929  0.1425 -0.5303 -0.2110
  206MOL    O7949689   6.530   7.451   4.791  0.2006 -0.3869  0.3608
  206MOL    H8049690   6.761   7.581   4.477  1.0283  2.6440  1.8576
  206MOL    H8149691   6.733   7.745   4.468  0.5520 -0.5496  1.2098
  206MOL    H8249692   6.546   7.531   4.566 -0.3131  0.2489  2.1432
  206MOL    H8349693   6.685   7.465   4.989  3.3023 -0.7481  0.1839
  206MOL    H8449694   6.646   7.633   4.985 -1.5836 -1.5545 -0.3466
  206MOL    H8549695   6.800   7.571   4.896 -0.5926  0.7821 -1.8879
  206MOL    C8649696   6.455   7.719   4.584  0.2618  0.4315  0.4781
  206MOL    C8749697   6.475   7.866   4.608 -0.9363 -0.0966  0.0163
  206MOL    O8849698   6.347   7.925   4.599  0.6082  0.2260  0.0806
  206MOL    C8949699   6.326   0.019   4.536  0.2839  1.0296  0.3834
  206MOL    C9049700   6.183   0.065   4.553  0.4445 -0.6329 -0.9550
  206MOL    O9149701   6.404   0.081   4.466  0.7796 -0.6531 -0.3307
  206MOL    H9249702   6.397   7.697   4.494  0.0146 -1.9999  1.1947
  206MOL    H9349703   6.394   7.679   4.665 -0.8613 -0.2327 -0.6718
  206MOL    H9449704   6.542   7.902   4.529  0.5950 -1.8188  0.5022
  206MOL    H9549705   6.111   0.028   4.480 -0.5073 -1.2647  0.2828
  206MOL    H9649706   6.178   0.174   4.547  3.2577 -0.4217 -0.1169
  206MOL    H9749707   6.138   0.035   4.648  0.6375 -1.1353 -1.0182
  206MOL    C9849708   6.536   7.887   4.751 -0.5794  0.0386  0.2006
  206MOL    C9949709   6.552   8.019   4.813 -0.2589 -0.5608 -0.7292
  206MOL   O10049710   6.580   7.988   4.950  0.0455 -0.2552  0.0684
  206MOL   C10149711   6.488   7.996   5.047 -0.3599 -0.2314 -0.4155
  206MOL   C10249712   6.548   7.943   5.177 -1.2655 -0.0786  0.3653
  206MOL   O10349713   6.374   0.017   5.040  0.1728  0.6933 -0.0712
  206MOL   H10449714   6.472   7.830   4.818 -1.1659  1.1756  0.6364
  206MOL   H10549715   6.639   7.852   4.751 -1.2088 -1.8661  1.1880
  206MOL   H10649716   6.453   0.041   4.802 -0.7079 -1.7432 -1.4934
  206MOL   H10749717   6.475   7.900   5.246 -1.7408  1.8286  1.0748
  206MOL   H10849718   6.582   0.013   5.226  2.7621  0.1638 -2.5784
  206MOL   H10949719   6.637   7.883   5.157  0.0952  1.8658  0.4745
  206MOL   C11049720   6.654   0.091   4.744  0.1175 -0.1981 -0.5228
  206MOL   C11149721   6.671   0.231   4.810 -0.1743  0.8162 -1.3153
  206MOL   O11249722   6.774   0.211   4.916  0.1821 -0.3925  0.0391
  206MOL   C11349723   6.757   0.286   5.029 -0.5574 -0.6181 -0.6281
  206MOL   C11449724   6.856   0.254   5.137 -0.5105  0.3090  0.2946
  206MOL   O11549725   6.665   0.363   5.050 -0.6952 -0.1519  0.4340
  206MOL   H11649726   6.749   0.039   4.740  1.1556  1.6671 -0.8384
  206MOL   H11749727   6.624   0.119   4.643 -0.3012  4.0690  0.6504
  206MOL   H11849728   6.584   0.270   4.863  1.3107 -0.0416  1.8521
  206MOL   H11949729   6.843   0.154   5.180 -0.1926  0.8882  1.7735
  206MOL   H12049730   6.834   0.316   5.224  0.5515 -0.0400  0.8254
  206MOL   H12149731   6.958   0.280   5.106 -1.0600  3.3461  0.8630
  206MOL   C12249732   6.717   0.346   4.718 -0.0261  0.1112  0.7898
  206MOL   C12349733   6.587   0.418   4.650 -0.0156  0.7146  0.1691
  206MOL   O12449734   6.513   0.471   4.755  0.0568 -0.9317  0.1170
  206MOL   C12549735   6.384   0.432   4.783 -0.5475  0.3865 -0.5739
  206MOL   C12649736   6.347   0.465   4.930 -0.7067 -0.3042  0.3688
  206MOL   O12749737   6.304   0.385   4.708 -0.1123 -0.4337 -0.4063
  206MOL   H12849738   6.764   0.424   4.777  0.7791 -0.4378  0.8852
  206MOL   H12949739   6.784   0.320   4.635 -1.8640 -1.1552 -0.3290
  206MOL   H13049740   6.528   0.337   4.608  2.9076 -2.7577  2.3975
  206MOL   H13149741   6.299   0.562   4.946 -2.8498 -1.3989  0.8681
  206MOL   H13249742   6.434   0.438   4.990  0.4335  1.0048 -0.6557
  206MOL   H13349743   6.264   0.405   4.967 -1.0723  1.2667  2.2234
  206MOL   C13449744   6.616   0.521   4.546  0.4084  0.0976 -0.4364
  206MOL   C13549745   6.527   0.510   4.427  0.0943 -0.7006 -1.0496
  206MOL   O13649746   6.406   0.590   4.437  0.2204 -0.2049 -0.0212
  206MOL   C13749747   6.296   0.547   4.386 -0.0051  0.2340 -0.1945
  206MOL   C13849748   6.178   0.642   4.420 -0.2002 -0.1696 -0.0285
  206MOL   O13949749   6.272   0.438   4.321 -0.4579 -0.6791  0.2291
  206MOL   H14049750   6.627   0.625   4.575  0.0756  1.0500 -3.5171
  206MOL   H14149751   6.717   0.490   4.520 -0.5337 -1.7262 -2.0817
  206MOL   H14249752   6.494   0.407   4.427 -2.6951  0.1396  2.1762
  206MOL   H14349753   6.081   0.598   4.397 -0.8423  0.8131  0.7477
  206MOL   H14449754   6.185   0.738   4.370  0.9287 -0.6008 -0.7210
  206MOL   H14549755   6.159   0.655   4.526  0.7572 -0.2336  0.1530
  206MOL   C14649756   6.600   0.572   4.304  0.1802 -0.1790  0.4332
  206MOL   C14749757   6.560   0.515   4.163 -0.7104  0.3990 -0.2494
  206MOL   O14849758   6.606   0.594   4.052 -0.1057  0.3736 -0.3891
  206MOL   C14949759   6.734   0.661   4.055  1.1128  0.2788  0.2396
  206MOL   C15049760   6.763   0.730   3.924  0.5873 -0.3601 -0.5156
  206MOL   O15149761   6.814   0.665   4.152  0.3293  0.1519 -0.2110
  206MOL   H15249762   6.598   0.681   4.312 -0.6582  0.0453 -2.2633
  206MOL   H15349763   6.707   0.562   4.322  0.1375 -2.8091 -0.6034
  206MOL   H15449764   6.451   0.510   4.158 -0.6806  1.1854 -2.2745
  206MOL   H15549765   6.673   0.771   3.876  0.3343  0.9497  1.0441
  206MOL   H15649766   6.806   0.658   3.853  0.0863 -0.5361 -0.6434
  206MOL   H15749767   6.839   0.805   3.944 -1.7335  1.9902 -0.1669
  206MOL   C15849768   6.606   0.368   4.138 -0.2622 -0.1889  0.2818
  206MOL   C15949769   6.544   0.307   4.006  1.1856  0.6800  0.4264
  206MOL   O16049770   6.609   0.186   3.978  0.3420  0.6226  0.2507
  206MOL   C16149771   6.724   0.181   3.915 -0.3806 -0.5781 -0.4417
  206MOL   C16249772   6.772   0.044   3.877 -0.5167 -0.1126 -0.2737
  206MOL   O16349773   6.797   0.281   3.894 -0.8328  0.4472 -0.0059
  206MOL   H16449774   6.714   0.372   4.126 -0.5065  0.9018 -1.8772
  206MOL   H16549775   6.583   0.309   4.226 -1.7937  0.7860  0.5592
  206MOL   H16649776   6.548   0.383   3.928 -0.5026 -0.7821 -1.1331
  206MOL   H16749777   6.696   7.991   3.900  0.3479 -1.5361 -1.9278
  206MOL   H16849778   6.859   0.009   3.933 -1.1448  1.1810  1.5734
  206MOL   H16949779   6.784   0.055   3.770  1.3669  0.5731 -0.0106
  206MOL   C17049780   6.396   0.277   4.017 -0.7700 -0.3758 -0.0475
  206MOL   C17149781   6.339   0.246   3.876  0.2372  0.3075  0.2577
  206MOL   O17249782   6.374   0.114   3.840  0.1499  0.0836 -0.4790
  206MOL   C17349783   6.443   0.082   3.728 -0.5951  0.2833  0.3981
  206MOL   C17449784   6.458   7.957   3.706  0.3372 -0.7831  0.3626
  206MOL   O17549785   6.503   0.155   3.646 -0.1344  0.6198 -0.1130
  206MOL   H17649786   6.373   0.197   4.086 -3.7261  1.3447  1.0427
  206MOL   H17749787   6.329   0.349   4.063 -1.9591 -2.9531  2.3529
  206MOL   H17849788   6.378   0.318   3.805 -0.2164  0.8844  0.5838
  206MOL   H17949789   6.393   7.909   3.779 -0.0592  0.3983  0.8103
  206MOL   H18049790   6.563   7.943   3.732  0.4892 -0.5834 -0.1389
  206MOL   H18149791   6.435   7.922   3.606 -2.8291  0.6411  0.5082
  206MOL   C18249792   6.191   0.254   3.874 -0.3614 -0.1073 -0.0731
  206MOL   C18349793   6.145   0.230   3.725 -0.5362 -0.4194  0.1333
  206MOL   O18449794   6.010   0.182   3.730  0.4510  0.2102 -0.1302
  206MOL   C18549795   5.996   0.051   3.765  0.3650  0.5127  0.2310
  206MOL   C18649796   5.844   0.007   3.758  0.2693  0.0507 -0.8917
  206MOL   O18749797   6.084   7.993   3.800 -0.0532  0.3122 -0.2941
  206MOL   H18849798   6.150   0.177   3.939 -0.2509 -0.3063 -0.2393
  206MOL   H18949799   6.163   0.354   3.907  1.0503  0.4082 -0.4034
  206MOL   H19049800   6.194   0.160   3.658  0.2476 -0.7822  1.0798
  206MOL   H19149801   5.794   0.070   3.831 -0.1613 -0.7255 -0.5113
  206MOL   H19249802   5.825   7.923   3.780 -0.7846  0.4604  0.1822
  206MOL   H19349803   5.795   0.038   3.666  1.0151  1.3002 -0.8735
  206MOL   C19449804   6.125   0.363   3.648  0.2244 -0.2196 -0.1959
  206MOL   C19549805   6.245   0.392   3.550 -0.7801  0.2846 -0.3253
  206MOL   O19649806   6.231   0.296   3.448  0.3452 -0.5279 -0.5453
  206MOL   C19749807   6.334   0.251   3.379  0.7436 -0.6973  0.1763
  206MOL   C19849808   6.321   0.114   3.311  0.7389  0.2142  0.3588
  206MOL   O19949809   6.441   0.317   3.374  0.1243 -0.0982 -0.4364
  206MOL   H20049810   6.036   0.357   3.585  1.1089 -2.1293 -1.2992
  206MOL   H20149811   6.090   0.434   3.722 -1.8176 -1.4898  0.1116
  206MOL   H20249812   6.343   0.386   3.598 -0.1273  0.2203 -1.6584
  206MOL   H20349813   6.218   0.084   3.291  0.4982  0.8321  0.6742
  206MOL   H20449814   6.367   0.047   3.384 -0.8076 -0.2636  0.9114
  206MOL   H20549815   6.384   0.114   3.222  0.3908  0.9453  0.1099
  206MOL   C20649816   6.222   0.530   3.483 -0.3509 -0.2016  0.0099
  206MOL   C20749817   6.259   0.643   3.581  0.2056 -0.9451 -0.4702
  206MOL   O20849818   6.400   0.660   3.570  0.2636 -0.1134  0.0587
  206MOL   C20949819   6.485   0.615   3.672 -0.1735 -0.1183  0.5809
  206MOL   C21049820   6.630   0.627   3.623  0.5106 -0.0981 -1.1272
  206MOL   O21149821   6.448   0.561   3.772 -0.5005  0.4762  0.5315
  206MOL   H21249822   6.294   0.542   3.402 -0.2885  2.0053  0.3659
  206MOL   H21349823   6.117   0.535   3.457 -0.9960 -1.4811  2.1789
  206MOL   H21449824   6.236   0.617   3.684 -1.4173  0.2463 -0.5200
  206MOL   H21549825   6.629   0.628   3.514 -1.5489 -0.8734 -1.1274
  206MOL   H21649826   6.688   0.544   3.665 -0.1403  0.4448  0.8774
  206MOL   H21749827   6.665   0.723   3.660  1.2960 -1.6371  2.2725
  206MOL   C21849828   6.187   0.776   3.550  0.2910  0.7067  0.1371
  206MOL   C21949829   6.194   0.882   3.660 -0.4419 -0.7447 -0.8106
  206MOL   O22049830   6.317   0.958   3.648  0.0136  0.4702  0.5894
  206MOL   C22149831   6.381   1.013   3.742 -0.0342  0.2299 -0.0768
  206MOL   C22249832   6.495   1.105   3.686 -0.5709 -0.0995 -0.6755
  206MOL   O22349833   6.366   0.995   3.868  0.1824 -0.8856  0.6436
  206MOL   H22449834   6.213   0.817   3.452  0.7618 -1.3972 -0.6457
  206MOL   H22549835   6.084   0.747   3.527  0.0427  2.0646 -0.5202
  206MOL   H22649836   6.191   0.838   3.760  0.9081 -0.1714 -0.5062
  206MOL   H22749837   6.468   1.207   3.714 -0.0485 -0.5192  1.4994
  206MOL   H22849838   6.503   1.101   3.578  0.6826 -0.1424 -0.5865
  206MOL   H22949839   6.597   1.082   3.719 -1.1954 -0.3573  1.1550
  206MOL   C23049840   6.077   0.980   3.649 -0.0353  0.2413  0.6861
  206MOL   C23149841   5.941   0.924   3.677 -0.2789 -0.2540 -0.5139
  206MOL   O23249842   5.832   0.991   3.617  0.2794  0.0297  0.3614
  206MOL   C23349843   5.703   0.954   3.647 -0.7536  0.6586  0.1844
  206MOL   C23449844   5.602   1.045   3.575  0.4096  0.1989 -0.0483
  206MOL   O23549845   5.670   0.864   3.722  0.2241 -0.2766  0.0244
  206MOL   H23649846   6.084   1.053   3.729 -1.1334  1.6727 -0.5025
  206MOL   H23749847   6.076   1.045   3.562 -1.1776  0.3406  0.7726
  206MOL   H23849848   5.922   0.921   3.785 -2.0256  0.8969 -0.7579
  206MOL   H23949849   5.505   1.029   3.623  0.1294  0.5189 -0.5099
  206MOL   H24049850   5.583   1.010   3.473 -2.3640  1.7482 -0.1006
  206MOL   H24149851   5.634   1.149   3.575  0.2427  0.2872 -2.3635
  206MOL   H24249852   5.940   0.820   3.644  0.7994  0.5059 -3.0407
   8.02150   8.02150   8.02150
