Control file title. For DL_FIELD 4.10
49796
    1RES     C1    1   4.416   0.893   1.798  0.4165 -0.6454  0.0595
    1RES     C2    2   4.287   0.820   1.855  0.1932  0.0542  0.7972
    1RES     C3    3   4.212   0.920   1.945 -0.1780 -0.0194  0.1323
    1RES     C4    4   4.274   0.969   2.085  0.0566 -0.6998 -0.1906
    1RES     C5    5   4.193   1.091   2.139 -0.0937  0.3340  0.6763
    1RES     C6    6   4.246   1.130   2.277 -0.2202  0.6942  0.0138
    1RES     C7    7   4.390   1.188   2.270 -0.2112  0.2672 -0.1311
    1RES     H8    8   4.474   0.839   1.722 -1.0964  1.6193 -2.8298
    1RES     H9    9   4.491   0.906   1.876  0.3325 -0.5946  0.1319
    1RES    H10   10   4.222   0.786   1.774  1.1084  0.3690 -0.0680
    1RES    H11   11   4.209   1.017   1.897  0.1954  0.3185  0.7899
    1RES    H12   12   4.108   0.888   1.950 -0.0542 -0.4495  0.0185
    1RES    H13   13   4.269   0.887   2.157 -0.3245 -0.8727 -0.4071
    1RES    H14   14   4.378   0.993   2.067  0.0502 -0.6152 -0.1112
    1RES    H15   15   4.088   1.066   2.155  0.1618  0.0056  1.9244
    1RES    H16   16   4.204   1.169   2.064 -0.0840 -0.2061  0.1090
    1RES    H17   17   4.248   1.039   2.338 -2.0023 -0.7717 -1.9932
    1RES    H18   18   4.181   1.210   2.313  0.0871  0.3245  1.4189
    1RES    H19   19   4.395   1.291   2.234 -0.5678  0.6774  0.9565
    1RES    H20   20   4.451   1.130   2.201 -0.4114 -0.5999  0.4121
    1RES    H21   21   4.442   1.181   2.366  0.6144 -1.2116 -0.6883
    1RES    H22   22   4.388   0.979   1.737 -0.5635 -0.3313  0.9580
    1RES    C23   23   4.342   0.696   1.939  0.0086 -0.3707 -0.3955
    1RES    C24   24   4.241   0.617   2.024  0.0384 -0.1980  1.2822
    1RES    C25   25   4.306   0.538   2.134 -0.3628  0.6362 -0.6115
    1RES    C26   26   4.354   0.625   2.254 -0.0018  0.7568 -0.3307
    1RES    C27   27   4.420   0.545   2.368 -0.3339 -0.1519  0.1002
    1RES    C28   28   4.496   0.625   2.469 -0.3998 -0.0813  0.4787
    1RES    C29   29   4.515   0.558   2.602  0.8024  0.2417  0.0791
    1RES    H30   30   4.397   0.622   1.880 -1.7616 -1.6208 -0.5278
    1RES    H31   31   4.420   0.728   2.008  0.6609 -2.8544  0.0472
    1RES    H32   32   4.169   0.685   2.068 -0.5551 -0.8253  1.2895
    1RES    H33   33   4.394   0.485   2.099 -0.6982 -2.2026  2.5028
    1RES    H34   34   4.250   0.451   2.169  0.1820  1.1478  1.6064
    1RES    H35   35   4.278   0.692   2.293 -0.6630 -0.5028  0.5894
    1RES    H36   36   4.426   0.696   2.214  0.3570  0.0320 -0.9833
    1RES    H37   37   4.482   0.462   2.333 -0.3220  0.2369 -0.8032
    1RES    H38   38   4.339   0.491   2.416 -0.4341  0.5682  0.7597
    1RES    H39   39   4.462   0.728   2.480  0.0268  0.1116  0.0043
    1RES    H40   40   4.599   0.634   2.434 -0.4610  3.2042  0.9773
    1RES    H41   41   4.588   0.605   2.668  1.9727 -0.2345 -0.8471
    1RES    H42   42   4.419   0.564   2.652  0.8307  2.3546 -0.1085
    1RES    H43   43   4.558   0.458   2.604  1.6209  0.6052  0.7720
    1RES    C44   44   4.167   0.521   1.924 -0.2293 -0.4799  0.0212
    1RES    C45   45   4.027   0.482   1.973  0.2968 -0.0085 -0.1603
    1RES    C46   46   3.915   0.588   1.981  0.3544  0.2262  0.3604
    1RES    C47   47   3.871   0.656   1.846 -0.2193  0.0537  0.0617
    1RES    C48   48   3.748   0.747   1.861 -0.7250  0.3061  0.1018
    1RES    C49   49   3.687   0.780   1.723 -0.0854 -0.9754  0.1348
    1RES    C50   50   3.578   0.884   1.735  0.4856  0.2694  0.1668
    1RES    H51   51   4.229   0.436   1.895 -0.9182 -1.5378  1.5562
    1RES    H52   52   4.150   0.570   1.828  0.2070 -2.4329 -1.0735
    1RES    H53   53   4.030   0.454   2.079  0.0435 -1.2582 -0.4708
    1RES    H54   54   3.955   0.667   2.044 -2.8061 -0.5277  3.4888
    1RES    H55   55   3.828   0.556   2.038 -0.5534  0.0357 -1.0902
    1RES    H56   56   3.951   0.717   1.805  0.1198  0.8741  1.9049
    1RES    H57   57   3.842   0.577   1.776 -0.9883 -2.7626  3.3962
    1RES    H58   58   3.791   0.839   1.901  0.9314 -0.4414  0.0623
    1RES    H59   59   3.678   0.708   1.935  0.3051  0.5039  1.2069
    1RES    H60   60   3.636   0.692   1.682  1.0727 -0.9370 -1.4130
    1RES    H61   61   3.758   0.802   1.644  1.0916 -0.3721  1.3512
    1RES    H62   62   3.613   0.949   1.815  2.1101 -1.7529  1.1692
    1RES    H63   63   3.482   0.850   1.773  0.4900 -1.3691 -1.2074
    1RES    H64   64   3.544   0.932   1.643 -3.4062  1.3313  2.0446
    1RES    C65   65   3.970   0.348   1.916  0.0122  0.8510  0.5300
    1RES    C66   66   4.032   0.225   1.983 -0.2527  0.4769  0.2792
    1RES    C67   67   4.008   0.098   1.896 -0.0114 -0.4713  0.3589
    1RES    C68   68   3.854   0.058   1.890 -0.4685  0.0752 -0.2019
    1RES    C69   69   3.830   7.645   1.830 -0.3296 -0.6600 -0.0502
    1RES    C70   70   3.874   7.522   1.907 -0.1552  0.3557 -0.2201
    1RES    C71   71   3.890   7.399   1.817 -0.5761 -0.8208  0.0750
    1RES    H72   72   3.862   0.343   1.931 -0.0919  1.6293  0.0788
    1RES    H73   73   3.984   0.355   1.808 -2.3853  0.5505  0.1838
    1RES    H74   74   4.140   0.239   1.984 -0.1986  0.1279  1.9774
    1RES    H75   75   4.043   0.131   1.798  3.0441  1.6813  2.0883
    1RES    H76   76   4.069   0.009   1.914  0.2981 -0.7919 -2.0792
    1RES    H77   77   3.805   0.061   1.988 -0.1112 -0.8925  0.0058
    1RES    H78   78   3.814   0.135   1.824  1.3867  3.3406  2.3152
    1RES    H79   79   3.726   7.627   1.802 -0.4528  0.5656 -0.4327
    1RES    H80   80   3.884   7.636   1.736  0.1500 -0.9279  0.2466
    1RES    H81   81   3.807   7.498   1.990 -0.3269  0.8713 -0.2062
    1RES    H82   82   3.972   7.548   1.949 -0.0001 -1.4401  0.5803
    1RES    H83   83   3.986   7.398   1.764  0.5886 -1.1005  2.1315
    1RES    H84   84   3.902   7.309   1.877  1.3636  0.1931  1.2705
    1RES    H85   85   3.807   7.373   1.751 -1.3848  0.3876  0.5966
    1RES    C86   86   3.985   0.197   2.134  0.1046  0.5502 -0.4148
    1RES    C87   87   4.060   0.089   2.220 -0.0854 -0.4135 -0.7375
    1RES    C88   88   4.210   0.125   2.249 -0.1632 -0.4107  0.1145
    1RES    C89   89   4.302   0.003   2.227 -0.5160  0.1722  0.2418
    1RES    C90   90   4.452   0.018   2.258  0.1125  1.2027  0.1018
    1RES    C91   91   4.527   0.134   2.187  0.9714 -0.0537  0.0509
    1RES    C92   92   4.547   0.127   2.036 -0.3504 -0.4162 -0.7862
    1RES    H93   93   4.000   0.288   2.191  1.2879  0.4735 -0.5942
    1RES    H94   94   3.876   0.201   2.137  0.2152  3.4010  0.7546
    1RES    H95   95   4.060   7.720   2.166 -0.3271 -0.0745 -1.3442
    1RES    H96   96   4.244   0.206   2.184  0.4449 -0.6330  0.1548
    1RES    H97   97   4.218   0.181   2.342 -3.1459  0.6336 -0.2016
    1RES    H98   98   4.251   7.649   2.280 -1.2897  0.4836 -0.0150
    1RES    H99   99   4.281   7.693   2.127 -1.8719  1.1774  0.1359
    1RES   H100  100   4.511   7.658   2.225 -0.7770  0.7671 -0.3615
    1RES   H101  101   4.468   0.007   2.365 -1.1935 -0.7670  0.1201
    1RES   H102  102   4.464   0.222   2.198  0.6185 -0.5630  2.2445
    1RES   H103  103   4.623   0.161   2.231  1.1253 -2.0114  0.9685
    1RES   H104  104   4.622   0.052   2.012  0.5274 -0.5970  2.3441
    1RES   H105  105   4.588   0.225   2.010 -1.1259 -0.4508 -2.2148
    1RES   H106  106   4.449   0.109   1.990 -1.3678 -0.1472  1.2190
    1RES   C107  107   3.995   0.068   2.360 -0.4598 -0.0628 -0.0408
    1RES   C108  108   3.864   7.722   2.347  1.3063 -0.0601 -0.1120
    1RES   C109  109   3.882   7.578   2.386 -0.3549 -0.1310 -0.1788
    1RES   C110  110   4.002   7.504   2.319 -0.2107  0.2402  0.3049
    1RES   C111  111   4.004   7.352   2.347 -0.3189 -0.3763  0.7695
    1RES   C112  112   4.146   7.295   2.345  0.4926  0.0765  0.6853
    1RES   C113  113   4.156   7.140   2.347  0.0541 -0.2780  0.1270
    1RES   H114  114   3.980   0.172   2.392  1.2913  0.6366 -1.4238
    1RES   H115  115   4.070   0.033   2.431 -0.5341  2.3535  1.3038
    1RES   H116  116   3.835   7.718   2.242  0.3409 -0.2311  0.1607
    1RES   H117  117   3.798   7.515   2.358 -0.6575  0.1023  0.2009
    1RES   H118  118   3.901   7.586   2.493  2.5901 -0.4584 -0.6388
    1RES   H119  119   3.998   7.523   2.212  0.6849  0.1709  0.2574
    1RES   H120  120   4.097   7.542   2.355  0.9019  0.4504 -2.7135
    1RES   H121  121   3.956   7.295   2.267  0.2637  1.3031 -0.7990
    1RES   H122  122   3.955   7.321   2.439  1.3206 -1.8898  1.1409
    1RES   H123  123   4.196   7.314   2.251 -0.3232 -1.2158 -0.0197
    1RES   H124  124   4.208   7.338   2.424  2.1387 -0.8992 -0.0633
    1RES   H125  125   4.102   7.094   2.264 -0.1276 -1.1467  0.7303
    1RES   H126  126   4.260   7.107   2.340 -0.2578 -1.6455  1.7610
    1RES   H127  127   4.115   7.110   2.443 -1.2247 -2.6319 -1.1258
    1RES   C128  128   3.752   0.053   2.440  0.2124 -0.1805  0.1390
    1RES   C129  129   3.677   0.172   2.381  0.2277 -0.0530  0.6050
    1RES   C130  130   3.633   0.282   2.486 -0.8199  0.3349  0.2065
    1RES   C131  131   3.749   0.340   2.566 -0.2038 -0.9071  0.1224
    1RES   C132  132   3.848   0.431   2.489  0.1374 -0.3195 -0.2225
    1RES   C133  133   3.941   0.512   2.578  0.4729 -0.4381 -0.2460
    1RES   C134  134   4.047   0.581   2.505  0.3413 -0.6115 -0.3605
    1RES   H135  135   3.683   7.700   2.463 -0.2702  0.1351 -0.2081
    1RES   H136  136   3.805   0.086   2.530  0.2738 -0.3314  0.1575
    1RES   H137  137   3.739   0.224   2.308  0.2375  0.6488  1.1186
    1RES   H138  138   3.555   0.242   2.551 -1.1610 -1.3774 -1.2311
    1RES   H139  139   3.589   0.373   2.445  1.1871  0.6062 -1.4082
    1RES   H140  140   3.800   0.269   2.631  1.6143  1.3153  1.1934
    1RES   H141  141   3.702   0.409   2.636 -0.8812 -2.1594  0.9322
    1RES   H142  142   3.790   0.501   2.429 -1.5488 -0.3187  1.3618
    1RES   H143  143   3.899   0.368   2.416  1.8798  0.2015  0.5131
    1RES   H144  144   3.987   0.450   2.655  0.9837  2.1694  1.6243
    1RES   H145  145   3.877   0.581   2.634  0.5890 -2.1069  2.0074
    1RES   H146  146   4.087   0.508   2.434 -2.2461 -0.4482 -2.0420
    1RES   H147  147   4.131   0.613   2.567 -2.2030 -1.5895  3.8073
    1RES   H148  148   4.026   0.661   2.435  1.7355 -0.4282 -0.5728
    1RES   C149  149   3.555   0.115   2.316 -0.8352  0.0255 -0.6840
    1RES   C150  150   3.467   0.228   2.238 -0.2015  1.0884  0.4421
    1RES   C151  151   3.339   0.160   2.183 -0.3221 -0.3104 -0.2030
    1RES   C152  152   3.226   0.130   2.295 -0.5697  0.1674  0.4887
    1RES   C153  153   3.110   0.224   2.298 -0.4302 -0.1510  0.6471
    1RES   C154  154   3.132   0.349   2.388  0.5787 -0.6320  1.1602
    1RES   C155  155   3.023   0.461   2.373  0.1288 -0.2728 -0.4344
    1RES   H156  156   3.591   0.032   2.256 -0.1961  1.2430 -1.9928
    1RES   H157  157   3.487   0.067   2.387  0.6863  0.8242  1.3745
    1RES   H158  158   3.432   0.307   2.304 -1.4619  1.0680 -0.1776
    1RES   H159  159   3.284   0.209   2.103  1.4245  0.8917 -0.7135
    1RES   H160  160   3.363   0.065   2.137 -0.2624 -0.8804  0.9807
    1RES   H161  161   3.260   0.108   2.396  1.0712  0.9404  0.1141
    1RES   H162  162   3.171   0.043   2.259 -0.2031  0.5385 -0.9959
    1RES   H163  163   3.024   0.176   2.344 -0.1231 -0.2359  1.1309
    1RES   H164  164   3.083   0.256   2.197  0.4505 -2.4553 -0.3454
    1RES   H165  165   3.233   0.384   2.370  0.7735 -0.8723  1.8109
    1RES   H166  166   3.126   0.318   2.492  0.9168 -1.5727  0.9069
    1RES   H167  167   3.001   0.483   2.269 -0.8861 -1.1243 -0.4158
    1RES   H168  168   3.070   0.549   2.416  0.8650  0.1126 -2.0186
    1RES   H169  169   2.928   0.441   2.423  0.2686 -1.2998 -0.5638
    1RES   C170  170   3.538   0.285   2.121  0.4355  0.2363 -0.0133
    1RES   C171  171   3.486   0.420   2.068 -0.4577  0.6170  0.1301
    1RES   C172  172   3.511   0.539   2.153  0.7427  0.1005 -0.3977
    1RES   C173  173   3.423   0.663   2.141 -0.3204 -1.1021 -0.3221
    1RES   C174  174   3.275   0.649   2.171  0.4056  0.8369  0.0235
    1RES   C175  175   3.205   0.784   2.194 -0.0887  0.4110 -0.9580
    1RES   C176  176   3.156   0.850   2.064  0.2799 -0.0799  0.6263
    1RES   H177  177   3.549   0.212   2.041  1.0834  0.0552  0.2374
    1RES   H178  178   3.642   0.299   2.152  1.0548 -0.3564 -1.7367
    1RES   H179  179   3.377   0.418   2.070 -0.5207 -1.2658 -2.1267
    1RES   H180  180   3.619   0.550   2.142  1.1526 -3.4736 -0.6524
    1RES   H181  181   3.509   0.510   2.258  2.3241  2.4965  0.3271
    1RES   H182  182   3.430   0.706   2.041  0.3647  0.1224  0.2408
    1RES   H183  183   3.464   0.738   2.208  2.5744  0.6387 -3.8333
    1RES   H184  184   3.280   0.588   2.261 -0.2085  1.8738  0.7806
    1RES   H185  185   3.213   0.599   2.097 -1.0751 -0.0984  1.8479
    1RES   H186  186   3.261   0.852   2.258  1.0705  0.1191 -1.6398
    1RES   H187  187   3.120   0.765   2.259 -0.6448  2.7137 -0.9572
    1RES   H188  188   3.093   0.933   2.095 -2.0166 -1.1977 -0.8136
    1RES   H189  189   3.096   0.792   1.993  1.1148 -1.1341  0.7737
    1RES   H190  190   3.234   0.901   2.009  0.6787 -1.4273 -0.0981
    1RES   C191  191   3.525   0.455   1.918  0.1572 -0.0699  0.1824
    1RES   C192  192   3.428   0.393   1.814  0.4148 -0.4037 -0.3860
    1RES   C193  193   3.287   0.473   1.816  0.2891 -0.1442 -0.7179
    1RES   C194  194   3.168   0.375   1.827 -0.5723 -0.9561 -0.1019
    1RES   C195  195   3.034   0.443   1.847 -0.1741 -0.0699 -0.7901
    1RES   C196  196   2.921   0.344   1.874 -0.5902  0.1629  0.1220
    1RES   C197  197   2.891   0.251   1.749  0.4765 -0.4048  0.1746
    1RES   H198  198   3.625   0.416   1.901 -0.4244 -1.2536 -0.5250
    1RES   H199  199   3.524   0.561   1.890  0.9908 -0.3740 -1.0364
    1RES   H200  200   3.404   0.290   1.843 -0.7799 -0.1685 -0.5163
    1RES   H201  201   3.269   0.522   1.720 -1.4182  0.1585 -0.2639
    1RES   H202  202   3.296   0.544   1.898 -1.1798 -0.4265 -0.2981
    1RES   H203  203   3.191   0.306   1.908  1.4279 -0.5932 -0.3409
    1RES   H204  204   3.166   0.313   1.738  0.2080 -0.3017 -0.5821
    1RES   H205  205   3.035   0.516   1.928  1.8431 -1.5006  0.4959
    1RES   H206  206   3.003   0.518   1.773 -0.3186  0.4673 -0.1922
    1RES   H207  207   2.829   0.401   1.888 -0.0546  1.6500 -2.0235
    1RES   H208  208   2.944   0.284   1.962 -0.0944 -0.2387 -0.2802
    1RES   H209  209   2.982   0.204   1.713  0.5388 -0.6806  0.6877
    1RES   H210  210   2.842   0.299   1.664 -1.1161 -2.6431 -0.1957
    1RES   H211  211   2.822   0.173   1.781 -0.8729  0.7678  0.1999
    1RES   C212  212   3.478   0.387   1.668 -0.2752 -0.0681  0.2737
    1RES   C213  213   3.587   0.274   1.627 -0.1324  0.2826 -0.3811
    1RES   C214  214   3.543   0.132   1.678  0.0971 -0.3745 -0.0198
    1RES   C215  215   3.418   0.065   1.625  0.0939  0.4037  0.8011
    1RES   C216  216   3.392   7.652   1.678 -0.4597 -0.0006 -0.2416
    1RES   C217  217   3.346   7.635   1.821 -0.7854  0.4315 -0.8808
    1RES   C218  218   3.220   7.716   1.857 -0.9581 -0.4452 -0.1555
    1RES   H219  219   3.508   0.490   1.648  0.7404 -0.7374 -1.8279
    1RES   H220  220   3.391   0.379   1.602  0.1305  1.8507 -0.5297
    1RES   H221  221   3.682   0.298   1.674 -0.5954 -1.0279  1.2580
    1RES   H222  222   3.631   0.071   1.660 -0.4899 -1.7630  1.7164
    1RES   H223  223   3.539   0.138   1.787 -0.8853 -2.6216  0.0892
    1RES   H224  224   3.409   0.076   1.517 -0.0545 -3.2640  0.3909
    1RES   H225  225   3.340   0.132   1.660 -0.4015 -0.4621  1.3652
    1RES   H226  226   3.315   7.615   1.611  1.5312 -0.5852 -2.2401
    1RES   H227  227   3.479   7.590   1.657  1.1088  1.7577  0.9338
    1RES   H228  228   3.329   7.530   1.847 -0.8784  0.5771 -0.3562
    1RES   H229  229   3.432   7.658   1.883 -1.7975  1.9748 -0.0333
    1RES   H230  230   3.191   7.683   1.956  0.3666  3.2480  1.5654
    1RES   H231  231   3.133   7.699   1.794  0.8345 -0.6607 -2.6761
    1RES   H232  232   3.236   0.097   1.850 -1.0797 -0.3996  0.2901
    1RES   C233  233   3.618   0.264   1.475  0.1795  0.4200 -0.2738
    1RES   C234  234   3.683   0.389   1.412 -0.4571 -0.0632  0.1803
    1RES   C235  235   3.830   0.399   1.464 -0.2930 -0.3052  0.6878
    1RES   C236  236   3.900   0.530   1.469  0.3023 -0.0825  0.0670
    1RES   C237  237   4.056   0.521   1.494  0.0738 -0.3247 -0.5579
    1RES   C238  238   4.124   0.655   1.486  0.2128 -0.0386 -0.3074
    1RES   C239  239   4.271   0.628   1.510 -0.0458  0.8242  0.2575
    1RES   H240  240   3.523   0.234   1.429  0.6411 -0.2349 -0.8045
    1RES   H241  241   3.686   0.184   1.446 -1.5798 -0.8366 -1.0238
    1RES   H242  242   3.622   0.473   1.446 -0.8422  0.2280 -1.2165
    1RES   H243  243   3.891   0.331   1.405  0.4203  1.2431 -0.4090
    1RES   H244  244   3.847   0.379   1.570  2.1725  1.2293  0.6128
    1RES   H245  245   3.861   0.589   1.552 -0.7871 -0.3572 -0.2486
    1RES   H246  246   3.874   0.577   1.374  1.4065  1.2233  0.3907
    1RES   H247  247   4.107   0.450   1.430 -0.6278 -0.3442 -1.1043
    1RES   H248  248   4.066   0.493   1.599  2.2259  1.0508 -0.3669
    1RES   H249  249   4.114   0.703   1.388 -2.3311 -0.0178 -0.0800
    1RES   H250  250   4.079   0.726   1.555  0.0205  1.1998 -1.6730
    1RES   H251  251   4.306   0.565   1.428  1.4109  1.6398  0.2448
    1RES   H252  252   4.316   0.727   1.509  0.5372  0.5771  1.2822
    1RES   H253  253   4.292   0.595   1.611  0.7238 -0.3755 -0.2751
    1RES   C254  254   3.688   0.390   1.261 -0.0291 -0.2655  0.8399
    1RES   C255  255   3.554   0.413   1.196 -0.3461 -0.1943 -0.7621
    1RES   C256  256   3.512   0.310   1.081 -0.0606 -0.1637  0.5314
    1RES   C257  257   3.476   0.165   1.125 -0.3482 -0.2890 -0.2573
    1RES   C258  258   3.427   0.083   1.004 -0.1817  0.1016  0.4026
    1RES   C259  259   3.533   0.048   0.894  0.3970  0.0710 -0.0138
    1RES   C260  260   3.489   7.673   0.792  0.3717 -0.5339 -0.3346
    1RES   H261  261   3.722   0.292   1.226  0.5335 -0.3599  1.6217
    1RES   H262  262   3.755   0.461   1.214 -1.5076 -0.4015 -1.5413
    1RES   H263  263   3.481   0.399   1.276 -0.2404  4.0344  0.2326
    1RES   H264  264   3.591   0.302   1.007  0.4377  1.7916  0.8106
    1RES   H265  265   3.435   0.360   1.021  1.1367 -2.1983 -2.8291
    1RES   H266  266   3.569   0.124   1.164  0.6935  0.4374 -1.9202
    1RES   H267  267   3.405   0.147   1.206 -0.2572 -1.5818 -0.4437
    1RES   H268  268   3.337   0.129   0.963 -0.6516 -1.7726 -0.7193
    1RES   H269  269   3.392   7.711   1.033 -0.1841 -0.1255 -0.3687
    1RES   H270  270   3.571   0.134   0.838 -1.3242 -0.5631 -2.2775
    1RES   H271  271   3.622   0.012   0.945  0.2021  1.3777  1.2731
    1RES   H272  272   3.540   7.685   0.697  1.6165  2.1660  0.5991
    1RES   H273  273   3.522   7.575   0.828  2.0958  0.4486  0.8529
    1RES   H274  274   3.381   7.660   0.798  0.1939 -0.1742 -2.6152
    1RES   C275  275   3.531   0.564   1.149  0.9512  0.8260  0.2178
    1RES   C276  276   3.524   0.679   1.245 -0.1381 -0.5340 -0.8083
    1RES   C277  277   3.380   0.695   1.310 -0.1287 -0.0166  0.3180
    1RES   C278  278   3.373   0.772   1.444  0.1469  0.0993 -0.1755
    1RES   C279  279   3.227   0.784   1.499  0.3210 -0.5285  0.9141
    1RES   C280  280   3.217   0.856   1.635  0.1356 -0.9957  0.2413
    1RES   C281  281   3.070   0.887   1.668 -0.1444 -0.0533  0.2064
    1RES   H282  282   3.431   0.561   1.105  0.1136  1.2887  2.0429
    1RES   H283  283   3.598   0.575   1.064 -0.3969 -1.8717 -1.2680
    1RES   H284  284   3.597   0.657   1.323 -0.8573 -2.5636 -0.6910
    1RES   H285  285   3.326   0.749   1.232  0.6167  1.9467  1.1549
    1RES   H286  286   3.332   0.597   1.315  0.3172 -0.2410  0.2314
    1RES   H287  287   3.424   0.868   1.435  1.1966 -0.5844 -1.6987
    1RES   H288  288   3.439   0.716   1.510 -0.9407 -1.7388 -0.6120
    1RES   H289  289   3.190   0.681   1.499  0.2571 -0.5036  0.6114
    1RES   H290  290   3.168   0.854   1.441  1.9065  0.3659  0.3385
    1RES   H291  291   3.264   0.792   1.710 -0.4446 -1.3923  0.2693
    1RES   H292  292   3.278   0.946   1.632 -3.3666  1.4109 -1.2213
    1RES   H293  293   3.018   0.792   1.659  0.5320 -0.5322  1.2985
    1RES   H294  294   3.035   0.954   1.590  0.3327  0.9094  0.8113
    1RES   H295  295   3.043   0.931   1.764 -1.5924 -0.9049  0.1954
    1RES   C296  296   3.547   0.809   1.175  0.1921  0.0563 -0.9750
    1RES   C297  297   3.694   0.847   1.179 -0.2710  0.1601  0.5107
    1RES   C298  298   3.722   0.930   1.314  0.0309 -0.0813 -0.0406
    1RES   C299  299   3.865   0.952   1.354 -0.0869 -0.1854  0.1888
    1RES   C300  300   3.883   1.020   1.490  0.2341  0.2151 -0.1298
    1RES   C301  301   4.013   1.094   1.496  0.3344  0.1057 -0.3918
    1RES   C302  302   4.033   1.178   1.625  0.3312  0.1134 -0.1225
    1RES   H303  303   3.512   0.804   1.072 -0.1682 -1.8647 -0.7732
    1RES   H304  304   3.497   0.898   1.214  0.5760  0.4880 -1.4579
    1RES   H305  305   3.757   0.759   1.167 -2.1415 -0.8643 -2.0794
    1RES   H306  306   3.654   1.015   1.317 -0.7078 -0.6143 -1.2792
    1RES   H307  307   3.683   0.863   1.390  1.9332 -0.1160  0.9416
    1RES   H308  308   3.916   1.011   1.277 -0.8762  0.2613 -0.0007
    1RES   H309  309   3.908   0.852   1.362  0.0105 -0.4227 -2.7567
    1RES   H310  310   3.871   0.954   1.576 -0.5524  0.3802 -0.1078
    1RES   H311  311   3.801   1.089   1.505  0.7851  0.6124  1.1374
    1RES   H312  312   4.095   1.026   1.477 -1.0436 -1.6510 -0.2202
    1RES   H313  313   4.007   1.171   1.419  1.1402 -0.4106 -0.9707
    1RES   H314  314   4.081   1.275   1.620  1.6843 -0.3177  3.0387
    1RES   H315  315   3.939   1.214   1.666  1.2003 -0.0828  2.1479
    1RES   H316  316   4.073   1.122   1.710 -1.1506 -0.6111  0.1164
    1RES   C317  317   3.726   0.929   1.053 -0.0631  0.3565 -0.4828
    1RES   C318  318   3.724   0.850   0.924 -0.1567  0.8364 -0.0606
    1RES   C319  319   3.651   0.921   0.810 -0.6243 -0.2567  0.1705
    1RES   C320  320   3.500   0.934   0.812  1.3269  0.4466  0.2567
    1RES   C321  321   3.409   0.804   0.822  0.3465  1.4834 -0.0188
    1RES   C322  322   3.267   0.811   0.873 -0.2231  0.4834 -0.1899
    1RES   C323  323   3.191   0.927   0.812  0.4595  0.1984 -0.3550
    1RES   H324  324   3.825   0.973   1.064 -0.6617  1.1486  2.1527
    1RES   H325  325   3.661   1.017   1.053  1.1658  1.2629 -0.8982
    1RES   H326  326   3.672   0.755   0.938  0.3676  0.3765 -1.2064
    1RES   H327  327   3.678   0.865   0.721  0.4765  0.8818 -0.2091
    1RES   H328  328   3.700   1.018   0.806  2.2460 -1.6906 -0.4964
    1RES   H329  329   3.480   0.986   0.718 -0.5888 -3.0066 -1.3299
    1RES   H330  330   3.473   1.012   0.883  0.4511  2.4802 -2.2395
    1RES   H331  331   3.457   0.733   0.889 -0.8260  0.7045 -0.0010
    1RES   H332  332   3.406   0.763   0.721 -0.3031 -0.9100  0.9336
    1RES   H333  333   3.268   0.823   0.982  1.5812 -1.4394  0.0507
    1RES   H334  334   3.207   0.721   0.858 -0.3866  0.7228 -0.9812
    1RES   H335  335   3.253   1.015   0.797 -2.9126  2.5247 -1.3302
    1RES   H336  336   3.110   0.965   0.875  0.5821 -0.0279 -0.0587
    1RES   H337  337   3.148   0.899   0.716 -1.2258 -1.0637  0.7355
    1RES   C338  338   3.868   0.807   0.877 -0.4126  0.4909 -0.0038
    1RES   C339  339   3.946   0.697   0.953  0.7338 -0.0084  0.4461
    1RES   C340  340   4.054   0.747   1.047 -0.1210 -0.1275 -0.4126
    1RES   C341  341   4.187   0.786   0.985 -0.6131  0.4514 -0.0646
    1RES   C342  342   4.273   0.866   1.082 -0.3527  0.0821  0.1580
    1RES   C343  343   4.350   0.794   1.191 -0.9813 -0.1340 -0.4616
    1RES   C344  344   4.425   0.895   1.288 -0.2104 -0.5392 -0.4401
    1RES   H345  345   3.939   0.886   0.853 -1.2556  0.5781 -2.2743
    1RES   H346  346   3.851   0.765   0.778  2.0368  0.8800 -0.6181
    1RES   H347  347   3.871   0.649   1.014 -1.6548 -0.5459 -2.8034
    1RES   H348  348   4.002   0.835   1.085  0.4556 -0.4603  1.1996
    1RES   H349  349   4.072   0.682   1.133  0.9032 -2.1749 -2.1454
    1RES   H350  350   4.176   0.838   0.890 -2.6694  1.4414  0.6888
    1RES   H351  351   4.246   0.697   0.961 -3.1383 -1.2074 -0.3344
    1RES   H352  352   4.331   0.935   1.020 -0.1177 -0.4718 -0.2402
    1RES   H353  353   4.203   0.937   1.127 -0.6440 -0.2369  0.2081
    1RES   H354  354   4.285   0.722   1.239  1.6325 -2.6995 -0.5971
    1RES   H355  355   4.430   0.731   1.151  0.7908  0.3829  2.1323
    1RES   H356  356   4.500   0.956   1.237 -0.6138  0.4095  0.0923
    1RES   H357  357   4.475   0.845   1.371 -0.8163  2.2845  1.6994
    1RES   H358  358   4.354   0.966   1.332  0.8492  0.5104 -0.3834
    1RES   C359  359   3.996   0.580   0.866 -0.1958 -0.5157  0.6192
    1RES   C360  360   3.909   0.448   0.870  0.2091 -0.2261 -0.4556
    1RES   C361  361   3.767   0.450   0.811  0.1360  0.8579 -0.5663
    1RES   C362  362   3.764   0.475   0.667  0.9281  0.3170  0.7873
    1RES   C363  363   3.623   0.443   0.604  0.1794 -0.1890 -0.3983
    1RES   C364  364   3.624   0.445   0.452  1.0641  0.2212  0.5478
    1RES   C365  365   3.483   0.453   0.393  0.0583 -0.0119 -0.1578
    1RES   H366  366   4.097   0.557   0.898  2.1126  2.3292 -4.0183
    1RES   H367  367   4.026   0.615   0.767 -1.6524  2.9999  1.3488
    1RES   H368  368   3.891   0.438   0.977  1.9439 -1.2801 -0.2452
    1RES   H369  369   3.733   0.347   0.827 -1.5904  1.4210 -0.5182
    1RES   H370  370   3.699   0.510   0.871 -1.2484 -0.1036 -1.1427
    1RES   H371  371   3.790   0.579   0.648  1.5220 -0.3071 -2.0518
    1RES   H372  372   3.835   0.426   0.600  1.0688 -0.0508  1.2029
    1RES   H373  373   3.586   0.352   0.650 -0.7423  0.0925 -0.5746
    1RES   H374  374   3.549   0.517   0.636  0.4590 -0.5682  1.1587
    1RES   H375  375   3.681   0.533   0.423 -0.6612  1.1343 -0.1416
    1RES   H376  376   3.663   0.352   0.410 -0.6958  0.1367 -0.9796
    1RES   H377  377   3.438   0.550   0.415 -1.3414 -0.5767 -0.4544
    1RES   H378  378   3.498   0.446   0.285 -0.4843 -2.1892 -0.1196
    1RES   H379  379   3.413   0.375   0.424 -0.4812  0.4725 -0.1466
    1RES   C380  380   3.986   0.318   0.828  0.0074 -0.2175  0.1166
    1RES   C381  381   4.070   0.270   0.948  0.1323  0.4910 -0.2715
    1RES   C382  382   3.986   0.175   1.048  0.3258  0.5945 -0.0070
    1RES   C383  383   4.031   0.201   1.198 -0.0926 -0.2535  0.6723
    1RES   C384  384   4.181   0.161   1.224  0.4050 -0.3003 -0.2641
    1RES   C385  385   4.211   0.170   1.374 -0.8839 -0.2137 -0.0293
    1RES   C386  386   4.360   0.182   1.415 -0.5007 -0.2447  0.2219
    1RES   H387  387   3.920   0.238   0.793 -1.1335  0.5406  0.5128
    1RES   H388  388   4.046   0.330   0.738  0.5651  1.2755  0.6777
    1RES   H389  389   4.116   0.352   1.002 -0.3725  1.8708 -1.8876
    1RES   H390  390   3.994   0.069   1.021 -1.1615  0.2464  0.8579
    1RES   H391  391   3.882   0.205   1.059  1.1257  4.1142 -1.5030
    1RES   H392  392   4.018   0.307   1.218  2.4027  0.6307 -2.0184
    1RES   H393  393   3.958   0.162   1.269 -0.6984 -3.9620 -1.8506
    1RES   H394  394   4.200   0.067   1.172  0.1282  1.4403 -3.6418
    1RES   H395  395   4.244   0.236   1.177 -1.2345  0.3280 -1.5284
    1RES   H396  396   4.172   0.080   1.422  1.2441 -1.6580 -0.9213
    1RES   H397  397   4.157   0.253   1.420  0.5560  0.8474 -0.2155
    1RES   H398  398   4.412   0.269   1.374  0.6686 -1.8179 -1.6756
    1RES   H399  399   4.411   0.091   1.385 -5.0821 -2.1831 -2.1972
    1RES   H400  400   4.371   0.187   1.523  0.8281 -0.5592  0.1106
    1RES   C401  401   4.201   0.200   0.888  0.0919  0.1048 -0.5810
    1RES   C402  402   4.314   0.289   0.850  0.1810 -0.7771 -0.1716
    1RES   C403  403   4.410   0.226   0.752  0.2755  0.1920  0.7034
    1RES   C404  404   4.520   0.331   0.713  0.2933  0.4549 -0.2617
    1RES   C405  405   4.596   0.283   0.594  0.2640 -0.0593 -0.1319
    1RES   C406  406   4.709   0.388   0.550 -0.2198 -0.4087  0.4772
    1RES   C407  407   4.833   0.396   0.644  0.0977  0.0910 -0.1657
    1RES   H408  408   4.161   0.150   0.799 -0.7741  1.1293 -0.7825
    1RES   H409  409   4.236   0.116   0.947 -1.4975 -1.5356 -1.8933
    1RES   H410  410   4.366   0.316   0.942 -0.3989  1.3690 -0.4407
    1RES   H411  411   4.361   0.207   0.656  0.8906 -2.7690  0.9290
    1RES   H412  412   4.450   0.129   0.782  1.2630  0.2621 -0.3300
    1RES   H413  413   4.585   0.356   0.797 -0.7475 -0.2748  0.7808
    1RES   H414  414   4.485   0.428   0.680  0.0265 -0.1230 -1.6891
    1RES   H415  415   4.634   0.182   0.611  2.2309  0.9256  1.4224
    1RES   H416  416   4.528   0.274   0.509  0.1216 -0.4404  0.0174
    1RES   H417  417   4.753   0.357   0.456  0.5854  2.7243 -0.2491
    1RES   H418  418   4.666   0.487   0.532  0.0804 -0.2765  0.4897
    1RES   H419  419   4.911   0.462   0.606 -1.4011  0.9379 -1.8567
    1RES   H420  420   4.870   0.298   0.674  0.0705 -0.0658 -0.6394
    1RES   H421  421   4.791   0.446   0.731 -0.1554  0.1454 -0.3194
    1RES   H422  422   4.280   0.386   0.814  1.3539  0.6670  2.4772
    2RES     C1  423   2.077   3.720   6.956 -0.0839 -0.1830  0.0825
    2RES     C2  424   2.136   3.579   6.917 -0.8241  0.4803  0.6033
    2RES     C3  425   2.293   3.584   6.905 -0.2654  0.6427 -0.4181
    2RES     C4  426   2.363   3.626   7.039  0.0550  1.1051  0.5468
    2RES     C5  427   2.519   3.592   7.046 -0.2634 -0.1536  0.5114
    2RES     C6  428   2.551   3.436   7.041  0.3836 -0.0166 -0.2536
    2RES     C7  429   2.705   3.409   7.048 -0.5458  0.2344 -0.1737
    2RES     H8  430   1.970   3.733   6.967 -0.1150 -0.3434 -0.0359
    2RES     H9  431   2.113   3.800   6.893 -0.5256  0.9849  1.2923
    2RES    H10  432   2.112   3.518   7.004 -2.7381  0.8392  0.3388
    2RES    H11  433   2.325   3.484   6.876 -0.6840  0.7708 -1.3354
    2RES    H12  434   2.316   3.650   6.821  3.1481  0.3279  0.1940
    2RES    H13  435   2.358   3.731   7.066  0.6738  1.1486  0.5003
    2RES    H14  436   2.318   3.579   7.126 -0.4809  1.1656  0.3004
    2RES    H15  437   2.543   3.626   7.147  2.7236  2.3877 -0.9748
    2RES    H16  438   2.575   3.658   6.980  1.8272  1.5056  3.8153
    2RES    H17  439   2.504   3.397   6.951 -1.4405  3.2093 -0.7637
    2RES    H18  440   2.500   3.375   7.114 -0.3420  0.9313  0.0419
    2RES    H19  441   2.761   3.438   6.959  0.7951 -1.4464  0.0968
    2RES    H20  442   2.733   3.305   7.063 -2.0923  0.0483  1.6749
    2RES    H21  443   2.763   3.461   7.125 -1.3047  1.7232 -0.5939
    2RES    H22  444   2.115   3.751   7.053 -1.0429  2.0043 -0.2155
    2RES    C23  445   2.077   3.508   6.803 -0.6588 -0.3005  0.3440
    2RES    C24  446   1.931   3.478   6.801  0.3590  0.1588  0.6308
    2RES    C25  447   1.903   3.363   6.896  0.0411 -0.5151  1.0041
    2RES    C26  448   1.754   3.337   6.924  0.0774  0.3458 -0.2578
    2RES    C27  449   1.737   3.208   7.005  0.9438 -0.3854 -0.0000
    2RES    C28  450   1.580   3.185   7.011 -0.0285  0.2195  0.3738
    2RES    C29  451   1.553   3.060   7.099  0.3231 -0.5053  0.0928
    2RES    H30  452   2.096   3.565   6.712 -0.7722 -1.7465 -0.6131
    2RES    H31  453   2.132   3.416   6.785  1.6712  1.1349 -0.0218
    2RES    H32  454   1.882   3.562   6.850  0.7792 -1.1121  3.3680
    2RES    H33  455   1.947   3.393   6.991  0.9340  2.0962 -0.2005
    2RES    H34  456   1.953   3.278   6.850  3.4452  1.8122  0.1836
    2RES    H35  457   1.696   3.323   6.832  0.1037  0.8512 -0.3504
    2RES    H36  458   1.696   3.415   6.974 -0.5446 -0.0605 -0.3396
    2RES    H37  459   1.787   3.213   7.102  0.1318  0.2486  0.3993
    2RES    H38  460   1.780   3.119   6.960  0.9472  0.2743 -1.3267
    2RES    H39  461   1.547   3.153   6.912 -0.4182 -0.4252  0.7069
    2RES    H40  462   1.527   3.279   7.028  2.0315  1.5614 -0.4889
    2RES    H41  463   1.571   3.078   7.205  1.8773  0.0696 -0.2609
    2RES    H42  464   1.447   3.035   7.088  1.0255 -2.4284 -2.6086
    2RES    H43  465   1.605   2.966   7.083 -0.6084 -0.8725 -0.8257
    2RES    C44  466   1.878   3.440   6.664  0.6861  0.5057  0.0170
    2RES    C45  467   1.855   3.564   6.572  0.1332  0.4631 -0.3402
    2RES    C46  468   1.832   3.519   6.423 -0.1823 -0.0187  0.3777
    2RES    C47  469   1.954   3.485   6.335  0.0296  0.1041  0.2183
    2RES    C48  470   2.030   3.607   6.274 -0.3326  0.5431 -0.4524
    2RES    C49  471   2.154   3.576   6.191  0.0897 -0.4408  1.0474
    2RES    C50  472   2.210   3.703   6.122 -0.0616 -0.3702 -0.1629
    2RES    H51  473   1.802   3.363   6.656  0.0644  1.0801  0.3673
    2RES    H52  474   1.953   3.375   6.619  1.4397  0.8129  0.8090
    2RES    H53  475   1.946   3.623   6.561 -0.2268  1.2563  0.8298
    2RES    H54  476   1.778   3.593   6.363 -0.7437 -0.5750  0.1990
    2RES    H55  477   1.766   3.433   6.421  1.1456 -1.0681  0.5052
    2RES    H56  478   2.027   3.429   6.394 -1.8273 -2.4969  0.1348
    2RES    H57  479   1.915   3.434   6.247 -3.5872  0.3605  1.5883
    2RES    H58  480   2.043   3.681   6.353  0.6155 -0.8053  0.6863
    2RES    H59  481   1.953   3.657   6.216 -3.2689 -1.2104  1.7616
    2RES    H60  482   2.136   3.498   6.117 -1.2550  1.5374 -0.7722
    2RES    H61  483   2.231   3.533   6.254  0.7975 -1.0900 -0.2302
    2RES    H62  484   2.275   3.671   6.041 -1.2578  0.3919 -1.4524
    2RES    H63  485   2.258   3.760   6.201  0.0147  0.7925 -1.0276
    2RES    H64  486   2.145   3.774   6.069 -2.2442 -1.7711  0.6016
    2RES    C65  487   1.746   3.658   6.634 -0.1357 -0.0815  0.5434
    2RES    C66  488   1.796   3.793   6.703 -0.2190  0.2810  0.2280
    2RES    C67  489   1.688   3.857   6.792  0.3438 -0.0853  0.4646
    2RES    C68  490   1.653   3.786   6.923 -0.4002  0.7606 -0.1187
    2RES    C69  491   1.505   3.803   6.969 -0.4031  0.4042  0.4329
    2RES    C70  492   1.465   3.711   7.082 -0.2337 -0.0024 -0.5234
    2RES    C71  493   1.322   3.755   7.124  0.0161  0.1103  0.2375
    2RES    H72  494   1.672   3.679   6.558  0.9001 -0.2133 -0.5195
    2RES    H73  495   1.684   3.604   6.706  0.4018  0.4841  1.4511
    2RES    H74  496   1.877   3.777   6.773  0.3348  1.0412 -0.2220
    2RES    H75  497   1.717   3.957   6.824 -2.5028 -0.0233  3.0908
    2RES    H76  498   1.598   3.884   6.736 -0.9926 -1.9545  1.6666
    2RES    H77  499   1.665   3.679   6.908 -0.1020  0.7286  0.3157
    2RES    H78  500   1.722   3.814   7.003 -0.5806  2.1768 -0.4469
    2RES    H79  501   1.486   3.907   6.993 -0.5068 -0.3784  4.0667
    2RES    H80  502   1.447   3.775   6.881  3.1682 -0.8991 -1.6034
    2RES    H81  503   1.539   3.709   7.162  1.2803 -1.3166 -1.9291
    2RES    H82  504   1.456   3.611   7.041 -1.6408  0.2044 -0.7322
    2RES    H83  505   1.255   3.747   7.038  0.4574 -0.6012 -0.0456
    2RES    H84  506   1.294   3.692   7.209 -0.3106 -2.4221 -1.6917
    2RES    H85  507   1.318   3.859   7.157  0.7395  0.5634 -1.0830
    2RES    C86  508   1.834   3.885   6.577  0.6289 -0.1577 -0.2682
    2RES    C87  509   1.913   4.016   6.599 -0.7385  0.0617  0.0673
    2RES    C88  510   2.057   3.978   6.630  1.4746 -0.0081 -0.0285
    2RES    C89  511   2.122   3.888   6.523  0.0635 -1.0560 -0.6204
    2RES    C90  512   2.272   3.919   6.497  0.4249  0.3304  0.1232
    2RES    C91  513   2.377   3.891   6.607  0.7323  0.2986  0.3611
    2RES    C92  514   2.520   3.912   6.554 -0.5864  0.3166 -0.3925
    2RES    H93  515   1.884   3.834   6.495 -2.3816 -0.7641 -1.7773
    2RES    H94  516   1.734   3.902   6.539  1.1746  0.5003 -1.4476
    2RES    H95  517   1.874   4.066   6.687  0.9713 -0.8461  1.3890
    2RES    H96  518   2.118   4.068   6.642  1.1084  0.0938  1.1279
    2RES    H97  519   2.070   3.937   6.730 -1.2380 -1.1940 -0.1279
    2RES    H98  520   2.113   3.784   6.552 -1.2195 -1.0310 -0.9195
    2RES    H99  521   2.076   3.908   6.426  0.5602  0.3766 -0.5753
    2RES   H100  522   2.290   4.025   6.477  1.3744  0.6683  2.5742
    2RES   H101  523   2.304   3.876   6.401 -0.1037  0.2668 -0.0223
    2RES   H102  524   2.368   3.960   6.691  0.9049 -1.0811  1.5489
    2RES   H103  525   2.365   3.791   6.649  0.0480  0.2872  0.1390
    2RES   H104  526   2.527   3.870   6.454  0.9698  2.1614 -1.0856
    2RES   H105  527   2.600   3.869   6.614  0.0172 -0.8893 -2.0371
    2RES   H106  528   2.547   4.014   6.525  0.1908  0.2158 -0.0303
    2RES   C107  529   1.892   4.097   6.469  0.3753 -0.1146 -0.1563
    2RES   C108  530   1.979   4.228   6.447  0.8357  0.0781  0.2862
    2RES   C109  531   1.931   4.289   6.308 -0.4521  0.2406  0.5141
    2RES   C110  532   1.988   4.236   6.179 -0.5028  0.0846 -0.5410
    2RES   C111  533   2.129   4.284   6.135 -0.1838  0.1340 -0.1420
    2RES   C112  534   2.176   4.195   6.023  0.5172  0.3527  0.2486
    2RES   C113  535   2.226   4.050   6.065  0.3533  0.0096  0.1767
    2RES   H114  536   1.787   4.128   6.468  0.3720 -0.1268 -0.2186
    2RES   H115  537   1.898   4.030   6.383 -3.9156 -1.4257  0.4414
    2RES   H116  538   2.080   4.203   6.414  0.7423  0.6003 -0.4116
    2RES   H117  539   1.925   4.398   6.301 -1.4524  0.0582 -2.1074
    2RES   H118  540   1.828   4.256   6.296 -0.5570  0.6022  0.4186
    2RES   H119  541   1.988   4.127   6.186 -0.1785  0.2040  1.7900
    2RES   H120  542   1.918   4.248   6.096 -2.2210  0.1119  0.8715
    2RES   H121  543   2.199   4.269   6.217 -3.0635 -1.7405  2.1025
    2RES   H122  544   2.116   4.389   6.106  1.5971  0.9274  1.7959
    2RES   H123  545   2.088   4.168   5.965  0.5001  0.2918  0.3029
    2RES   H124  546   2.241   4.259   5.963 -2.6270  4.2686  0.7473
    2RES   H125  547   2.253   3.997   5.973 -2.6820 -1.8675  0.3023
    2RES   H126  548   2.304   4.074   6.137 -0.9663 -0.4820  1.8070
    2RES   H127  549   2.143   3.991   6.103 -0.1085  0.7445  0.3131
    2RES   C128  550   1.972   4.332   6.562 -0.0866  0.7507 -0.1339
    2RES   C129  551   2.075   4.448   6.542 -0.2374  0.4534 -0.5707
    2RES   C130  552   2.228   4.403   6.557  0.2822  0.4563  0.2329
    2RES   C131  553   2.280   4.372   6.704  0.3472  0.4311 -0.1530
    2RES   C132  554   2.409   4.294   6.712  0.6122  0.7254 -0.7361
    2RES   C133  555   2.523   4.347   6.624  0.6718 -0.5567  0.3448
    2RES   C134  556   2.659   4.297   6.672 -0.4522  0.6473  0.0081
    2RES   H135  557   1.874   4.379   6.564 -0.4933  0.0124 -2.1333
    2RES   H136  558   1.991   4.275   6.653 -1.9060 -0.6006 -0.5575
    2RES   H137  559   2.045   4.486   6.444 -3.3073 -1.0540 -0.2861
    2RES   H138  560   2.291   4.477   6.509  1.8378 -0.8812  0.1692
    2RES   H139  561   2.249   4.312   6.501  1.6887  1.4021 -0.7949
    2RES   H140  562   2.202   4.327   6.765  0.2135  0.9738  0.0824
    2RES   H141  563   2.301   4.469   6.749 -1.1141  0.8455 -0.3322
    2RES   H142  564   2.391   4.188   6.692  1.7633  0.4387 -0.2994
    2RES   H143  565   2.451   4.313   6.811  1.2450 -1.1037 -0.6284
    2RES   H144  566   2.527   4.456   6.622 -1.6607 -0.4682 -0.6450
    2RES   H145  567   2.503   4.319   6.521  1.1723  0.3978 -0.0192
    2RES   H146  568   2.741   4.349   6.624  2.9923 -3.0826  1.5166
    2RES   H147  569   2.675   4.194   6.640 -1.0417  0.5818 -0.0795
    2RES   H148  570   2.681   4.305   6.779 -1.6053  1.1347  0.2236
    2RES   C149  571   2.039   4.564   6.640 -0.2368 -0.8133  0.2268
    2RES   C150  572   2.087   4.707   6.594 -0.4526  0.1578  0.4446
    2RES   C151  573   2.111   4.798   6.726 -0.4114 -0.2581  0.1545
    2RES   C152  574   1.986   4.819   6.825  0.1612 -0.2303  0.1498
    2RES   C153  575   2.032   4.911   6.942  0.4167  0.6412 -0.6585
    2RES   C154  576   1.909   4.937   7.033 -0.6876 -0.2439  0.5742
    2RES   C155  577   1.896   4.822   7.141  0.4170  0.2085  0.1471
    2RES   H156  578   1.930   4.573   6.649 -0.3173 -0.2175 -1.2213
    2RES   H157  579   2.067   4.542   6.743 -0.0093 -0.4606  0.2414
    2RES   H158  580   2.182   4.686   6.544 -0.6811 -2.4826  1.0492
    2RES   H159  581   2.187   4.741   6.779  1.1526  2.0494  0.4801
    2RES   H160  582   2.154   4.896   6.703 -0.2976 -0.4384 -0.3882
    2RES   H161  583   1.942   4.723   6.850  0.4764  0.4028  3.3199
    2RES   H162  584   1.901   4.863   6.773  1.8460  1.3762 -1.3501
    2RES   H163  585   2.068   5.004   6.899 -0.3845  0.7482 -1.1141
    2RES   H164  586   2.118   4.864   6.989 -0.5631 -0.7192 -0.1878
    2RES   H165  587   1.817   4.957   6.978  0.0237 -0.3337 -0.6805
    2RES   H166  588   1.925   5.023   7.098  0.4831 -0.1546  0.1867
    2RES   H167  589   1.798   4.817   7.189  0.9542  0.4185  1.2745
    2RES   H168  590   1.972   4.841   7.216 -0.5187 -0.2008  1.2244
    2RES   H169  591   1.906   4.724   7.095  1.8188  1.3977 -2.1365
    2RES   C170  592   1.989   4.780   6.487 -0.6524  0.7458 -0.8374
    2RES   C171  593   2.062   4.898   6.414  0.5251  0.5745 -0.5454
    2RES   C172  594   2.136   4.843   6.296 -0.0736  0.0814  0.8191
    2RES   C173  595   2.238   4.946   6.242  0.1989  0.3647  0.7555
    2RES   C174  596   2.313   4.903   6.124  0.5528 -0.0771  0.3732
    2RES   C175  597   2.433   4.816   6.140  0.1654  0.6988  0.4159
    2RES   C176  598   2.507   4.767   6.017 -0.1200  0.0548 -0.7167
    2RES   H177  599   1.901   4.820   6.537 -0.4778 -0.2176  0.2546
    2RES   H178  600   1.951   4.707   6.416  0.1799 -1.7182  1.1957
    2RES   H179  601   2.138   4.939   6.480 -0.3452  1.4422 -0.0728
    2RES   H180  602   2.071   4.825   6.210 -1.2824  1.5430  1.4026
    2RES   H181  603   2.192   4.753   6.318 -0.4432 -0.4612 -0.3951
    2RES   H182  604   2.316   4.952   6.317  1.3968  1.5523 -0.5380
    2RES   H183  605   2.186   5.041   6.223 -0.3337  0.0972  0.8703
    2RES   H184  606   2.346   4.996   6.078  0.1694 -1.0125 -1.8518
    2RES   H185  607   2.239   4.861   6.057 -0.6929  1.2067  0.9258
    2RES   H186  608   2.413   4.721   6.189 -0.7543 -0.1630 -1.5553
    2RES   H187  609   2.510   4.858   6.204  0.1876  0.1142  0.7809
    2RES   H188  610   2.442   4.710   5.950 -0.5964  2.4837 -2.4289
    2RES   H189  611   2.586   4.694   6.037 -0.0103 -0.2724 -2.2446
    2RES   H190  612   2.542   4.855   5.962  0.8258  1.5120  2.1271
    2RES   C191  613   1.948   4.995   6.375 -0.1898 -0.0429 -0.0069
    2RES   C192  614   1.914   5.097   6.491 -0.1206  0.0483 -0.6337
    2RES   C193  615   2.031   5.197   6.522 -0.7897 -0.0449 -0.2100
    2RES   C194  616   2.036   5.254   6.657  0.8606  0.0843  0.9114
    2RES   C195  617   2.176   5.319   6.691  0.2453  0.2820 -0.3535
    2RES   C196  618   2.269   5.212   6.742  0.2833 -0.1804  0.4449
    2RES   C197  619   2.412   5.261   6.778 -0.3602  0.1286 -0.0522
    2RES   H198  620   1.870   4.939   6.324  0.4124  0.2263 -1.2366
    2RES   H199  621   1.975   5.063   6.294  2.1197 -0.0227  0.7443
    2RES   H200  622   1.900   5.043   6.584 -0.7571 -0.3511 -0.9588
    2RES   H201  623   2.026   5.267   6.439  0.9133 -0.6393 -0.8400
    2RES   H202  624   2.126   5.147   6.502  1.1111  2.6970  1.5689
    2RES   H203  625   2.002   5.181   6.730 -0.2142  1.7170  2.0895
    2RES   H204  626   1.963   5.334   6.674  1.7212  1.0585  0.1279
    2RES   H205  627   2.219   5.363   6.601  0.6157 -2.5278 -1.5996
    2RES   H206  628   2.156   5.404   6.757 -0.8836 -1.2293  1.2723
    2RES   H207  629   2.282   5.129   6.673  1.6437 -0.4405  0.9889
    2RES   H208  630   2.211   5.180   6.829 -1.0309  0.5050 -0.1639
    2RES   H209  631   2.474   5.194   6.838 -0.4398  1.5156  1.5804
    2RES   H210  632   2.403   5.347   6.844  0.5330 -0.7194  1.1876
    2RES   H211  633   2.470   5.296   6.693  0.3759 -2.2485 -0.5766
    2RES   C212  634   1.794   5.180   6.458 -0.9594  0.0016 -0.5931
    2RES   C213  635   1.655   5.112   6.491 -0.5866  0.2434 -0.2605
    2RES   C214  636   1.616   5.131   6.640  0.2710  0.7058 -0.1212
    2RES   C215  637   1.583   5.269   6.693  0.5491  0.3757 -0.2518
    2RES   C216  638   1.550   5.264   6.838 -0.0509 -0.6971  0.0277
    2RES   C217  639   1.631   5.374   6.911 -0.7448  0.9712  0.2911
    2RES   C218  640   1.600   5.388   7.067  0.9186 -0.1684  0.3275
    2RES   H219  641   1.799   5.201   6.351 -1.6760 -4.2097 -1.5679
    2RES   H220  642   1.801   5.271   6.517  1.2496 -0.3267 -0.3165
    2RES   H221  643   1.673   5.006   6.471 -0.1994  0.3616 -0.5472
    2RES   H222  644   1.532   5.063   6.650 -1.1964  2.7597  2.0924
    2RES   H223  645   1.696   5.086   6.698  0.7638  2.4623  0.6157
    2RES   H224  646   1.501   5.301   6.629  0.6376  0.8725 -0.1239
    2RES   H225  647   1.671   5.331   6.672  0.2997  0.7891 -0.0861
    2RES   H226  648   1.444   5.283   6.858  0.2497  0.9934  0.1487
    2RES   H227  649   1.562   5.166   6.883  0.0700 -0.5971  0.2121
    2RES   H228  650   1.739   5.360   6.907 -0.8513 -1.7726  4.0797
    2RES   H229  651   1.602   5.470   6.868 -0.7453  0.8772  0.0812
    2RES   H230  652   1.634   5.295   7.112  2.2254 -0.2866 -0.8706
    2RES   H231  653   1.491   5.396   7.072  0.7648 -2.4995  1.4635
    2RES   H232  654   1.645   5.473   7.118  1.8212  0.4764 -1.4954
    2RES   C233  655   1.557   5.172   6.392 -1.0779  0.7654 -0.6677
    2RES   C234  656   1.576   5.117   6.250 -0.0575 -0.1774 -0.0951
    2RES   C235  657   1.461   5.027   6.206 -0.6915  0.8385  0.2759
    2RES   C236  658   1.441   4.904   6.291 -0.3821  0.4272 -0.3133
    2RES   C237  659   1.540   4.788   6.282  0.2973  0.6455 -0.0356
    2RES   C238  660   1.540   4.693   6.407 -0.0937 -0.0656  0.2265
    2RES   C239  661   1.613   4.566   6.381  0.0162  0.1002 -0.0752
    2RES   H240  662   1.576   5.280   6.388  0.3415  0.6052  1.1563
    2RES   H241  663   1.453   5.152   6.417 -1.3138  0.7951 -1.6460
    2RES   H242  664   1.665   5.055   6.239  0.0753 -0.0613  0.3204
    2RES   H243  665   1.479   4.981   6.109  0.4416  0.2373  0.7595
    2RES   H244  666   1.371   5.087   6.191 -1.4863 -0.2513  0.6012
    2RES   H245  667   1.348   4.849   6.272 -0.0422 -0.0111 -0.7205
    2RES   H246  668   1.434   4.928   6.397  0.9219  0.5905 -0.2580
    2RES   H247  669   1.640   4.831   6.281  0.9598 -0.8504  0.5681
    2RES   H248  670   1.532   4.730   6.190  1.6334 -0.8188  0.7453
    2RES   H249  671   1.588   4.745   6.489  0.3258 -0.6442  0.3551
    2RES   H250  672   1.435   4.670   6.426 -0.6694  2.6266  0.4337
    2RES   H251  673   1.624   4.513   6.475  0.4198 -0.2712 -0.3279
    2RES   H252  674   1.566   4.509   6.300 -0.4225 -2.6546  2.0590
    2RES   H253  675   1.717   4.580   6.352  0.3261  1.9738  1.8248
    2RES   C254  676   1.591   5.237   6.155  0.6577 -0.9432 -0.3701
    2RES   C255  677   1.616   5.217   6.002 -0.5778 -0.1067  0.5437
    2RES   C256  678   1.751   5.140   5.972  0.7119 -0.2734 -0.1046
    2RES   C257  679   1.880   5.227   5.991 -0.7656  0.7600 -0.6602
    2RES   C258  680   2.006   5.137   5.986 -0.5717 -0.1488  0.2917
    2RES   C259  681   2.048   5.101   5.840  0.5919  0.7303 -0.3864
    2RES   C260  682   2.185   5.042   5.814 -0.8223 -0.0543 -0.0355
    2RES   H261  683   1.672   5.297   6.196  0.1757  0.1520 -0.9832
    2RES   H262  684   1.503   5.302   6.162 -0.0387 -1.8005 -1.1299
    2RES   H263  685   1.538   5.148   5.969  0.5484 -1.7595  1.2498
    2RES   H264  686   1.747   5.105   5.868 -0.1056 -1.6668  0.3826
    2RES   H265  687   1.755   5.056   6.041 -1.6988 -0.1092  0.2804
    2RES   H266  688   1.877   5.303   5.913  0.6942  0.3940 -1.1017
    2RES   H267  689   1.881   5.273   6.090 -1.3518  0.9492 -0.7453
    2RES   H268  690   1.978   5.047   6.041 -0.6245  0.2656  0.9491
    2RES   H269  691   2.095   5.163   6.044 -0.0402 -0.3325 -0.4278
    2RES   H270  692   1.966   5.041   5.801 -0.7481  2.2835  0.0057
    2RES   H271  693   2.043   5.191   5.780 -1.7077 -0.4745 -2.0726
    2RES   H272  694   2.189   4.953   5.878 -0.5330  1.0406  1.5055
    2RES   H273  695   2.214   5.015   5.713 -0.1234  1.6903 -0.3166
    2RES   H274  696   2.268   5.109   5.835 -1.5448  0.8912 -0.1833
    2RES   C275  697   1.618   5.341   5.905  0.2111 -0.3239  0.4258
    2RES   C276  698   1.484   5.424   5.872  0.4247  0.0895 -0.5694
    2RES   C277  699   1.386   5.327   5.805 -0.8325 -0.5674 -0.0769
    2RES   C278  700   1.424   5.279   5.674 -0.4962 -0.3249  0.4241
    2RES   C279  701   1.312   5.198   5.606  0.2483 -0.2691 -0.2661
    2RES   C280  702   1.341   5.123   5.484 -0.0071 -0.2516 -0.4695
    2RES   C281  703   1.207   5.091   5.419 -0.4336  0.0998  0.5301
    2RES   H282  704   1.675   5.320   5.814 -0.8148 -1.3886  0.0302
    2RES   H283  705   1.676   5.422   5.950 -1.5020  0.8564  0.5622
    2RES   H284  706   1.440   5.462   5.964  0.4723  0.9774 -0.9119
    2RES   H285  707   1.379   5.246   5.877 -3.6013  0.7803  1.2204
    2RES   H286  708   1.290   5.378   5.795 -0.9650 -0.7391  0.3318
    2RES   H287  709   1.522   5.230   5.670  0.1835  0.9395  1.2514
    2RES   H288  710   1.432   5.364   5.607 -3.3181 -2.3491 -2.6113
    2RES   H289  711   1.224   5.261   5.597  0.6418  0.3323  0.0209
    2RES   H290  712   1.282   5.118   5.674  0.9403  0.5248  1.0078
    2RES   H291  713   1.408   5.185   5.425  0.3718  0.7075  0.9616
    2RES   H292  714   1.400   5.033   5.498  0.9338 -0.2722 -4.0844
    2RES   H293  715   1.161   5.180   5.376  1.2633  0.4181 -0.6815
    2RES   H294  716   1.135   5.047   5.488  0.4931 -1.9725  0.2150
    2RES   H295  717   1.233   5.023   5.338 -0.1599  2.7097 -1.6699
    2RES   C296  718   1.530   5.546   5.787 -0.0150  1.3424  0.2098
    2RES   C297  719   1.580   5.679   5.859  0.3066  0.0712 -0.4736
    2RES   C298  720   1.450   5.760   5.895  0.3764  0.0373  0.5849
    2RES   C299  721   1.475   5.855   6.022 -0.4429  0.3530  0.2807
    2RES   C300  722   1.338   5.907   6.080 -0.7031  0.7273 -0.5083
    2RES   C301  723   1.356   6.014   6.185  0.0356  0.5970 -0.3134
    2RES   C302  724   1.229   6.074   6.238  0.0857  0.0063 -0.8768
    2RES   H303  725   1.611   5.514   5.720 -1.5564  2.3719 -2.2291
    2RES   H304  726   1.457   5.573   5.711  0.1265 -1.4211 -0.9570
    2RES   H305  727   1.620   5.652   5.956 -0.7901 -0.8566 -0.2664
    2RES   H306  728   1.425   5.832   5.817 -1.5544  0.0662  1.2271
    2RES   H307  729   1.359   5.700   5.900  0.9767 -1.1732 -1.8100
    2RES   H308  730   1.552   5.928   5.996  0.7970 -0.9444  0.2276
    2RES   H309  731   1.521   5.801   6.104  0.7048  3.0272  1.4567
    2RES   H310  732   1.295   5.816   6.120  2.1563 -0.1018  0.8473
    2RES   H311  733   1.278   5.947   5.998 -0.3781 -0.0374 -1.1234
    2RES   H312  734   1.403   5.972   6.274 -4.2343 -1.4225  1.1386
    2RES   H313  735   1.425   6.091   6.151  0.4001  1.2559  1.8894
    2RES   H314  736   1.247   6.164   6.296 -2.3399  0.0952 -0.1942
    2RES   H315  737   1.161   6.099   6.156 -3.9133 -1.0868  1.9376
    2RES   H316  738   1.170   6.009   6.303 -0.4935 -0.5661 -1.9617
    2RES   C317  739   1.702   5.751   5.796 -0.1696  0.6768  0.4137
    2RES   C318  740   1.847   5.701   5.819 -0.3483  0.0608  0.0291
    2RES   C319  741   1.875   5.674   5.967  0.0372  0.0875 -0.2612
    2RES   C320  742   2.028   5.645   5.997  1.3721  1.0697 -0.3658
    2RES   C321  743   2.066   5.648   6.146 -0.1138  0.3792 -0.6808
    2RES   C322  744   2.036   5.525   6.230 -0.3917  0.2416 -0.0229
    2RES   C323  745   2.016   5.565   6.383 -0.0725 -0.1549  0.0448
    2RES   H324  746   1.690   5.857   5.820  0.6775  0.5591  1.4517
    2RES   H325  747   1.672   5.754   5.692  0.8722  0.5896  0.1036
    2RES   H326  748   1.908   5.784   5.783  2.5939 -1.5458  1.1400
    2RES   H327  749   1.819   5.590   6.009 -1.2477  1.8855  1.7514
    2RES   H328  750   1.855   5.766   6.021 -0.0171  1.1457 -2.0319
    2RES   H329  751   2.073   5.728   5.943  0.5998  0.6717 -1.6391
    2RES   H330  752   2.063   5.547   5.965  2.1893  1.2279  0.0423
    2RES   H331  753   2.016   5.734   6.191  1.1040  0.5024  0.4317
    2RES   H332  754   2.170   5.675   6.164 -0.2585 -0.7116  2.0710
    2RES   H333  755   2.119   5.456   6.212 -0.8542 -0.8499  1.8204
    2RES   H334  756   1.942   5.482   6.196  0.2166  0.8163 -2.5480
    2RES   H335  757   2.008   5.479   6.451  2.9986 -2.0759 -1.8973
    2RES   H336  758   1.922   5.617   6.401  0.6383  1.4953 -0.9269
    2RES   H337  759   2.092   5.633   6.420  0.5255 -0.1679 -1.1363
    2RES   C338  760   1.911   5.591   5.728 -0.3233  0.5966  0.2784
    2RES   C339  761   1.892   5.606   5.574  0.6514  0.8699 -0.3724
    2RES   C340  762   1.930   5.477   5.492  0.3339  0.2881 -0.0343
    2RES   C341  763   1.889   5.336   5.535 -0.0165  0.6820 -0.1895
    2RES   C342  764   1.928   5.224   5.431 -0.1679 -0.9977 -0.7832
    2RES   C343  765   1.908   5.079   5.484 -0.5799 -0.6863 -0.0513
    2RES   C344  766   1.766   5.026   5.508 -0.7487  0.6260  0.4826
    2RES   H345  767   1.874   5.495   5.765  0.8421 -0.1476 -0.4794
    2RES   H346  768   2.017   5.566   5.737 -0.3873 -0.0954 -0.8144
    2RES   H347  769   1.787   5.619   5.550 -0.0782 -1.7689  1.0957
    2RES   H348  770   1.888   5.487   5.391 -0.3766  4.6139  0.5973
    2RES   H349  771   2.037   5.458   5.486  0.0826 -1.8168  1.3808
    2RES   H350  772   1.784   5.333   5.563 -0.1086  2.0277 -0.3579
    2RES   H351  773   1.944   5.329   5.628  2.1829 -0.9456 -1.5560
    2RES   H352  774   1.873   5.235   5.337  2.1856 -0.3554 -2.1181
    2RES   H353  775   2.032   5.220   5.398  0.4991 -1.0807  1.2679
    2RES   H354  776   1.959   5.020   5.407 -0.5096  0.1343 -0.6408
    2RES   H355  777   1.970   5.061   5.572 -2.0602 -4.3704  0.3197
    2RES   H356  778   1.767   4.917   5.515  0.3539  0.5178 -1.0322
    2RES   H357  779   1.722   5.046   5.410 -0.5637 -2.8290 -0.3660
    2RES   H358  780   1.709   5.086   5.579  0.1604  1.8109  0.2182
    2RES   C359  781   1.972   5.733   5.520  0.0274  0.3906 -0.1397
    2RES   C360  782   1.888   5.847   5.454 -0.2908  0.1650 -0.8493
    2RES   C361  783   1.964   5.978   5.453 -0.2873 -0.1555 -0.1791
    2RES   C362  784   2.065   5.996   5.334 -0.2257  0.4951 -0.1758
    2RES   C363  785   2.136   6.133   5.332  0.0665 -0.2940  0.6549
    2RES   C364  786   2.268   6.142   5.251  0.1631 -0.2574 -0.2952
    2RES   C365  787   2.227   6.150   5.106 -0.7437  0.3569  0.3647
    2RES   H366  788   2.049   5.700   5.450 -0.1176  0.9180 -0.5468
    2RES   H367  789   2.036   5.776   5.597 -1.6369  0.8269  1.0340
    2RES   H368  790   1.810   5.869   5.528  1.3357  0.0288  0.9439
    2RES   H369  791   1.899   6.065   5.443  0.8272  0.6849 -0.1286
    2RES   H370  792   2.024   5.991   5.543  1.2369 -0.1807 -1.1759
    2RES   H371  793   2.145   5.923   5.353  0.3686  1.4109  0.9389
    2RES   H372  794   2.017   5.975   5.239 -2.7324  0.8774  0.9660
    2RES   H373  795   2.066   6.204   5.289 -1.7792 -2.1434  0.5109
    2RES   H374  796   2.156   6.174   5.431  1.9436  3.0534 -1.0281
    2RES   H375  797   2.326   6.229   5.282  1.0011 -0.7616 -0.4407
    2RES   H376  798   2.325   6.052   5.273  0.8533 -0.3742 -2.4783
    2RES   H377  799   2.163   6.236   5.090  0.9144  1.8812  1.6393
    2RES   H378  800   2.311   6.169   5.039 -1.0898  0.6476  0.0144
    2RES   H379  801   2.179   6.064   5.059 -0.5776  0.1889  0.4988
    2RES   C380  802   1.815   5.813   5.322 -0.6385  0.8584 -0.1022
    2RES   C381  803   1.713   5.921   5.271 -0.1695  0.9092  0.0072
    2RES   C382  804   1.647   5.894   5.136 -0.8638 -0.5143  0.7728
    2RES   C383  805   1.737   5.924   5.015  0.2403  0.0910 -0.4528
    2RES   C384  806   1.753   6.081   4.992  0.0868  0.0273  0.5688
    2RES   C385  807   1.854   6.106   4.884 -0.1951 -1.5362  0.4405
    2RES   C386  808   1.862   6.249   4.844 -0.4457 -0.2722  0.4488
    2RES   H387  809   1.889   5.784   5.248 -0.4468 -0.8863  0.7459
    2RES   H388  810   1.752   5.724   5.338 -0.3855  0.8787  1.0676
    2RES   H389  811   1.750   6.023   5.277  0.8905  0.5688 -0.5155
    2RES   H390  812   1.545   5.931   5.132 -0.0049  1.8491  0.0991
    2RES   H391  813   1.643   5.785   5.142  0.4906 -0.4589  3.8827
    2RES   H392  814   1.833   5.874   5.027  0.5032  0.4728 -1.0022
    2RES   H393  815   1.699   5.874   4.926 -1.3169  0.8323 -0.2213
    2RES   H394  816   1.664   6.139   4.967  1.6593  1.6891 -1.2399
    2RES   H395  817   1.802   6.131   5.076  1.1408  0.9908 -0.6039
    2RES   H396  818   1.841   6.052   4.790 -0.5144  0.6675 -0.8465
    2RES   H397  819   1.952   6.074   4.918 -0.1330 -0.2173  1.5659
    2RES   H398  820   1.763   6.291   4.825 -1.2558 -2.4435 -0.3588
    2RES   H399  821   1.929   6.273   4.761  0.7972 -0.8447  1.2714
    2RES   H400  822   1.888   6.320   4.922 -1.3348  0.4738  0.0675
    2RES   C401  823   1.606   5.943   5.377  0.7105 -0.5785 -0.2567
    2RES   C402  824   1.508   5.824   5.400 -0.4317  0.0700 -0.4655
    2RES   C403  825   1.386   5.865   5.486 -0.0329 -0.2327 -0.1799
    2RES   C404  826   1.275   5.763   5.460 -0.4993  0.4173 -0.4434
    2RES   C405  827   1.168   5.749   5.575 -0.6560 -0.3335  0.3352
    2RES   C406  828   1.055   5.655   5.532 -0.2769 -0.5622  0.5643
    2RES   C407  829   1.082   5.503   5.563 -0.1175  0.3247 -0.7586
    2RES   H408  830   1.546   6.027   5.343 -0.9587 -0.7344  2.1721
    2RES   H409  831   1.650   5.974   5.471 -3.1117  0.5172  1.2808
    2RES   H410  832   1.558   5.742   5.450 -1.4081 -0.0607  0.2992
    2RES   H411  833   1.358   5.969   5.468  1.3960  0.0912 -0.5836
    2RES   H412  834   1.414   5.874   5.591 -1.3281  2.4609 -0.0026
    2RES   H413  835   1.312   5.664   5.437  2.0693  1.0705  0.7511
    2RES   H414  836   1.225   5.798   5.369 -1.3790  2.9881  0.9798
    2RES   H415  837   1.217   5.727   5.671 -1.0230 -0.2302  0.5465
    2RES   H416  838   1.141   5.853   5.592  3.0950  0.6433  0.8819
    2RES   H417  839   0.971   5.690   5.591  0.0624 -0.5613  1.0468
    2RES   H418  840   1.034   5.676   5.427 -0.2262 -2.2040  0.2197
    2RES   H419  841   1.104   5.497   5.669 -3.7106  1.8140  0.1151
    2RES   H420  842   1.159   5.463   5.496 -1.0072 -2.4330 -0.1830
    2RES   H421  843   0.997   5.439   5.542 -0.6965  0.0310  2.3169
    2RES   H422  844   1.475   5.792   5.301  0.8503 -0.2200 -0.8099
    3RES     C1  845   3.894   1.946   1.801 -0.4231  0.2621  0.2501
    3RES     C2  846   3.817   1.839   1.887  0.4784 -0.0573 -0.5450
    3RES     C3  847   3.670   1.823   1.845 -0.1735  0.4001 -0.7311
    3RES     C4  848   3.659   1.739   1.718  0.6958  0.0925  0.2459
    3RES     C5  849   3.523   1.707   1.661  0.5266  0.3122  0.1034
    3RES     C6  850   3.520   1.624   1.532 -0.4457 -1.0984 -0.4409
    3RES     C7  851   3.381   1.607   1.482  0.2078  0.4834  0.3460
    3RES     H8  852   3.834   2.035   1.782  0.0683  0.7302  0.8686
    3RES     H9  853   3.912   1.909   1.701 -0.5398  0.4537  0.1575
    3RES    H10  854   3.862   1.743   1.862 -0.2204 -0.7532  0.8077
    3RES    H11  855   3.612   1.770   1.921  2.7629  0.8335  1.9248
    3RES    H12  856   3.625   1.922   1.831 -1.9104 -0.3243 -0.4492
    3RES    H13  857   3.712   1.806   1.650 -2.1012 -0.4046 -2.5809
    3RES    H14  858   3.712   1.644   1.720  2.0456  0.7647 -2.0728
    3RES    H15  859   3.471   1.802   1.652 -0.4679 -0.3404 -1.2105
    3RES    H16  860   3.469   1.652   1.737  0.9042  0.0249  0.1660
    3RES    H17  861   3.560   1.523   1.540 -1.8078 -1.4819  2.3513
    3RES    H18  862   3.569   1.678   1.451 -1.0833 -0.1417 -0.1924
    3RES    H19  863   3.323   1.537   1.542  0.9152 -0.6933 -0.3452
    3RES    H20  864   3.391   1.575   1.379  1.6824  1.1292  0.2632
    3RES    H21  865   3.331   1.704   1.478  1.1553  0.9429 -0.6910
    3RES    H22  866   4.000   1.955   1.826  0.0568  1.4557 -2.1256
    3RES    C23  867   3.847   1.855   2.037 -0.1836 -0.2610 -0.2162
    3RES    C24  868   3.792   1.986   2.102 -0.0387 -0.0118 -0.1510
    3RES    C25  869   3.902   2.042   2.208  0.3301  0.6418  0.9088
    3RES    C26  870   3.928   1.973   2.346  0.1024 -0.0345  0.1078
    3RES    C27  871   4.034   2.053   2.432 -0.3277 -0.2425  0.5978
    3RES    C28  872   4.055   1.994   2.572  0.4524 -0.2429  0.4518
    3RES    C29  873   3.977   2.061   2.687 -0.8302 -0.0737  0.0433
    3RES    H30  874   3.796   1.770   2.081 -0.8211 -0.2964 -1.0085
    3RES    H31  875   3.951   1.831   2.057  0.6262  0.5790 -3.1885
    3RES    H32  876   3.769   2.056   2.021 -1.7037 -0.0213  0.2943
    3RES    H33  877   3.882   2.149   2.211  0.8668  0.7935 -0.3455
    3RES    H34  878   3.996   2.042   2.153  0.0597  3.3469  0.3395
    3RES    H35  879   3.959   1.869   2.333  0.1284 -0.1685  1.1707
    3RES    H36  880   3.830   1.968   2.395 -0.3311  1.0494 -0.6393
    3RES    H37  881   3.985   2.151   2.440 -0.8170 -0.4872  0.6166
    3RES    H38  882   4.124   2.072   2.375 -1.6277 -1.5877 -1.9632
    3RES    H39  883   4.164   1.993   2.580  0.4420  0.9786  0.8566
    3RES    H40  884   4.029   1.888   2.575 -0.9854  0.1054  0.8538
    3RES    H41  885   3.990   1.990   2.769 -1.1120  0.5055  0.5932
    3RES    H42  886   3.997   2.161   2.724 -1.0232  0.2347 -0.6956
    3RES    H43  887   3.871   2.053   2.664 -1.1362 -0.6159  1.5421
    3RES    C44  888   3.657   1.979   2.172  0.1288  0.1858 -0.1186
    3RES    C45  889   3.614   2.101   2.255  0.2027  0.2666 -1.2025
    3RES    C46  890   3.596   2.233   2.177 -0.2662 -0.3287  0.4560
    3RES    C47  891   3.495   2.235   2.060  0.6970  0.2094 -0.4208
    3RES    C48  892   3.504   2.367   1.985  0.0312  0.2327 -1.2946
    3RES    C49  893   3.629   2.402   1.906  1.0663  0.1160 -0.8254
    3RES    C50  894   3.639   2.546   1.856 -0.5589  0.3523 -0.1711
    3RES    H51  895   3.654   1.895   2.241  0.4726  1.4221  1.4445
    3RES    H52  896   3.591   1.962   2.087 -1.6535  1.0287  1.0850
    3RES    H53  897   3.687   2.113   2.335 -1.6286 -0.2652  0.6123
    3RES    H54  898   3.696   2.267   2.148  0.8142 -1.0170  3.2105
    3RES    H55  899   3.561   2.296   2.259  0.4457 -2.6734  2.6287
    3RES    H56  900   3.508   2.147   1.997 -0.4467  0.6665 -1.3088
    3RES    H57  901   3.392   2.229   2.095  0.7370 -2.7757 -0.7171
    3RES    H58  902   3.490   2.443   2.061  1.1523 -0.0905 -0.7513
    3RES    H59  903   3.423   2.361   1.912 -1.2015 -1.3635  0.1734
    3RES    H60  904   3.626   2.343   1.815 -0.6721 -1.0778 -0.0267
    3RES    H61  905   3.717   2.370   1.961 -0.3094  0.4253  1.6743
    3RES    H62  906   3.569   2.556   1.773 -1.5800  2.4067  0.8961
    3RES    H63  907   3.736   2.565   1.809  0.7325  0.2499  2.3515
    3RES    H64  908   3.632   2.619   1.937 -0.6194  0.6779 -0.4714
    3RES    C65  909   3.473   2.064   2.315  0.4568 -0.0937 -0.5678
    3RES    C66  910   3.459   2.089   2.469 -0.2109 -0.1272  0.0502
    3RES    C67  911   3.528   1.978   2.547  0.6238  0.0502  0.0622
    3RES    C68  912   3.564   2.015   2.683 -0.6499  0.3658 -0.5336
    3RES    C69  913   3.630   1.901   2.756 -0.0625 -0.5765 -0.0399
    3RES    C70  914   3.676   1.949   2.894 -0.2656 -0.8265 -0.5754
    3RES    C71  915   3.734   1.836   2.976  0.7127  0.0087  0.5018
    3RES    H72  916   3.404   2.131   2.264  2.2014  0.8563 -1.7499
    3RES    H73  917   3.442   1.962   2.294  0.2814 -0.3736  0.9922
    3RES    H74  918   3.513   2.181   2.493 -0.7182  0.0750  0.4390
    3RES    H75  919   3.459   1.894   2.539 -0.5226  0.7948  1.8400
    3RES    H76  920   3.616   1.945   2.491  1.8678  1.1543  1.3303
    3RES    H77  921   3.642   2.089   2.668 -1.3305  0.7797 -2.1988
    3RES    H78  922   3.478   2.051   2.741  1.1796  0.7496  2.0070
    3RES    H79  923   3.556   1.823   2.774 -1.2106  0.2645 -1.0332
    3RES    H80  924   3.723   1.873   2.707 -0.2761 -1.9295  0.3088
    3RES    H81  925   3.593   1.992   2.950  0.5143 -0.7671  0.5364
    3RES    H82  926   3.751   2.027   2.884  0.1746 -1.5283 -2.9285
    3RES    H83  927   3.662   1.756   2.991 -1.2017  2.1681  3.1808
    3RES    H84  928   3.817   1.787   2.924 -0.8856  0.1072 -2.2715
    3RES    H85  929   3.775   1.880   3.067  4.3076 -1.8513 -0.1172
    3RES    C86  930   3.308   2.101   2.506 -1.0287  0.6997 -0.1603
    3RES    C87  931   3.218   2.218   2.446 -0.0473  0.6496  0.0483
    3RES    C88  932   3.074   2.226   2.503  0.3123  0.1236  0.3089
    3RES    C89  933   3.003   2.097   2.506  0.4951  0.7649 -0.2373
    3RES    C90  934   2.845   2.106   2.519 -0.1659 -0.1393  0.9070
    3RES    C91  935   2.764   2.169   2.404 -1.3180 -0.2659 -0.0193
    3RES    C92  936   2.620   2.170   2.443  0.7177  0.3399 -0.0847
    3RES    H93  937   3.257   2.007   2.483 -0.6690  0.6317 -0.6924
    3RES    H94  938   3.300   2.104   2.615  1.7070 -1.8702  0.1656
    3RES    H95  939   3.210   2.200   2.339 -1.0035 -0.1803  0.2509
    3RES    H96  940   3.071   2.256   2.608 -0.2693 -0.6054  0.5124
    3RES    H97  941   3.020   2.301   2.446 -0.4404 -0.5021  0.1778
    3RES    H98  942   3.021   2.050   2.410  1.3525  0.9625 -0.1761
    3RES    H99  943   3.033   2.027   2.584 -1.8784  1.4051  1.3012
    3RES   H100  944   2.812   2.161   2.607 -1.9597 -1.9126  1.3741
    3RES   H101  945   2.800   2.009   2.539  2.1595 -1.8392 -1.7238
    3RES   H102  946   2.802   2.271   2.397 -1.9665 -0.1352 -1.9061
    3RES   H103  947   2.778   2.111   2.313 -0.3705  0.3491 -0.2760
    3RES   H104  948   2.566   2.075   2.442 -1.1070  1.3514 -1.7079
    3RES   H105  949   2.546   2.225   2.384  0.7767  0.6311  0.1118
    3RES   H106  950   2.608   2.235   2.530 -2.1312 -0.2686  0.0428
    3RES   C107  951   3.297   2.351   2.470 -0.6435  0.1851 -0.1914
    3RES   C108  952   3.236   2.479   2.410  0.1060 -0.4545  0.0968
    3RES   C109  953   3.323   2.602   2.460 -0.2039  0.4979  0.8630
    3RES   C110  954   3.286   2.645   2.596  0.4493  0.6106  0.1143
    3RES   C111  955   3.156   2.736   2.590 -0.3030 -0.5821 -0.0537
    3RES   C112  956   3.172   2.879   2.532  0.0257 -0.6554 -0.0595
    3RES   C113  957   3.037   2.930   2.484  0.2076 -0.0311  0.5041
    3RES   H114  958   3.398   2.345   2.430 -1.5263  2.4725 -2.9386
    3RES   H115  959   3.304   2.366   2.578 -1.9101 -1.7315  0.1916
    3RES   H116  960   3.133   2.489   2.444  0.2949  0.5671  0.3787
    3RES   H117  961   3.314   2.686   2.392  1.0374 -0.9465 -1.1290
    3RES   H118  962   3.425   2.572   2.483  0.1314  0.4714 -0.6199
    3RES   H119  963   3.262   2.564   2.665 -1.3202  1.6784  0.8062
    3RES   H120  964   3.375   2.694   2.634  0.8855 -0.2183  0.1674
    3RES   H121  965   3.124   2.742   2.694  2.2190 -0.1591  0.7199
    3RES   H122  966   3.077   2.679   2.542 -0.2582 -2.4111  1.9567
    3RES   H123  967   3.203   2.951   2.608 -0.6186  1.4052 -1.7167
    3RES   H124  968   3.246   2.896   2.454 -0.2233  1.4596  0.1247
    3RES   H125  969   2.976   2.971   2.564 -1.9226 -1.3832 -0.3813
    3RES   H126  970   3.052   3.008   2.410 -0.1795 -0.1709  0.2802
    3RES   H127  971   2.991   2.846   2.431  1.7623 -0.7074  0.1750
    3RES   C128  972   3.224   2.480   2.256 -0.6739 -0.0222 -0.5091
    3RES   C129  973   3.142   2.587   2.189  0.8866 -0.5845 -0.0490
    3RES   C130  974   2.989   2.568   2.204  0.9582  0.1103  0.6451
    3RES   C131  975   2.919   2.442   2.144  0.6984  0.2304  0.1630
    3RES   C132  976   2.763   2.441   2.153 -1.3747 -0.8091  0.2742
    3RES   C133  977   2.698   2.347   2.049 -0.5370 -0.0938  0.0944
    3RES   C134  978   2.548   2.368   2.066  0.5459  0.1695  0.3397
    3RES   H135  979   3.324   2.512   2.226 -0.9293  2.0652  0.7262
    3RES   H136  980   3.224   2.390   2.195 -0.5212 -1.6930  1.8942
    3RES   H137  981   3.158   2.682   2.241 -2.1998  0.1689 -0.3488
    3RES   H138  982   2.941   2.653   2.156  2.1094  0.4964  0.1470
    3RES   H139  983   2.960   2.591   2.307 -1.7010 -3.1565  0.7185
    3RES   H140  984   2.957   2.358   2.202  0.3157  1.4081  2.1482
    3RES   H141  985   2.949   2.413   2.043  1.4114  1.7981 -0.0847
    3RES   H142  986   2.720   2.540   2.136 -0.2534 -0.2401  0.7276
    3RES   H143  987   2.733   2.412   2.254 -0.0150 -1.0813  0.6079
    3RES   H144  988   2.727   2.242   2.048  1.6896  0.4993 -1.6355
    3RES   H145  989   2.736   2.373   1.950  0.6416 -1.8383  0.0790
    3RES   H146  990   2.516   2.457   2.012  0.2113 -1.0204 -1.4755
    3RES   H147  991   2.514   2.372   2.170  0.2455  1.9555  0.1891
    3RES   H148  992   2.495   2.277   2.040  0.4955 -0.3023  2.0253
    3RES   C149  993   3.187   2.611   2.040  0.7942  0.0369 -0.0960
    3RES   C150  994   3.130   2.750   1.987 -0.5226  0.3375 -0.3534
    3RES   C151  995   3.030   2.722   1.872  0.0538 -0.0556  1.0874
    3RES   C152  996   3.096   2.693   1.732  0.7465 -0.0801  0.2583
    3RES   C153  997   2.997   2.667   1.631  0.0330  0.7574  0.0296
    3RES   C154  998   2.886   2.766   1.586  0.1052 -0.2577  0.1636
    3RES   C155  999   2.797   2.711   1.476  0.4383  0.1197  0.6879
    3RES   H156 1000   3.296   2.613   2.047  0.8423 -2.4378  0.0997
    3RES   H157 1001   3.166   2.533   1.967 -1.7215  1.0498 -0.4822
    3RES   H158 1002   3.078   2.798   2.069 -0.3324 -0.2192  0.0985
    3RES   H159 1003   2.971   2.637   1.905  0.0328 -0.9393 -1.1821
    3RES   H160 1004   2.967   2.811   1.865 -0.2791 -0.3667  0.1110
    3RES   H161 1005   3.182   2.627   1.734  0.0419 -1.0532 -0.9915
    3RES   H162 1006   3.145   2.788   1.709 -2.0396  1.4190  0.3130
    3RES   H163 1007   2.944   2.582   1.675  0.6888  0.8021  0.9201
    3RES   H164 1008   3.039   2.632   1.537  0.9591 -1.4110  1.2160
    3RES   H165 1009   2.927   2.861   1.552 -0.4901 -0.7344 -1.9585
    3RES   H166 1010   2.822   2.779   1.674  2.4726 -1.5533  2.1352
    3RES   H167 1011   2.756   2.619   1.519  2.0543  0.0195  2.0805
    3RES   H168 1012   2.842   2.698   1.377 -4.1753 -0.6125 -1.4758
    3RES   H169 1013   2.730   2.792   1.448 -0.4960 -1.0103 -0.4476
    3RES   C170 1014   3.236   2.858   1.953 -0.3961 -0.0446  0.5505
    3RES   C171 1015   3.306   2.913   2.079  0.5058  0.2537 -0.3552
    3RES   C172 1016   3.435   2.994   2.045 -0.1513  0.3045  0.1096
    3RES   C173 1017   3.545   2.905   2.006  0.0372  0.3923 -0.2330
    3RES   C174 1018   3.671   2.984   1.993  0.1231  0.9027 -0.1946
    3RES   C175 1019   3.787   2.898   1.941 -0.0807 -1.2452 -0.2187
    3RES   C176 1020   3.779   2.859   1.800 -0.0503  0.1841 -0.3787
    3RES   H177 1021   3.190   2.940   1.897 -2.3209 -0.2638  1.7958
    3RES   H178 1022   3.310   2.811   1.887 -1.0960 -0.6157  0.1655
    3RES   H179 1023   3.326   2.824   2.139  3.8968  1.2220  0.0933
    3RES   H180 1024   3.473   3.064   2.119  2.3610 -0.4566 -0.4122
    3RES   H181 1025   3.412   3.057   1.959  0.0644 -1.2780 -1.1219
    3RES   H182 1026   3.529   2.849   1.913 -0.6524  0.4165 -0.1308
    3RES   H183 1027   3.576   2.830   2.078  2.3735  0.4732 -1.1084
    3RES   H184 1028   3.692   3.019   2.094  0.2208  1.7009 -0.4876
    3RES   H185 1029   3.658   3.072   1.930 -0.4420  0.4455 -0.7323
    3RES   H186 1030   3.817   2.813   2.001 -1.4748 -1.9367 -0.4786
    3RES   H187 1031   3.874   2.964   1.945  0.5100 -1.8071 -2.8595
    3RES   H188 1032   3.756   2.948   1.742  1.1018 -0.1456 -1.3565
    3RES   H189 1033   3.689   2.801   1.779  0.1758 -0.1000 -0.5734
    3RES   H190 1034   3.865   2.803   1.764 -0.9094 -1.6325  0.3080
    3RES   C191 1035   3.218   3.003   2.168 -0.9586  0.0579 -0.7408
    3RES   C192 1036   3.166   3.129   2.101  0.4165  0.2734  0.8499
    3RES   C193 1037   3.020   3.119   2.045 -0.4172  0.1100 -0.5340
    3RES   C194 1038   2.986   3.222   1.927  0.6284 -0.1127  0.1634
    3RES   C195 1039   2.832   3.208   1.896  0.3697 -0.0798  0.5608
    3RES   C196 1040   2.793   3.281   1.771 -0.8393 -0.2331  0.3831
    3RES   C197 1041   2.666   3.241   1.720  0.0145 -0.5365  0.0046
    3RES   H198 1042   3.279   3.030   2.254  0.2958  0.7708 -1.8350
    3RES   H199 1043   3.135   2.948   2.213  0.6486 -2.3039 -0.6020
    3RES   H200 1044   3.223   3.156   2.012 -0.5453 -1.3951 -0.3087
    3RES   H201 1045   2.953   3.143   2.128 -0.5095 -0.6257 -0.3929
    3RES   H202 1046   2.994   3.015   2.027 -0.5429  0.0413  0.0504
    3RES   H203 1047   3.053   3.194   1.845 -1.3679 -0.7642 -1.2859
    3RES   H204 1048   3.002   3.325   1.958 -0.3667  0.3584 -0.8190
    3RES   H205 1049   2.818   3.105   1.861 -0.0913  1.1216 -3.0025
    3RES   H206 1050   2.758   3.221   1.974  1.9585 -0.4698  2.1816
    3RES   H207 1051   2.861   3.264   1.689  0.0025 -0.3497  1.0993
    3RES   H208 1052   2.804   3.389   1.783 -1.7786  0.2583 -2.7274
    3RES   H209 1053   2.591   3.219   1.797 -1.2893 -0.8205 -1.3267
    3RES   H210 1054   2.661   3.146   1.667 -1.2559 -1.3996  1.6080
    3RES   H211 1055   2.629   3.329   1.667  0.3923  0.4022  1.2520
    3RES   C212 1056   3.157   3.253   2.186 -0.2470  0.2864  0.1707
    3RES   C213 1057   3.294   3.331   2.213  0.2976  0.5219 -0.2469
    3RES   C214 1058   3.381   3.371   2.089  0.1861  0.0733  0.8821
    3RES   C215 1059   3.306   3.459   1.993  0.4339 -0.2119  0.2813
    3RES   C216 1060   3.381   3.483   1.863 -0.2890  0.2663 -0.2453
    3RES   C217 1061   3.293   3.580   1.785  0.3922  0.0249  0.1011
    3RES   C218 1062   3.355   3.653   1.662  0.1575  0.3764  0.4762
    3RES   H219 1063   3.113   3.223   2.281 -0.1129  1.4805  0.6253
    3RES   H220 1064   3.087   3.325   2.144 -1.0074 -0.8807 -0.5951
    3RES   H221 1065   3.341   3.254   2.273  1.1880  0.6820 -0.7239
    3RES   H222 1066   3.474   3.422   2.117 -1.2185  3.2180 -0.0685
    3RES   H223 1067   3.406   3.278   2.039  0.7584  0.7703 -0.1535
    3RES   H224 1068   3.296   3.554   2.045 -0.8824 -0.4870  0.5497
    3RES   H225 1069   3.209   3.415   1.968 -0.4921  0.9207  1.8170
    3RES   H226 1070   3.480   3.519   1.887 -0.7969  0.3485  1.8315
    3RES   H227 1071   3.382   3.383   1.819 -2.2327 -0.7367  1.8759
    3RES   H228 1072   3.209   3.522   1.747  2.4089 -1.2279 -2.6107
    3RES   H229 1073   3.245   3.654   1.849 -1.3669  0.0788 -1.2323
    3RES   H230 1074   3.305   3.748   1.643  0.0913  0.0108 -1.2172
    3RES   H231 1075   3.367   3.586   1.577  2.1140  1.1563  0.0937
    3RES   H232 1076   3.452   3.691   1.697  0.0076 -0.3033  1.6461
    3RES   C233 1077   3.275   3.446   2.308 -0.0063  0.0118 -0.4657
    3RES   C234 1078   3.330   3.435   2.452  0.5038 -0.2297 -0.2105
    3RES   C235 1079   3.276   3.315   2.534 -0.6146  0.7825  0.0987
    3RES   C236 1080   3.304   3.312   2.686 -0.3015  0.0833  0.3025
    3RES   C237 1081   3.227   3.422   2.760 -0.6692  0.4017 -0.7603
    3RES   C238 1082   3.241   3.416   2.916  0.5630  0.6981  0.0655
    3RES   C239 1083   3.121   3.466   2.986  0.1906 -0.0914 -0.4124
    3RES   H240 1084   3.167   3.459   2.319  0.4040  1.5185  2.3516
    3RES   H241 1085   3.314   3.536   2.260  1.5967 -0.2011  0.4236
    3RES   H242 1086   3.305   3.523   2.512  2.2811  0.6334 -0.6981
    3RES   H243 1087   3.324   3.224   2.498 -1.5376  0.2388  0.2295
    3RES   H244 1088   3.170   3.307   2.510 -0.5152  1.6677 -0.6928
    3RES   H245 1089   3.411   3.318   2.709 -0.2284  3.4253 -0.6340
    3RES   H246 1090   3.283   3.218   2.736  1.5496 -1.1983 -1.2340
    3RES   H247 1091   3.120   3.426   2.741 -1.0518  1.7334  1.5274
    3RES   H248 1092   3.266   3.518   2.725 -0.4518  0.4321 -0.4350
    3RES   H249 1093   3.265   3.315   2.948 -1.7608 -0.2399 -1.0249
    3RES   H250 1094   3.332   3.473   2.938  2.5255 -1.6869 -1.6098
    3RES   H251 1095   3.036   3.404   2.959  0.2229  0.1708 -1.1098
    3RES   H252 1096   3.126   3.484   3.094  1.7574 -0.8126 -0.3418
    3RES   H253 1097   3.094   3.564   2.948 -0.6035  0.3097  1.1393
    3RES   C254 1098   3.490   3.442   2.460  0.8045 -0.2611  0.4757
    3RES   C255 1099   3.569   3.550   2.386 -0.2048  0.4504 -0.0358
    3RES   C256 1100   3.713   3.503   2.394  1.1437 -0.0839 -0.1412
    3RES   C257 1101   3.760   3.399   2.285  0.2187 -0.3006 -0.4227
    3RES   C258 1102   3.795   3.470   2.151  0.5581 -0.1397 -0.0896
    3RES   C259 1103   3.806   3.371   2.033 -0.8400  0.2933  0.6061
    3RES   C260 1104   3.901   3.430   1.925 -0.0784  1.0609  0.3178
    3RES   H261 1105   3.530   3.346   2.428  2.6573 -0.4821  3.2640
    3RES   H262 1106   3.518   3.442   2.566 -0.0361  1.9902  0.7213
    3RES   H263 1107   3.546   3.560   2.280  1.4522 -1.6172 -0.6266
    3RES   H264 1108   3.729   3.468   2.496 -0.9974 -5.4126 -1.4309
    3RES   H265 1109   3.773   3.593   2.386 -0.8848  1.2115 -1.2443
    3RES   H266 1110   3.842   3.351   2.339  0.2655  0.2518  0.0020
    3RES   H267 1111   3.683   3.322   2.277 -0.0943 -0.0751  0.4416
    3RES   H268 1112   3.895   3.508   2.175  0.3867  0.9815 -1.0974
    3RES   H269 1113   3.727   3.553   2.134  0.1966 -0.6753 -1.3206
    3RES   H270 1114   3.843   3.272   2.060 -1.7668 -0.2728 -0.1698
    3RES   H271 1115   3.708   3.336   2.000 -0.0774 -1.4634  0.1191
    3RES   H272 1116   3.989   3.468   1.976 -0.9630  0.1297  2.6099
    3RES   H273 1117   3.944   3.356   1.857  0.5492  1.8813 -0.1980
    3RES   H274 1118   3.862   3.516   1.869 -1.9320 -0.1186 -0.2826
    3RES   C275 1119   3.564   3.700   2.449  0.1205  0.1297  0.2831
    3RES   C276 1120   3.430   3.784   2.435 -0.5076  0.4441  0.2753
    3RES   C277 1121   3.419   3.874   2.311 -0.1235  0.8519 -0.0831
    3RES   C278 1122   3.448   3.809   2.176 -0.1647  0.2962  0.1330
    3RES   C279 1123   3.471   3.917   2.066 -0.1244  0.4953 -0.4267
    3RES   C280 1124   3.336   3.958   1.993 -0.2861 -0.1488  0.4122
    3RES   C281 1125   3.373   4.055   1.885 -0.4383 -0.1142  0.0169
    3RES   H282 1126   3.640   3.760   2.399  1.4267 -0.7803  1.1652
    3RES   H283 1127   3.603   3.690   2.550 -0.5417 -2.1813  0.3455
    3RES   H284 1128   3.354   3.707   2.423  0.2055  0.0721 -1.9164
    3RES   H285 1129   3.317   3.912   2.307 -1.5447 -2.4827  2.1843
    3RES   H286 1130   3.495   3.952   2.318  2.3191 -1.4920  0.5678
    3RES   H287 1131   3.359   3.751   2.154 -0.1072  0.7652 -1.3867
    3RES   H288 1132   3.542   3.754   2.178 -0.4959 -0.2687  0.1140
    3RES   H289 1133   3.547   3.891   1.992  0.1015 -0.2385  0.0605
    3RES   H290 1134   3.528   4.003   2.103 -0.9487  0.3369  1.2683
    3RES   H291 1135   3.290   3.865   1.959  0.9457 -0.1218 -1.3827
    3RES   H292 1136   3.272   4.015   2.060  2.7349  2.7574  0.9543
    3RES   H293 1137   3.287   4.088   1.827  0.2636  1.3667 -0.1806
    3RES   H294 1138   3.421   3.987   1.815  1.6698 -0.1895  1.4845
    3RES   H295 1139   3.436   4.140   1.912 -0.3457  0.3182 -1.5529
    3RES   C296 1140   3.411   3.855   2.565  0.5236  0.1819 -0.0355
    3RES   C297 1141   3.271   3.929   2.575  0.5671  0.2809  0.0938
    3RES   C298 1142   3.259   4.005   2.709  0.3375  0.7659 -0.1821
    3RES   C299 1143   3.359   4.122   2.713  0.3303 -0.1326  0.8637
    3RES   C300 1144   3.326   4.224   2.822 -0.3160 -0.0030 -1.2427
    3RES   C301 1145   3.211   4.324   2.785 -0.4289  0.0397 -0.6224
    3RES   C302 1146   3.205   4.439   2.883 -0.3844 -0.0197  0.0158
    3RES   H303 1147   3.413   3.782   2.647 -0.1000  0.7958  0.5264
    3RES   H304 1148   3.499   3.920   2.572  1.8983 -1.5364 -0.8721
    3RES   H305 1149   3.259   4.009   2.503 -2.9034 -2.6179 -2.7114
    3RES   H306 1150   3.156   4.041   2.716  0.3391  0.6644  0.3518
    3RES   H307 1151   3.270   3.941   2.797  1.2842  1.2378  0.0396
    3RES   H308 1152   3.347   4.182   2.623 -1.8609  0.2605  1.3893
    3RES   H309 1153   3.462   4.091   2.732  0.4213 -0.5268 -0.2710
    3RES   H310 1154   3.417   4.283   2.836 -0.5668  0.1308 -0.1214
    3RES   H311 1155   3.301   4.176   2.917 -0.5804  1.3371 -0.6370
    3RES   H312 1156   3.226   4.374   2.689  1.3972 -0.8987 -0.8390
    3RES   H313 1157   3.119   4.265   2.789 -0.7839  0.7683  3.3935
    3RES   H314 1158   3.288   4.504   2.856  0.8029 -1.5529 -0.1103
    3RES   H315 1159   3.116   4.501   2.873 -1.1128 -0.6721  2.0951
    3RES   H316 1160   3.212   4.418   2.990  1.1927 -0.0659 -0.0802
    3RES   C317 1161   3.158   3.827   2.563 -0.0738  0.7485 -0.7667
    3RES   C318 1162   3.012   3.883   2.547 -0.1472 -0.3399  0.0790
    3RES   C319 1163   2.980   3.953   2.406 -0.1931  0.3082 -0.4347
    3RES   C320 1164   2.836   4.020   2.393  0.3536 -1.1639 -0.7702
    3RES   C321 1165   2.801   4.119   2.502  0.6302 -0.1450  0.3052
    3RES   C322 1166   2.895   4.238   2.514 -0.2910 -0.0500  1.0164
    3RES   C323 1167   2.856   4.344   2.618  0.6055  0.6634  0.3330
    3RES   H324 1168   3.165   3.766   2.653 -0.5418  0.6483 -0.7965
    3RES   H325 1169   3.164   3.783   2.464 -1.2495  2.5796 -1.6685
    3RES   H326 1170   2.984   3.959   2.621  0.1612 -0.5640  0.4266
    3RES   H327 1171   2.971   3.879   2.326  1.1400  1.9949 -2.2052
    3RES   H328 1172   3.053   4.028   2.373  0.1642  0.2371  0.1823
    3RES   H329 1173   2.757   3.947   2.412 -1.4874  1.0079  0.1367
    3RES   H330 1174   2.826   4.062   2.293 -1.6026 -0.6248 -0.3678
    3RES   H331 1175   2.813   4.065   2.596  2.2745 -1.3091 -0.5307
    3RES   H332 1176   2.705   4.166   2.480  1.2750  0.0453 -2.2948
    3RES   H333 1177   2.885   4.284   2.416 -2.8411 -2.4809  0.0621
    3RES   H334 1178   2.995   4.198   2.530 -0.2930 -0.2599  0.4914
    3RES   H335 1179   2.786   4.417   2.578  1.6242  1.2053 -0.4798
    3RES   H336 1180   2.944   4.405   2.641  0.0648  1.6530 -0.1810
    3RES   H337 1181   2.814   4.290   2.703 -0.0250 -1.2586 -1.1590
    3RES   C338 1182   2.917   3.761   2.580  0.2042  0.4314  0.2300
    3RES   C339 1183   2.817   3.778   2.703 -0.4707 -0.2390  0.3101
    3RES   C340 1184   2.888   3.810   2.836  0.1048  0.0876 -0.0004
    3RES   C341 1185   2.816   3.854   2.961  0.6139  0.0622 -0.1269
    3RES   C342 1186   2.807   3.732   3.056  0.2937  0.4792 -0.2311
    3RES   C343 1187   2.752   3.777   3.189 -0.6205  0.6138 -0.2524
    3RES   C344 1188   2.760   3.652   3.277 -0.4154  0.0933  0.0800
    3RES   H345 1189   2.974   3.668   2.584 -1.7156 -0.7287  0.9088
    3RES   H346 1190   2.853   3.741   2.494 -0.8531  0.8178  0.9150
    3RES   H347 1191   2.747   3.860   2.686 -0.1597 -0.0266  0.0323
    3RES   H348 1192   2.957   3.728   2.857  0.2962 -0.3067 -2.0480
    3RES   H349 1193   2.958   3.888   2.807  1.4658 -0.7304  1.0165
    3RES   H350 1194   2.721   3.899   2.932  0.9486  1.7122  1.3038
    3RES   H351 1195   2.870   3.935   3.009 -2.1081  1.5960  0.4705
    3RES   H352 1196   2.733   3.660   3.022  0.2075  0.4767 -0.0393
    3RES   H353 1197   2.896   3.669   3.061 -1.2896 -1.8770 -0.8025
    3RES   H354 1198   2.817   3.854   3.229  0.5301  0.0517 -1.0178
    3RES   H355 1199   2.649   3.813   3.186 -0.7401  0.3076  0.1741
    3RES   H356 1200   2.711   3.679   3.371  1.4977  1.4420  0.7162
    3RES   H357 1201   2.864   3.635   3.305 -0.2149  0.8989 -0.1561
    3RES   H358 1202   2.725   3.556   3.240 -0.2004 -0.2378  0.7263
    3RES   C359 1203   2.732   3.651   2.724  0.2591  0.4544 -0.7195
    3RES   C360 1204   2.595   3.668   2.787  0.1902 -0.2436 -0.3903
    3RES   C361 1205   2.498   3.761   2.698 -0.6012  0.0091 -0.1042
    3RES   C362 1206   2.488   3.713   2.553 -0.1969  0.3075 -0.4121
    3RES   C363 1207   2.383   3.786   2.474  0.5796 -0.0151  0.4315
    3RES   C364 1208   2.380   3.748   2.319  0.6376  0.4544  0.3106
    3RES   C365 1209   2.469   3.847   2.242  0.1791 -0.1311  0.1488
    3RES   H366 1210   2.793   3.586   2.786 -0.8204 -1.7814 -1.9232
    3RES   H367 1211   2.733   3.589   2.634 -0.8793  0.5597 -0.8085
    3RES   H368 1212   2.599   3.727   2.878 -0.4733 -2.7243  1.2873
    3RES   H369 1213   2.397   3.766   2.738  0.0693 -2.0909  1.9333
    3RES   H370 1214   2.531   3.865   2.700 -0.5650  0.0534 -2.0795
    3RES   H371 1215   2.584   3.719   2.502 -0.4341 -0.0496 -0.9055
    3RES   H372 1216   2.471   3.605   2.555 -2.3832  0.6327 -0.3000
    3RES   H373 1217   2.287   3.784   2.525  0.5137  1.4417  0.3703
    3RES   H374 1218   2.417   3.889   2.479  0.7117 -0.0001 -0.6313
    3RES   H375 1219   2.429   3.651   2.306  1.1646  0.9967 -1.9901
    3RES   H376 1220   2.277   3.737   2.285  0.4993 -0.5532  1.0009
    3RES   H377 1221   2.564   3.869   2.290 -0.3120  1.1562  0.5515
    3RES   H378 1222   2.487   3.818   2.138 -0.8277 -0.5080  0.0738
    3RES   H379 1223   2.416   3.942   2.238  1.7788  0.7405 -1.0794
    3RES   C380 1224   2.530   3.527   2.817  0.0220  0.0707  0.4153
    3RES   C381 1225   2.404   3.529   2.908  0.3501 -0.1198 -0.8019
    3RES   C382 1226   2.327   3.397   2.910 -0.1822  0.4660 -0.7485
    3RES   C383 1227   2.276   3.341   2.779 -0.3583  0.3305 -0.1080
    3RES   C384 1228   2.196   3.429   2.684  0.2079  0.1996 -0.3086
    3RES   C385 1229   2.149   3.362   2.560 -0.6405  0.0371  0.4440
    3RES   C386 1230   2.096   3.456   2.451 -0.2208 -0.3690  0.4072
    3RES   H387 1231   2.503   3.483   2.722 -0.8746  2.9217 -0.6811
    3RES   H388 1232   2.595   3.454   2.867  1.4546  0.8638 -0.2438
    3RES   H389 1233   2.337   3.603   2.864 -0.1722 -1.1285 -1.7196
    3RES   H390 1234   2.244   3.411   2.979 -0.9902  1.5761 -1.9236
    3RES   H391 1235   2.396   3.326   2.956  0.6716  1.7135 -0.0771
    3RES   H392 1236   2.364   3.301   2.731  0.3723  2.5243 -0.6750
    3RES   H393 1237   2.224   3.250   2.808  0.6869  0.0844  0.9928
    3RES   H394 1238   2.107   3.469   2.734 -1.9941 -3.3765 -1.1580
    3RES   H395 1239   2.255   3.517   2.661  2.4315 -0.6147  2.0990
    3RES   H396 1240   2.071   3.290   2.587 -0.4675 -0.8980 -1.4693
    3RES   H397 1241   2.235   3.319   2.509  0.3643  3.1666 -0.5840
    3RES   H398 1242   2.175   3.487   2.382  1.7719 -2.6526  1.5647
    3RES   H399 1243   2.050   3.545   2.494 -1.1246  0.3275 -1.9130
    3RES   H400 1244   2.015   3.396   2.411 -0.1231 -0.5662  0.5017
    3RES   C401 1245   2.429   3.572   3.054 -0.6325 -0.2202  0.0398
    3RES   C402 1246   2.305   3.599   3.139 -0.4450  1.1835 -0.6088
    3RES   C403 1247   2.330   3.673   3.269  0.0943  0.2383 -0.7329
    3RES   C404 1248   2.201   3.682   3.354 -0.0244  0.2420 -0.1544
    3RES   C405 1249   2.224   3.763   3.478 -0.4688 -0.3865 -0.4460
    3RES   C406 1250   2.109   3.808   3.569  0.3643 -0.6683  0.5829
    3RES   C407 1251   2.174   3.857   3.700 -0.2158  0.2594  0.4045
    3RES   H408 1252   2.478   3.670   3.057  1.4794 -1.2802  1.1373
    3RES   H409 1253   2.503   3.507   3.101  0.5745  1.6771  0.8435
    3RES   H410 1254   2.258   3.507   3.173  0.6520  0.8174 -0.0513
    3RES   H411 1255   2.386   3.764   3.247 -0.7499  0.9035 -0.1460
    3RES   H412 1256   2.379   3.591   3.322 -1.5897 -1.3104 -1.5087
    3RES   H413 1257   2.160   3.588   3.392 -0.2904 -0.9846 -3.3260
    3RES   H414 1258   2.128   3.734   3.291  0.5124 -0.5664 -1.4611
    3RES   H415 1259   2.284   3.698   3.541 -1.2049  0.2370  0.9097
    3RES   H416 1260   2.279   3.855   3.458  0.7948 -0.6278  1.7453
    3RES   H417 1261   2.045   3.881   3.519  0.0237 -0.6785  1.0033
    3RES   H418 1262   2.042   3.724   3.588 -0.8192  0.2312  0.4076
    3RES   H419 1263   2.099   3.897   3.768 -0.7398 -2.4514  1.4788
    3RES   H420 1264   2.254   3.928   3.676 -1.0843  0.8229 -0.8954
    3RES   H421 1265   2.231   3.779   3.750 -0.0210 -1.4029 -2.2919
    3RES   H422 1266   2.235   3.653   3.076 -2.3848  1.2783  1.5625
    4RES     C1 1267   3.623   1.671   7.163 -0.2745  0.2892 -0.2545
    4RES     C2 1268   3.768   1.719   7.164  0.0820 -0.0471  0.3467
    4RES     C3 1269   3.858   1.625   7.245 -0.3737  0.0927  0.0989
    4RES     C4 1270   4.007   1.626   7.203  0.3214  0.0602 -0.2409
    4RES     C5 1271   4.096   1.511   7.261  0.0174 -0.8108 -0.1982
    4RES     C6 1272   4.245   1.540   7.233 -0.0702  0.0653 -0.2814
    4RES     C7 1273   4.335   1.446   7.303 -0.4221 -0.2361 -0.2955
    4RES     H8 1274   3.569   1.674   7.257  0.8412  0.8411  0.3760
    4RES     H9 1275   3.609   1.572   7.121 -0.4509  0.3326 -0.2980
    4RES    H10 1276   3.802   1.704   7.062  2.4171  1.4606  0.8694
    4RES    H11 1277   3.847   1.634   7.353  2.1820  2.4037  0.2092
    4RES    H12 1278   3.820   1.526   7.219 -1.2354  0.2408  0.7522
    4RES    H13 1279   4.017   1.616   7.095  1.4454  0.5037 -0.1869
    4RES    H14 1280   4.056   1.721   7.223 -0.9266  0.7019 -0.1701
    4RES    H15 1281   4.060   1.417   7.220  0.0975 -0.5870 -0.7847
    4RES    H16 1282   4.078   1.494   7.367  0.1141  1.5040  0.2130
    4RES    H17 1283   4.267   1.635   7.281 -1.4065  0.9865 -1.4417
    4RES    H18 1284   4.260   1.541   7.125  0.1205  1.3760 -0.2507
    4RES    H19 1285   4.338   1.344   7.265 -1.5940 -1.3187  2.4113
    4RES    H20 1286   4.320   1.443   7.411  0.5523  2.1843 -0.0565
    4RES    H21 1287   4.437   1.485   7.302 -0.7504  0.6146 -2.1120
    4RES    H22 1288   3.564   1.729   7.092  0.2784  1.0336 -0.1143
    4RES    C23 1289   3.782   1.860   7.219  0.1621  0.0263  0.0803
    4RES    C24 1290   3.741   1.971   7.119  0.2333 -0.0054  0.3989
    4RES    C25 1291   3.835   1.977   6.996 -0.0068 -0.4902 -0.8435
    4RES    C26 1292   3.780   1.997   6.860  0.3387  0.1262  0.6779
    4RES    C27 1293   3.891   2.034   6.753  0.4524  0.9753  0.3181
    4RES    C28 1294   3.834   2.064   6.612  0.0655  0.0799  0.4786
    4RES    C29 1295   3.763   1.947   6.550  0.0381 -0.3077  0.2199
    4RES    H30 1296   3.724   1.857   7.311 -0.9615  0.3667 -0.6067
    4RES    H31 1297   3.889   1.872   7.235  0.2063 -0.4708  0.1684
    4RES    H32 1298   3.637   1.949   7.097 -0.5057  1.5704  2.1950
    4RES    H33 1299   3.883   1.880   6.986 -0.7928 -0.8268 -1.3317
    4RES    H34 1300   3.919   2.043   7.020 -0.0635 -1.0802  1.0701
    4RES    H35 1301   3.702   2.073   6.857  0.2503  0.0370  0.7132
    4RES    H36 1302   3.744   1.901   6.821 -2.9961  1.2105  0.9137
    4RES    H37 1303   3.980   1.972   6.744 -0.1899  0.3292 -1.9961
    4RES    H38 1304   3.922   2.137   6.766  1.9887  0.5997 -0.2374
    4RES    H39 1305   3.917   2.093   6.546 -0.7952  0.6483 -0.3635
    4RES    H40 1306   3.770   2.151   6.617 -0.5978 -0.4607  1.4817
    4RES    H41 1307   3.799   1.847   6.575  1.9509  0.2193 -0.3750
    4RES    H42 1308   3.663   1.951   6.594  0.4423 -0.8838  1.2034
    4RES    H43 1309   3.748   1.961   6.443 -0.6509 -0.1413  0.3357
    4RES    C44 1310   3.751   2.107   7.200  0.4457  0.2258 -0.5352
    4RES    C45 1311   3.739   2.244   7.118 -1.2504 -0.4697 -0.0037
    4RES    C46 1312   3.589   2.280   7.085  0.1731  0.2263  0.1326
    4RES    C47 1313   3.564   2.381   6.977  0.0510  0.0580 -0.4983
    4RES    C48 1314   3.417   2.419   6.957  0.0836 -0.1827  0.3748
    4RES    C49 1315   3.406   2.525   6.846  0.0863 -0.0474 -1.2304
    4RES    C50 1316   3.275   2.596   6.859 -0.6410  0.2012 -0.0715
    4RES    H51 1317   3.839   2.107   7.264  0.6163 -0.3159 -0.7661
    4RES    H52 1318   3.672   2.114   7.275  2.0253 -1.7390  1.3636
    4RES    H53 1319   3.796   2.223   7.027 -0.8819 -0.1981  0.1657
    4RES    H54 1320   3.534   2.304   7.175 -0.6969 -0.8868 -0.0871
    4RES    H55 1321   3.538   2.191   7.047 -0.0024 -0.3285  1.6511
    4RES    H56 1322   3.609   2.478   6.998 -2.3636  0.8242  1.4310
    4RES    H57 1323   3.600   2.337   6.884  2.2239 -0.0101  0.3514
    4RES    H58 1324   3.370   2.442   7.053 -2.1168 -0.5610 -0.5751
    4RES    H59 1325   3.359   2.331   6.927 -1.2157  1.1531 -1.1463
    4RES    H60 1326   3.416   2.475   6.750  1.4408 -0.4402 -0.8964
    4RES    H61 1327   3.481   2.604   6.852  0.9817 -1.0068  0.8785
    4RES    H62 1328   3.190   2.529   6.848 -0.7196  0.5570 -1.6784
    4RES    H63 1329   3.268   2.668   6.778 -1.8462  0.4766  0.2704
    4RES    H64 1330   3.253   2.632   6.959  1.2805 -0.2279  0.5206
    4RES    C65 1331   3.802   2.372   7.185 -0.7438  0.0288  0.3528
    4RES    C66 1332   3.937   2.354   7.257 -0.3065  0.2902  0.6245
    4RES    C67 1333   3.997   2.488   7.313  0.3315 -0.3525  0.0919
    4RES    C68 1334   3.927   2.530   7.447 -0.4657  0.3350  0.4752
    4RES    C69 1335   3.924   2.679   7.484 -0.2891  0.0419  0.1072
    4RES    C70 1336   4.054   2.751   7.514 -0.8326 -0.1240 -0.0597
    4RES    C71 1337   4.027   2.895   7.559 -0.3507  0.1672  0.4552
    4RES    H72 1338   3.818   2.447   7.107  2.7819 -2.2574 -1.2823
    4RES    H73 1339   3.729   2.411   7.255  0.4956 -0.0300  1.6913
    4RES    H74 1340   3.928   2.276   7.333  2.3915 -0.4148  0.2725
    4RES    H75 1341   4.104   2.493   7.332  0.3480 -1.3642  0.2774
    4RES    H76 1342   3.976   2.564   7.237 -3.1261 -0.9909  0.3249
    4RES    H77 1343   3.822   2.499   7.443 -1.0125  1.7039  3.1412
    4RES    H78 1344   3.967   2.471   7.530  0.3200  0.1262 -0.0518
    4RES    H79 1345   3.872   2.748   7.418 -0.2953 -0.1123 -0.0494
    4RES    H80 1346   3.855   2.688   7.568 -3.0123  0.8878 -2.1616
    4RES    H81 1347   4.121   2.737   7.429 -0.0903  3.0157 -0.0371
    4RES    H82 1348   4.114   2.706   7.593  0.7892 -0.6835 -1.5791
    4RES    H83 1349   4.115   2.952   7.588  0.0804 -0.3923  0.2582
    4RES    H84 1350   3.971   2.941   7.477  0.1587 -0.0729 -0.0292
    4RES    H85 1351   3.968   2.884   7.650  1.0526 -2.1756  1.1124
    4RES    C86 1352   4.041   2.305   7.156 -1.3852 -0.2474 -0.2248
    4RES    C87 1353   4.178   2.275   7.225  0.1585 -0.3545  0.8380
    4RES    C88 1354   4.171   2.197   7.366 -0.4160  0.4535 -0.1866
    4RES    C89 1355   4.133   2.041   7.359  0.2191 -0.4845 -0.0832
    4RES    C90 1356   4.119   1.989   7.501 -0.0301 -0.3605  0.1150
    4RES    C91 1357   4.109   1.840   7.502  0.1547 -0.0354  0.1855
    4RES    C92 1358   4.047   1.794   7.633 -0.2116  0.7651 -0.2771
    4RES    H93 1359   4.011   2.215   7.102  2.4658  0.4409 -3.7779
    4RES    H94 1360   4.062   2.384   7.083 -2.9065  0.6535  0.2915
    4RES    H95 1361   4.228   2.370   7.243  1.3478 -0.2906 -2.4210
    4RES    H96 1362   4.273   2.193   7.405 -0.7051 -1.1045  0.4789
    4RES    H97 1363   4.106   2.245   7.439  0.9758 -0.9739  2.0761
    4RES    H98 1364   4.041   2.015   7.307 -0.2036  0.5202  0.1377
    4RES    H99 1365   4.211   1.980   7.315  1.2303 -0.8669  2.1574
    4RES   H100 1366   4.030   2.035   7.545  0.0283  1.5167 -1.6944
    4RES   H101 1367   4.207   2.008   7.563  1.1596 -0.5187 -1.4884
    4RES   H102 1368   4.052   1.805   7.416 -1.7077 -0.6943  1.6256
    4RES   H103 1369   4.202   1.792   7.471 -0.7064 -0.5356 -1.6892
    4RES   H104 1370   3.949   1.833   7.660 -0.0160  0.7929  0.4064
    4RES   H105 1371   4.117   1.817   7.714  0.3727  2.2351 -1.1893
    4RES   H106 1372   4.024   1.689   7.611  0.0632  0.8650 -1.0640
    4RES   C107 1373   4.276   2.204   7.132 -0.8351  0.1766 -0.3396
    4RES   C108 1374   4.375   2.292   7.040 -0.0534 -0.0293 -0.8773
    4RES   C109 1375   4.307   2.387   6.942 -0.4313  0.1183  0.1772
    4RES   C110 1376   4.243   2.317   6.828  0.5953 -0.8784  0.1111
    4RES   C111 1377   4.215   2.412   6.713  0.4043  0.1227  0.2921
    4RES   C112 1378   4.183   2.335   6.583  0.2130 -0.3389  0.0874
    4RES   C113 1379   4.229   2.410   6.452  0.5526  1.3386  0.9475
    4RES   H114 1380   4.218   2.140   7.065  0.9830 -0.9972 -0.7961
    4RES   H115 1381   4.333   2.134   7.192 -1.3054 -1.0344 -1.2774
    4RES   H116 1382   4.423   2.214   6.981 -2.1736 -1.2707 -0.9895
    4RES   H117 1383   4.384   2.453   6.902  0.1711 -0.3029  0.6237
    4RES   H118 1384   4.250   2.462   6.998  0.4232  1.6108 -0.9004
    4RES   H119 1385   4.314   2.241   6.797  3.3983  0.9775  1.7779
    4RES   H120 1386   4.148   2.278   6.864 -0.3795  0.8375 -0.5409
    4RES   H121 1387   4.300   2.479   6.697 -0.7673  1.3943 -0.6734
    4RES   H122 1388   4.139   2.485   6.740  0.2717  0.4560 -0.9618
    4RES   H123 1389   4.235   2.240   6.587 -1.0841 -1.0190  1.1438
    4RES   H124 1390   4.076   2.315   6.583 -0.0716  0.9258 -2.5734
    4RES   H125 1391   4.167   2.495   6.425 -1.4609 -0.6072 -0.7809
    4RES   H126 1392   4.328   2.454   6.467  1.8350 -1.4180  0.9176
    4RES   H127 1393   4.245   2.346   6.365 -4.5541  0.7772  0.2886
    4RES   C128 1394   4.487   2.365   7.120  0.1948 -0.2270  0.4567
    4RES   C129 1395   4.589   2.273   7.187 -0.0548 -0.1871  0.4003
    4RES   C130 1396   4.671   2.353   7.300 -0.5069  0.3449  0.3665
    4RES   C131 1397   4.745   2.268   7.399  0.2447  0.7509 -0.4157
    4RES   C132 1398   4.818   2.356   7.489  0.1427  0.6881 -0.5492
    4RES   C133 1399   4.902   2.297   7.608 -0.3222 -0.1715 -0.1816
    4RES   C134 1400   4.960   2.412   7.694 -0.0073  1.2371 -0.2120
    4RES   H135 1401   4.545   2.426   7.050 -0.8545 -0.5890 -0.7404
    4RES   H136 1402   4.437   2.437   7.185 -1.3603  0.8653 -1.9076
    4RES   H137 1403   4.532   2.193   7.235 -0.0529 -0.4589 -0.0509
    4RES   H138 1404   4.602   2.417   7.356  1.8711  1.3097  2.3063
    4RES   H139 1405   4.735   2.429   7.254 -2.0363  0.0993 -2.2383
    4RES   H140 1406   4.809   2.199   7.346  1.0463 -0.8486  2.5253
    4RES   H141 1407   4.679   2.198   7.450  1.1417 -0.9104 -1.5086
    4RES   H142 1408   4.751   2.424   7.543 -1.0339 -1.0549  0.2311
    4RES   H143 1409   4.890   2.421   7.440  1.0793 -0.0105 -0.1149
    4RES   H144 1410   4.985   2.238   7.569 -0.5547  0.4627 -1.6929
    4RES   H145 1411   4.831   2.238   7.666  0.3248 -1.8624 -1.0714
    4RES   H146 1412   5.005   2.385   0.063  1.9569  1.0027 -1.1710
    4RES   H147 1413   4.886   2.490   7.710 -1.6161 -0.2544 -0.3091
    4RES   H148 1414   5.040   2.457   7.635  1.8588 -2.0048 -0.2930
    4RES   C149 1415   4.686   2.208   7.084  0.6317 -0.6812  0.0220
    4RES   C150 1416   4.669   2.054   7.066  0.1380 -0.2799 -0.4896
    4RES   C151 1417   4.686   1.985   7.202 -0.2740  0.4831 -0.0086
    4RES   C152 1418   4.613   1.846   7.200  0.1996 -0.1245  0.1254
    4RES   C153 1419   4.623   1.769   7.333 -0.5113  0.5725  0.8296
    4RES   C154 1420   4.529   1.821   7.439  0.1445 -0.2873 -0.3336
    4RES   C155 1421   4.562   1.778   7.584 -0.3578  0.1727  0.4150
    4RES   H156 1422   4.667   2.256   6.988 -0.0371 -0.3343  0.3275
    4RES   H157 1423   4.789   2.232   7.113  0.0393 -0.5416  2.0586
    4RES   H158 1424   4.564   2.041   7.043 -0.0583  1.3636 -0.5513
    4RES   H159 1425   4.792   1.976   7.224 -0.0807  1.2624 -0.5819
    4RES   H160 1426   4.644   2.040   7.286  0.6271 -0.0485  0.7967
    4RES   H161 1427   4.657   1.787   7.120  0.4218  1.9262 -1.3183
    4RES   H162 1428   4.507   1.856   7.175  0.4581  3.1222  0.0868
    4RES   H163 1429   4.718   1.762   7.387  0.8124 -1.5766 -1.6681
    4RES   H164 1430   4.595   1.668   7.304  0.3707  0.8833 -1.1618
    4RES   H165 1431   4.432   1.780   7.409 -0.4526 -0.3691  1.6511
    4RES   H166 1432   4.511   1.928   7.428 -0.9480 -0.4103  0.1958
    4RES   H167 1433   4.531   1.676   7.607  0.0404 -0.3622 -1.3579
    4RES   H168 1434   4.512   1.838   7.659 -2.4198 -3.2223  1.8573
    4RES   H169 1435   4.669   1.793   7.602 -0.4579  1.0589  0.3157
    4RES   C170 1436   4.753   2.010   6.942 -0.1801  0.1347 -0.8525
    4RES   C171 1437   4.680   1.924   6.844  0.5613  0.2008  0.3042
    4RES   C172 1438   4.581   2.009   6.753  0.2207 -0.6871  0.4274
    4RES   C173 1439   4.465   1.944   6.684 -0.3344  0.3941  0.5593
    4RES   C174 1440   4.401   1.835   6.765  0.1941  0.1019 -0.4011
    4RES   C175 1441   4.336   1.887   6.892  0.2785  0.2328  0.2937
    4RES   C176 1442   4.242   1.792   6.953  0.0984  0.2865 -0.6131
    4RES   H177 1443   4.842   1.959   6.978  1.6477  2.0858 -2.4703
    4RES   H178 1444   4.811   2.086   6.889 -0.6083 -0.3648 -2.0722
    4RES   H179 1445   4.620   1.850   6.898 -0.8719  0.7703 -0.4826
    4RES   H180 1446   4.639   2.061   6.677  0.5335  1.1387  1.8743
    4RES   H181 1447   4.541   2.090   6.814 -1.1263  1.2299 -2.8615
    4RES   H182 1448   4.504   1.903   6.591  0.0292  0.6676  0.5905
    4RES   H183 1449   4.388   2.016   6.657 -0.1709  0.0195 -0.9462
    4RES   H184 1450   4.472   1.754   6.781  0.0048 -0.5040 -2.5065
    4RES   H185 1451   4.318   1.790   6.709  0.3408 -2.1926  1.1512
    4RES   H186 1452   4.267   1.966   6.863 -0.3172  0.4319  2.1962
    4RES   H187 1453   4.405   1.918   6.971  0.1202  0.8902  0.1734
    4RES   H188 1454   4.295   1.698   6.972 -1.5209 -0.4796  0.2125
    4RES   H189 1455   4.157   1.758   6.895 -0.2324 -2.5655  1.4312
    4RES   H190 1456   4.232   1.819   7.058  0.0385 -1.3140 -0.1889
    4RES   C191 1457   4.775   1.844   6.751  0.2132  0.2441 -0.1294
    4RES   C192 1458   4.847   1.724   6.829  0.5196 -0.7327  0.0289
    4RES   C193 1459   4.748   1.607   6.875 -0.7096 -0.6119 -0.2314
    4RES   C194 1460   4.797   1.517   6.989 -0.5169  0.4922 -0.4276
    4RES   C195 1461   4.696   1.405   7.016  0.1061  0.0395  0.2952
    4RES   C196 1462   4.768   1.296   7.105  0.7860 -0.1091  0.5585
    4RES   C197 1463   4.870   1.215   7.017  0.0955  0.2750 -0.6797
    4RES   H198 1464   4.843   1.922   6.718 -2.1039  1.7722 -1.3822
    4RES   H199 1465   4.719   1.806   6.666 -2.4307  1.7161  0.8893
    4RES   H200 1466   4.901   1.760   6.917 -0.5603 -0.4041  0.5643
    4RES   H201 1467   4.709   1.550   6.790  1.8041  0.1664 -1.9592
    4RES   H202 1468   4.660   1.655   6.917  0.3023 -1.0157  2.4989
    4RES   H203 1469   4.805   1.583   7.075 -2.8380  1.0554 -0.5974
    4RES   H204 1470   4.900   1.484   6.978 -0.6331 -0.5181  1.3244
    4RES   H205 1471   4.615   1.452   7.072 -0.3313  1.6550 -1.6110
    4RES   H206 1472   4.644   1.362   6.930 -2.6258  1.3170  1.2399
    4RES   H207 1473   4.685   1.238   7.144  0.7218 -1.3736 -1.3797
    4RES   H208 1474   4.821   1.333   7.193  0.2891  0.1586  0.7481
    4RES   H209 1475   4.817   1.129   6.975 -2.6979  0.7488  1.6553
    4RES   H210 1476   4.954   1.186   7.081 -0.4046  0.4653  0.0717
    4RES   H211 1477   4.916   1.272   6.936 -1.8990  1.5290 -0.9550
    4RES   C212 1478   4.953   1.651   6.733 -0.5832  0.4423 -0.7108
    4RES   C213 1479   5.072   1.731   6.674 -0.0171 -0.0091  0.0279
    4RES   C214 1480   5.204   1.737   6.755 -0.4415 -0.4087  0.0950
    4RES   C215 1481   5.198   1.813   6.889  0.3360 -0.0736 -0.3132
    4RES   C216 1482   5.343   1.842   6.941  0.9700  0.3197  0.1527
    4RES   C217 1483   5.425   1.718   6.974 -0.2860  0.1842  0.6918
    4RES   C218 1484   5.564   1.753   7.029 -0.1799  0.4137  0.4331
    4RES   H219 1485   4.895   1.623   6.646  0.6276  0.7408 -1.6169
    4RES   H220 1486   4.996   1.573   6.796 -2.3093  0.7092  0.8790
    4RES   H221 1487   5.042   1.836   6.667 -1.1443 -0.3173  0.0530
    4RES   H222 1488   5.239   1.637   6.779 -1.2713 -1.3854 -2.5453
    4RES   H223 1489   5.287   1.759   6.687  0.6374  0.4294  1.6510
    4RES   H224 1490   5.138   1.758   6.962  1.1500 -1.5491 -0.7458
    4RES   H225 1491   5.144   1.907   6.877  0.3393 -0.0157  0.1227
    4RES   H226 1492   5.392   1.909   6.871 -1.2794  1.1645 -0.6718
    4RES   H227 1493   5.336   1.899   7.034  1.2536  1.8341 -0.7431
    4RES   H228 1494   5.371   1.662   7.050 -0.8145 -1.8552 -1.1414
    4RES   H229 1495   5.431   1.652   6.887 -0.8169  1.3218 -0.2120
    4RES   H230 1496   5.557   1.814   7.119 -1.8785  0.6047  0.1838
    4RES   H231 1497   5.629   1.801   6.956  0.3154 -0.5806  0.2101
    4RES   H232 1498   5.621   1.662   7.047  1.7374  1.5372  0.1104
    4RES   C233 1499   5.095   1.694   6.526 -0.3986  0.9065 -1.0413
    4RES   C234 1500   4.996   1.748   6.421  0.7648 -0.2269 -0.6396
    4RES   C235 1501   5.035   1.886   6.370 -0.9076 -1.0530 -1.0949
    4RES   C236 1502   5.141   1.898   6.258  0.1660 -0.4792  0.0931
    4RES   C237 1503   5.183   2.040   6.221  0.6587 -0.2760 -0.1852
    4RES   C238 1504   5.301   2.053   6.127  0.5476 -0.0875  0.5038
    4RES   C239 1505   5.369   2.190   6.149  0.1674  0.0253  0.2092
    4RES   H240 1506   5.091   1.585   6.528 -2.9697  0.9635  2.8788
    4RES   H241 1507   5.193   1.722   6.488  1.1946 -1.2387  1.3987
    4RES   H242 1508   4.900   1.756   6.472  1.0822 -1.6901  0.2292
    4RES   H243 1509   5.077   1.940   6.455 -0.0392 -1.7166 -1.0939
    4RES   H244 1510   4.941   1.937   6.348 -0.6196 -0.5593 -1.1748
    4RES   H245 1511   5.105   1.843   6.172 -0.1366  1.0349 -0.7737
    4RES   H246 1512   5.234   1.846   6.283  1.2977  0.7261 -1.5395
    4RES   H247 1513   5.203   2.087   6.316 -1.5400 -1.8458  1.1107
    4RES   H248 1514   5.096   2.081   6.169  1.0795  0.9312  0.0540
    4RES   H249 1515   5.369   1.971   6.150 -0.6830 -1.0859  0.6486
    4RES   H250 1516   5.271   2.048   6.022 -0.6432 -1.5385  0.8959
    4RES   H251 1517   5.301   2.274   6.145 -0.4793 -0.5072 -0.1109
    4RES   H252 1518   5.419   2.206   6.245 -0.9317 -0.6645  0.9147
    4RES   H253 1519   5.454   2.208   6.083  1.2062  1.4881  1.8948
    4RES   C254 1520   4.982   1.652   6.298 -0.1012  0.4254 -0.0262
    4RES   C255 1521   4.909   1.519   6.322  0.4739 -0.8743  1.1865
    4RES   C256 1522   5.002   1.401   6.300  0.2306 -0.3692 -0.1527
    4RES   C257 1523   4.941   1.260   6.294 -0.1828  0.1679  0.0791
    4RES   C258 1524   4.878   1.209   6.428 -0.5038  0.0819  0.0144
    4RES   C259 1525   4.999   1.189   6.525  0.2279 -0.1582 -0.3450
    4RES   C260 1526   4.974   1.112   6.656 -1.0209 -0.4390  0.2007
    4RES   H261 1527   5.084   1.625   6.270 -1.0666 -0.2048 -3.1561
    4RES   H262 1528   4.950   1.706   6.209  2.7390  2.1310 -0.0867
    4RES   H263 1529   4.881   1.510   6.427 -3.3085  2.8957  0.6290
    4RES   H264 1530   5.087   1.400   6.368 -0.5026 -0.6785  0.7733
    4RES   H265 1531   5.044   1.424   6.202 -1.2227  0.4378 -0.6052
    4RES   H266 1532   4.875   1.246   6.209 -0.6324  0.5940  0.3592
    4RES   H267 1533   5.021   1.198   6.252 -1.1022 -0.0584 -1.3648
    4RES   H268 1534   4.821   1.119   6.404 -1.0969  0.4405  0.0613
    4RES   H269 1535   4.799   1.267   6.476 -1.3228 -0.0296 -1.1743
    4RES   H270 1536   5.085   1.151   6.469  0.5427  1.5159 -1.0476
    4RES   H271 1537   5.036   1.289   6.545 -2.4156  0.7361  0.3125
    4RES   H272 1538   4.881   1.147   6.702  0.2556  2.3544  0.7667
    4RES   H273 1539   4.959   1.004   6.658 -0.8193 -0.4600  1.5610
    4RES   H274 1540   5.059   1.125   6.724 -0.6744  2.0217 -0.6543
    4RES   C275 1541   4.775   1.520   6.239  0.2082 -0.2577 -0.5117
    4RES   C276 1542   4.655   1.578   6.326 -0.0417  0.4619  0.1159
    4RES   C277 1543   4.608   1.480   6.435  0.1602  0.2112  0.1281
    4RES   C278 1544   4.516   1.534   6.541  0.2759 -0.2362 -0.0186
    4RES   C279 1545   4.457   1.427   6.636  0.8716  0.6066 -0.2882
    4RES   C280 1546   4.379   1.477   6.758 -0.8187  0.3663 -0.4270
    4RES   C281 1547   4.312   1.367   6.844  0.8055 -0.1471  0.0164
    4RES   H282 1548   4.759   1.420   6.199 -0.1094 -0.7561  0.8206
    4RES   H283 1549   4.793   1.587   6.155 -2.6015  1.6056  0.3242
    4RES   H284 1550   4.698   1.660   6.383 -2.8163  0.8707  1.7239
    4RES   H285 1551   4.550   1.401   6.386  2.0011 -0.7309 -0.5843
    4RES   H286 1552   4.691   1.441   6.493  0.5046  0.5660 -0.1241
    4RES   H287 1553   4.429   1.580   6.494 -0.5841  0.4403  2.1475
    4RES   H288 1554   4.566   1.610   6.603 -0.6980  0.9281 -0.6437
    4RES   H289 1555   4.549   1.383   6.672  0.4667 -0.6828 -0.7741
    4RES   H290 1556   4.399   1.353   6.580  0.1692  0.0649  1.1533
    4RES   H291 1557   4.447   1.525   6.828 -0.0590  0.3822 -1.1576
    4RES   H292 1558   4.306   1.554   6.730  1.4259  1.9305 -2.1966
    4RES   H293 1559   4.375   1.292   6.892  0.4597  1.1656  2.5658
    4RES   H294 1560   4.243   1.311   6.781 -0.1818 -1.2992  2.0616
    4RES   H295 1561   4.258   1.414   6.925 -1.9972 -2.5264 -0.3763
    4RES   C296 1562   4.538   1.630   6.232 -0.5893 -0.0922 -0.3381
    4RES   C297 1563   4.572   1.737   6.119 -0.5390  0.4153 -0.5611
    4RES   C298 1564   4.645   1.868   6.167 -0.5432  0.1470 -0.2243
    4RES   C299 1565   4.705   1.968   6.061  0.4175 -0.3735 -0.1468
    4RES   C300 1566   4.776   2.084   6.131 -0.2072  0.4928 -0.2255
    4RES   C301 1567   4.826   2.191   6.031 -0.4140 -0.1462 -0.2484
    4RES   C302 1568   4.892   2.306   6.109  0.4755  0.3958  0.0791
    4RES   H303 1569   4.491   1.547   6.180  0.0651 -1.3155  0.9782
    4RES   H304 1570   4.447   1.657   6.287 -1.0425 -0.1535 -1.0537
    4RES   H305 1571   4.640   1.697   6.044 -0.1920 -0.4439  0.2028
    4RES   H306 1572   4.587   1.917   6.246 -1.6633  2.0857 -2.1964
    4RES   H307 1573   4.729   1.835   6.228 -1.4095 -1.0307  0.3449
    4RES   H308 1574   4.640   2.010   5.986  1.8886  0.1482 -1.1502
    4RES   H309 1575   4.784   1.917   6.005 -0.2023 -1.0714 -0.3956
    4RES   H310 1576   4.870   2.052   6.177 -0.6483  0.7765  0.8880
    4RES   H311 1577   4.712   2.114   6.213  0.6487  0.7507  0.3560
    4RES   H312 1578   4.900   2.157   5.958  0.5326 -1.1024  1.1335
    4RES   H313 1579   4.745   2.234   5.972 -1.3370 -0.9393  0.4353
    4RES   H314 1580   4.814   2.367   6.156 -0.4669 -1.7247  1.3295
    4RES   H315 1581   4.967   2.262   6.175 -0.4846 -1.1711  0.1544
    4RES   H316 1582   4.944   2.374   6.042  2.1732 -2.2016 -1.3118
    4RES   C317 1583   4.447   1.778   6.034  0.4976  0.0622  0.3215
    4RES   C318 1584   4.348   1.658   5.994  0.3296 -0.8273 -0.1000
    4RES   C319 1585   4.216   1.699   5.927 -0.3438  0.0613  0.3000
    4RES   C320 1586   4.137   1.821   5.991  0.5630 -0.0073 -0.3495
    4RES   C321 1587   4.154   1.965   5.931  0.2618  0.1534  0.2786
    4RES   C322 1588   4.072   2.074   5.996 -0.0874 -0.3982 -0.3498
    4RES   C323 1589   4.086   2.082   6.149  0.2158  0.4343  0.4469
    4RES   H324 1590   4.476   1.836   5.946  1.6479 -0.0864  0.5853
    4RES   H325 1591   4.387   1.843   6.097  1.2923 -0.4096  1.5871
    4RES   H326 1592   4.312   1.616   6.088  0.4956 -2.0069 -0.5522
    4RES   H327 1593   4.151   1.613   5.938  0.2237 -0.8843 -3.1277
    4RES   H328 1594   4.223   1.721   5.821 -0.6276 -2.8755 -0.3654
    4RES   H329 1595   4.160   1.820   6.098  0.3725 -0.8485 -0.3145
    4RES   H330 1596   4.032   1.795   5.979  1.2679 -2.9748 -0.4453
    4RES   H331 1597   4.128   1.955   5.826  2.4056 -4.9289  0.0583
    4RES   H332 1598   4.255   2.000   5.913  1.4195 -3.2841 -0.3132
    4RES   H333 1599   3.969   2.079   5.961 -0.4623  0.7292  0.8592
    4RES   H334 1600   4.106   2.168   5.951 -0.8877 -0.1579 -0.4636
    4RES   H335 1601   4.191   2.107   6.158  0.0982  1.2117 -0.3232
    4RES   H336 1602   4.046   1.992   6.197 -1.5693  0.6530 -0.5918
    4RES   H337 1603   4.034   2.166   6.196 -0.1378  1.2435 -1.3618
    4RES   C338 1604   4.418   1.555   5.908  0.5434  0.0428 -0.3671
    4RES   C339 1605   4.346   1.416   5.893 -0.7108  0.6887 -0.7695
    4RES   C340 1606   4.334   1.328   6.027 -0.2412 -0.3039 -0.1097
    4RES   C341 1607   4.455   1.250   6.068 -0.8587  0.9597 -0.1137
    4RES   C342 1608   4.428   1.168   6.195  0.2817  0.0192  0.1989
    4RES   C343 1609   4.548   1.077   6.232 -0.0869 -0.8887  0.0220
    4RES   C344 1610   4.530   1.004   6.363 -0.0719  0.6121 -0.1339
    4RES   H345 1611   4.515   1.538   5.956 -0.2078  0.3772  1.2959
    4RES   H346 1612   4.434   1.607   5.814 -1.6007 -0.9779 -1.3465
    4RES   H347 1613   4.246   1.443   5.861 -0.3985  1.8265 -0.7983
    4RES   H348 1614   4.298   1.392   6.107  0.5214  0.8732 -0.6852
    4RES   H349 1615   4.257   1.251   6.022 -0.0143 -0.4294 -2.2552
    4RES   H350 1616   4.530   1.328   6.085  0.4684 -0.3184 -0.0311
    4RES   H351 1617   4.478   1.195   5.977  0.2117 -1.5662  1.6255
    4RES   H352 1618   4.404   1.229   6.282  1.2549  2.5238 -1.2471
    4RES   H353 1619   4.334   1.117   6.174 -0.2442  0.6860  0.9249
    4RES   H354 1620   4.567   1.012   6.147 -0.6403 -0.5627 -0.3523
    4RES   H355 1621   4.631   1.147   6.241  2.2577 -3.5763  0.0027
    4RES   H356 1622   4.474   0.912   6.349  0.3279  0.6542 -2.1990
    4RES   H357 1623   4.481   1.069   6.436  0.0395  0.2625  0.2513
    4RES   H358 1624   4.624   0.970   6.405 -1.2164 -3.2038 -0.4658
    4RES   C359 1625   4.397   1.338   5.765  0.3037  0.5563  0.1366
    4RES   C360 1626   4.332   1.401   5.630 -0.6944 -0.4302  0.3483
    4RES   C361 1627   4.424   1.375   5.513  0.5976  0.0880 -0.2788
    4RES   C362 1628   4.544   1.457   5.493 -0.2544 -0.0135 -0.8032
    4RES   C363 1629   4.606   1.422   5.361 -0.0891  0.0751  0.3763
    4RES   C364 1630   4.724   1.517   5.325  0.2152  0.2273 -0.6635
    4RES   C365 1631   4.745   1.532   5.180  0.5594  0.1979 -0.2275
    4RES   H366 1632   4.369   1.233   5.770 -2.3182  1.2047 -0.3864
    4RES   H367 1633   4.506   1.344   5.764  0.2333  2.1796  0.1472
    4RES   H368 1634   4.316   1.509   5.640 -1.2555 -0.6732  2.1830
    4RES   H369 1635   4.459   1.276   5.541  0.8125  0.1649 -0.2755
    4RES   H370 1636   4.362   1.362   5.424  0.1293  0.3154  0.0072
    4RES   H371 1637   4.510   1.561   5.486 -0.2749 -0.1001 -2.1085
    4RES   H372 1638   4.611   1.454   5.578 -0.7022 -2.1170 -0.5136
    4RES   H373 1639   4.636   1.317   5.353 -0.9055 -0.1805  0.6197
    4RES   H374 1640   4.527   1.429   5.287 -1.2389  2.1811  1.7676
    4RES   H375 1641   4.694   1.611   5.371  1.9906  0.7164 -0.4586
    4RES   H376 1642   4.812   1.490   5.384 -0.0756  0.8238  0.0477
    4RES   H377 1643   4.647   1.555   5.138  0.3967  0.9307  0.5351
    4RES   H378 1644   4.823   1.607   5.162  0.9678 -0.1963 -0.1180
    4RES   H379 1645   4.784   1.441   5.135 -0.1647  0.6374 -1.7708
    4RES   C380 1646   4.188   1.356   5.605  0.4093 -0.1546  0.1735
    4RES   C381 1647   4.083   1.464   5.585  0.2352  0.2099 -0.0305
    4RES   C382 1648   4.097   1.537   5.445 -0.0217 -0.2236 -0.3765
    4RES   C383 1649   4.049   1.690   5.438  0.1360 -0.2967  0.4779
    4RES   C384 1650   4.119   1.763   5.323  0.2994 -0.5540  0.5672
    4RES   C385 1651   4.053   1.901   5.297 -0.3252 -0.4884  0.2663
    4RES   C386 1652   3.921   1.896   5.222  0.1006 -0.0745 -0.6876
    4RES   H387 1653   4.174   1.278   5.530  0.2990  0.6394 -0.6228
    4RES   H388 1654   4.172   1.297   5.696 -1.4260  1.5192  0.9591
    4RES   H389 1655   4.100   1.545   5.656  0.6754  0.2594 -0.1889
    4RES   H390 1656   4.043   1.486   5.365 -0.0082  0.8881 -1.0959
    4RES   H391 1657   4.201   1.526   5.414 -0.3960 -1.0585 -1.3449
    4RES   H392 1658   3.941   1.697   5.436  0.0970 -1.1946 -1.3705
    4RES   H393 1659   4.084   1.748   5.524 -1.4716  1.7899 -0.2253
    4RES   H394 1660   4.222   1.779   5.355  1.0752 -0.4076 -1.8782
    4RES   H395 1661   4.119   1.705   5.231 -0.4051  2.0062 -1.1027
    4RES   H396 1662   4.122   1.954   5.231  0.6229 -1.1048  0.7531
    4RES   H397 1663   4.043   1.955   5.391 -1.2045  1.0134 -0.6545
    4RES   H398 1664   3.854   1.844   5.291 -0.5390  1.6477  0.0134
    4RES   H399 1665   3.918   1.840   5.129  0.2703 -3.3355  1.1734
    4RES   H400 1666   3.884   1.998   5.215  0.8669  0.1907 -0.9285
    4RES   C401 1667   3.938   1.416   5.609 -0.2583  0.2803 -0.0135
    4RES   C402 1668   3.912   1.374   5.759 -0.2314  0.4023  0.4368
    4RES   C403 1669   3.759   1.343   5.785  0.0428 -0.0506 -1.0076
    4RES   C404 1670   3.745   1.307   5.928 -0.3466  0.5627 -0.2037
    4RES   C405 1671   3.601   1.315   5.978  0.2667  0.3434  0.3786
    4RES   C406 1672   3.583   1.274   6.127  0.4507  0.3320 -0.4780
    4RES   C407 1673   3.439   1.279   6.188 -0.4715  0.2987 -0.1876
    4RES   H408 1674   3.908   1.342   5.535  0.9681 -0.3928  0.1419
    4RES   H409 1675   3.870   1.498   5.587 -0.0733  0.8177  1.3397
    4RES   H410 1676   3.948   1.453   5.826 -0.2006  2.1011 -1.5318
    4RES   H411 1677   3.732   1.271   5.707  0.0129  0.6375 -1.6404
    4RES   H412 1678   3.709   1.433   5.751 -1.4663 -0.4585  0.0787
    4RES   H413 1679   3.816   1.361   5.991  0.7622 -1.1401  0.0293
    4RES   H414 1680   3.773   1.203   5.947 -0.5920  0.5177 -0.0902
    4RES   H415 1681   3.566   1.418   5.967 -2.8274 -0.6763  0.3326
    4RES   H416 1682   3.539   1.249   5.918  0.6386 -0.7721  1.1999
    4RES   H417 1683   3.627   1.179   6.158 -1.7541 -0.8167 -0.7655
    4RES   H418 1684   3.631   1.351   6.188  2.1251  0.2069 -1.6155
    4RES   H419 1685   3.386   1.374   6.181 -1.1493  0.1058  2.0046
    4RES   H420 1686   3.441   1.253   6.294  0.0270  2.8199  0.4584
    4RES   H421 1687   3.381   1.200   6.140  0.9101 -1.9795  1.7744
    4RES   H422 1688   3.977   1.290   5.786  2.4564  2.3792  0.3168
    5RES     C1 1689   4.636   4.833   6.246 -0.1307  0.1068 -0.2316
    5RES     C2 1690   4.600   4.676   6.236  0.2316 -0.5615  0.0952
    5RES     C3 1691   4.477   4.658   6.148  0.5140 -0.2908  1.1316
    5RES     C4 1692   4.420   4.512   6.129 -0.2437  0.2263  0.2469
    5RES     C5 1693   4.286   4.501   6.048  0.0153  0.5723  0.1267
    5RES     C6 1694   4.249   4.364   6.010 -0.2581  0.5854  0.1290
    5RES     C7 1695   4.116   4.369   5.934 -0.2917 -0.5667 -0.0648
    5RES     H8 1696   4.564   4.879   6.314  1.0946 -0.2256  1.3295
    5RES     H9 1697   4.645   4.885   6.151  0.8094  0.2836 -0.0488
    5RES    H10 1698   4.675   4.618   6.182 -0.1808 -0.3716 -0.6992
    5RES    H11 1699   4.399   4.715   6.197  0.9373  1.8258 -0.5830
    5RES    H12 1700   4.494   4.710   6.054  1.3197 -0.6251  1.0859
    5RES    H13 1701   4.502   4.452   6.091  0.8529  1.1465  1.1086
    5RES    H14 1702   4.393   4.477   6.229  0.8351  0.0520  0.4824
    5RES    H15 1703   4.283   4.562   5.958  1.2811 -0.1476 -0.4137
    5RES    H16 1704   4.204   4.546   6.105 -0.4619 -1.7652  1.3482
    5RES    H17 1705   4.236   4.304   6.100  1.2331  2.0555  1.3632
    5RES    H18 1706   4.329   4.331   5.944  1.8264  2.0526  1.8590
    5RES    H19 1707   4.121   4.426   5.842  1.6414 -1.9293 -0.8269
    5RES    H20 1708   4.043   4.423   5.994  0.7223  0.7551 -0.0005
    5RES    H21 1709   4.092   4.266   5.907 -3.4390 -0.0590  0.5733
    5RES    H22 1710   4.733   4.834   6.295  1.1030 -0.7771 -2.6065
    5RES    C23 1711   4.591   4.612   6.375  0.2814  0.1850 -0.8026
    5RES    C24 1712   4.650   4.470   6.388  0.5407  0.2665 -0.0513
    5RES    C25 1713   4.586   4.380   6.508 -0.5395 -0.5217 -0.3795
    5RES    C26 1714   4.431   4.359   6.498  0.1222  0.2824  0.6202
    5RES    C27 1715   4.374   4.310   6.628  0.4775 -0.2412  0.0114
    5RES    C28 1716   4.228   4.278   6.623 -0.2395 -0.4634 -0.2371
    5RES    C29 1717   4.139   4.402   6.633  0.3043 -0.1549  0.6288
    5RES    H30 1718   4.631   4.678   6.452 -1.4328  2.3322 -1.7221
    5RES    H31 1719   4.485   4.613   6.396  0.1758 -3.4306 -0.8502
    5RES    H32 1720   4.631   4.417   6.294 -2.8903  1.9419 -0.3974
    5RES    H33 1721   4.607   4.425   6.605 -1.5730 -0.4506 -0.1826
    5RES    H34 1722   4.631   4.281   6.506 -0.9889 -0.7584  0.6582
    5RES    H35 1723   4.411   4.286   6.420  3.4567  2.1391 -2.1455
    5RES    H36 1724   4.377   4.445   6.459 -2.0806 -1.7198 -0.8363
    5RES    H37 1725   4.386   4.392   6.699  1.9838  1.0599 -1.6894
    5RES    H38 1726   4.428   4.223   6.667  2.1842 -0.2976 -2.3919
    5RES    H39 1727   4.204   4.202   6.698  0.3021 -0.8329 -0.4370
    5RES    H40 1728   4.201   4.240   6.524  0.0635 -0.5569 -0.2838
    5RES    H41 1729   4.033   4.382   6.652 -0.1172  1.4584  0.0635
    5RES    H42 1730   4.172   4.451   6.724 -0.5669 -0.5090  1.1472
    5RES    H43 1731   4.152   4.457   6.540  1.1838 -1.7552 -0.2182
    5RES    C44 1732   4.806   4.474   6.410  0.2279 -0.3772  0.0836
    5RES    C45 1733   4.904   4.445   6.292 -0.4479  0.4495  0.0032
    5RES    C46 1734   5.046   4.493   6.338  0.3064  0.1101  0.3969
    5RES    C47 1735   5.095   4.625   6.276  0.0063 -0.0492 -0.0343
    5RES    C48 1736   5.138   4.627   6.132 -0.2084 -0.5666  0.1446
    5RES    C49 1737   5.195   4.766   6.088 -0.2038 -0.3519 -0.1728
    5RES    C50 1738   5.294   4.756   5.976  0.3692  0.1264 -0.4183
    5RES    H51 1739   4.826   4.406   6.492 -2.2286 -0.0648  0.9657
    5RES    H52 1740   4.837   4.572   6.448 -1.2650  0.2056 -0.1856
    5RES    H53 1741   4.877   4.494   6.199  2.5683  0.1605 -1.0613
    5RES    H54 1742   5.122   4.424   6.300 -1.1752 -0.6248 -1.2764
    5RES    H55 1743   5.067   4.501   6.445 -0.4533  0.9074  0.4837
    5RES    H56 1744   5.022   4.702   6.300  1.1216  0.9922  0.0659
    5RES    H57 1745   5.174   4.666   6.339 -0.3816  0.8639 -0.1342
    5RES    H58 1746   5.048   4.604   6.076  0.6120  0.2857 -1.5527
    5RES    H59 1747   5.214   4.549   6.122 -1.3160 -2.0020  2.2368
    5RES    H60 1748   5.260   4.816   6.160 -1.2444  0.4641  0.2235
    5RES    H61 1749   5.117   4.837   6.061  1.6497  2.7456  2.2758
    5RES    H62 1750   5.323   4.859   5.954  1.7601 -0.1978 -0.1967
    5RES    H63 1751   5.263   4.721   5.877  0.0771 -1.3008  0.1672
    5RES    H64 1752   5.383   4.705   6.014 -0.0118 -0.3683 -0.1854
    5RES    C65 1753   4.893   4.293   6.253 -0.2987  0.1082 -0.5108
    5RES    C66 1754   4.963   4.238   6.123  0.5115 -0.1566 -0.0381
    5RES    C67 1755   4.864   4.245   6.005  0.7283 -0.4682  0.0311
    5RES    C68 1756   4.733   4.172   6.012  0.1386  0.0381  0.6709
    5RES    C69 1757   4.663   4.135   5.885  0.3317  0.6515  0.4611
    5RES    C70 1758   4.527   4.067   5.904 -0.2172 -0.0006  0.0159
    5RES    C71 1759   4.442   4.049   5.776  0.3237 -0.7707 -0.0105
    5RES    H72 1760   4.928   4.246   6.345 -0.8035  0.1938 -0.2709
    5RES    H73 1761   4.785   4.275   6.257 -0.0915 -0.9539  0.6662
    5RES    H74 1762   5.046   4.304   6.097  2.3620 -2.0942  0.7586
    5RES    H75 1763   4.854   4.353   6.004  0.2676 -0.5116 -2.1465
    5RES    H76 1764   4.915   4.237   5.909 -0.3245 -1.6593 -0.4355
    5RES    H77 1765   4.759   4.075   6.055  0.2643 -0.3313 -0.2270
    5RES    H78 1766   4.660   4.219   6.079 -1.1107  1.3309 -1.5560
    5RES    H79 1767   4.647   4.228   5.831  0.3490  0.5663  0.3094
    5RES    H80 1768   4.720   4.064   5.825 -1.5214 -1.0255  0.6414
    5RES    H81 1769   4.464   4.120   5.976  0.4287 -0.9622  1.3053
    5RES    H82 1770   4.531   3.974   5.961  2.1854 -0.1000 -0.2907
    5RES    H83 1771   4.453   3.945   5.745 -2.6753 -0.5804 -1.9364
    5RES    H84 1772   4.335   4.060   5.792  0.0893  1.9103 -2.9500
    5RES    H85 1773   4.481   4.102   5.689  0.1689 -0.7124 -0.0446
    5RES    C86 1774   5.039   4.103   6.140 -0.2742 -0.1845  0.4126
    5RES    C87 1775   5.120   4.056   6.026 -0.6970  0.3920  0.8092
    5RES    C88 1776   5.214   4.154   5.961  0.1413  0.2028 -0.0267
    5RES    C89 1777   5.315   4.224   6.062  0.3116  0.2379 -0.4727
    5RES    C90 1778   5.405   4.340   6.005 -0.1574 -0.0432  0.7722
    5RES    C91 1779   5.526   4.284   5.938 -0.5975 -0.2669 -0.5912
    5RES    C92 1780   5.612   4.203   6.031 -1.6347 -0.4287  0.1448
    5RES    H93 1781   5.101   4.117   6.229 -2.4156  0.9509  1.7452
    5RES    H94 1782   4.974   4.022   6.174  1.0489 -2.6998 -2.7711
    5RES    H95 1783   5.046   4.024   5.953 -0.2625  0.0142  0.5374
    5RES    H96 1784   5.269   4.089   5.893 -1.8964 -0.5161 -1.0425
    5RES    H97 1785   5.159   4.232   5.909  1.3828 -0.1187 -1.8620
    5RES    H98 1786   5.256   4.271   6.141 -2.1250 -0.0429 -2.0593
    5RES    H99 1787   5.368   4.154   6.127  0.3941  0.4799 -0.2798
    5RES   H100 1788   5.439   4.401   6.088  1.3148  1.5283 -0.9286
    5RES   H101 1789   5.350   4.405   5.937 -1.7696 -1.1593  0.9829
    5RES   H102 1790   5.489   4.220   5.857 -1.4421 -1.1805  0.5004
    5RES   H103 1791   5.586   4.361   5.888  2.4254 -0.8410  1.9962
    5RES   H104 1792   5.561   4.120   6.082  0.1915 -3.0951 -2.1804
    5RES   H105 1793   5.658   4.275   6.098 -2.4486  1.0622 -0.8811
    5RES   H106 1794   5.699   4.155   5.988 -1.8709 -1.3787  0.6894
    5RES   C107 1795   5.180   3.921   6.051  0.3766 -0.3329 -0.6723
    5RES   C108 1796   5.094   3.797   6.099  0.1446 -0.3176  0.1054
    5RES   C109 1797   4.995   3.749   5.987  0.5878  0.4279  0.8703
    5RES   C110 1798   4.844   3.734   6.029  0.3578 -0.1978  0.8672
    5RES   C111 1799   4.757   3.692   5.915  0.1674 -0.5951 -0.3463
    5RES   C112 1800   4.617   3.633   5.962 -0.2634  0.7296 -0.0065
    5RES   C113 1801   4.511   3.600   5.858 -0.1295  0.4560  0.3145
    5RES   H114 1802   5.257   3.940   6.125 -2.3576 -1.8167  2.7160
    5RES   H115 1803   5.229   3.895   5.957 -1.6537  1.1268 -2.1649
    5RES   H116 1804   5.044   3.828   6.191 -0.1711 -0.5791  0.0224
    5RES   H117 1805   5.030   3.652   5.953 -2.1444 -0.8202  1.5189
    5RES   H118 1806   4.999   3.812   5.898  0.9204  1.6532  1.7315
    5RES   H119 1807   4.841   3.646   6.093  0.1327 -0.5084  0.4336
    5RES   H120 1808   4.794   3.815   6.082  0.0482 -0.2791  0.6981
    5RES   H121 1809   4.822   3.620   5.865 -2.0636 -2.9361  0.0153
    5RES   H122 1810   4.742   3.773   5.844  1.0139 -0.6971 -0.6449
    5RES   H123 1811   4.640   3.549   6.028 -1.4885  0.5823  0.2463
    5RES   H124 1812   4.568   3.698   6.034  1.1281  1.6125  0.1652
    5RES   H125 1813   4.415   3.601   5.910 -0.2255 -1.6809  0.2325
    5RES   H126 1814   4.515   3.659   5.766  0.1707 -0.0952 -0.0276
    5RES   H127 1815   4.527   3.503   5.811  1.7173  0.8875 -0.0022
    5RES   C128 1816   5.186   3.682   6.151  0.4916  0.5099  0.1331
    5RES   C129 1817   5.105   3.560   6.216  0.3428  0.5091 -0.3511
    5RES   C130 1818   5.075   3.596   6.363 -0.9709 -0.2682 -0.4828
    5RES   C131 1819   5.201   3.619   6.455 -0.4483 -0.5363  0.3143
    5RES   C132 1820   5.160   3.623   6.604  0.1970 -0.5993  0.0313
    5RES   C133 1821   5.273   3.651   6.708 -0.2748  1.5144  0.0513
    5RES   C134 1822   5.202   3.652   6.847 -0.8209  0.0098  0.3962
    5RES   H135 1823   5.240   3.640   6.066  0.2686  0.5365 -0.0250
    5RES   H136 1824   5.259   3.724   6.219 -0.3017 -0.4066  1.5818
    5RES   H137 1825   5.006   3.546   6.170 -0.7769 -0.2365  2.2136
    5RES   H138 1826   5.000   3.537   6.416  0.4366  0.6829  2.6353
    5RES   H139 1827   5.023   3.691   6.354  1.5427  0.9613 -2.6200
    5RES   H140 1828   5.262   3.704   6.425 -2.3540  1.2145  1.3164
    5RES   H141 1829   5.262   3.531   6.434  1.9218  1.2335 -0.4727
    5RES   H142 1830   5.104   3.532   6.627  2.1150 -2.0443 -0.8114
    5RES   H143 1831   5.083   3.699   6.616 -0.5375 -1.6363  2.1999
    5RES   H144 1832   5.323   3.745   6.685  0.6443  1.1197  0.4133
    5RES   H145 1833   5.353   3.577   6.709 -1.5830  0.0445 -0.0807
    5RES   H146 1834   5.146   3.561   6.868  2.7774 -1.9097  2.0387
    5RES   H147 1835   5.130   3.733   6.864 -2.3036 -1.4461  1.1955
    5RES   H148 1836   5.267   3.655   6.934 -0.8210  1.7622  0.3537
    5RES   C149 1837   5.169   3.424   6.204  0.1612 -0.6940 -0.1672
    5RES   C150 1838   5.179   3.351   6.061 -0.1910 -0.1441 -0.3212
    5RES   C151 1839   5.030   3.304   6.033  0.2507  0.4910 -1.0107
    5RES   C152 1840   4.991   3.281   5.888 -0.4131  0.7688 -0.4745
    5RES   C153 1841   4.850   3.225   5.869 -0.1174  0.1394 -0.2068
    5RES   C154 1842   4.837   3.197   5.722 -0.3942 -0.3339  0.9229
    5RES   C155 1843   4.796   3.319   5.646  0.9662 -0.4738  0.2107
    5RES   H156 1844   5.271   3.431   6.241  0.0885 -1.4793  0.1936
    5RES   H157 1845   5.128   3.364   6.285 -1.1574  1.8198  1.0656
    5RES   H158 1846   5.203   3.419   5.979  2.8074 -1.2370 -0.4032
    5RES   H159 1847   5.024   3.212   6.091 -2.8606  0.5711 -1.0968
    5RES   H160 1848   4.951   3.360   6.083  1.1099 -0.0656  1.0115
    5RES   H161 1849   5.064   3.217   5.839 -1.4571 -1.5120  0.8941
    5RES   H162 1850   5.003   3.377   5.836  2.4737 -0.6156 -2.4898
    5RES   H163 1851   4.778   3.302   5.895 -0.2843 -0.3288  0.7367
    5RES   H164 1852   4.823   3.142   5.935  1.3294  0.1905  0.4711
    5RES   H165 1853   4.758   3.125   5.702  1.6208 -2.0433 -1.3448
    5RES   H166 1854   4.926   3.146   5.685 -0.2326 -0.6152  1.6890
    5RES   H167 1855   4.769   3.305   5.541  0.2678 -0.3831  0.3777
    5RES   H168 1856   4.865   3.401   5.658 -0.6358  1.1913 -1.5839
    5RES   H169 1857   4.702   3.352   5.689  1.1736 -0.5467  0.7191
    5RES   C170 1858   5.276   3.234   6.056  0.6805  0.3338 -0.3689
    5RES   C171 1859   5.425   3.257   6.054 -0.2142 -0.5162  0.5397
    5RES   C172 1860   5.511   3.128   6.069 -0.5104  0.1034  0.3847
    5RES   C173 1861   5.656   3.162   6.100  0.4077  0.4056  0.5509
    5RES   C174 1862   5.732   3.026   6.144  0.3143  0.4262  0.9167
    5RES   C175 1863   5.876   3.063   6.188 -0.4446  0.7955 -0.2473
    5RES   C176 1864   5.926   2.954   6.286  0.1453 -0.2133 -0.3261
    5RES   H177 1865   5.259   3.171   5.968  0.3953 -0.0948 -0.0147
    5RES   H178 1866   5.259   3.178   6.148  1.4554 -1.0639 -1.0504
    5RES   H179 1867   5.448   3.314   6.144 -3.8717 -0.1813  1.3160
    5RES   H180 1868   5.504   3.056   5.988  0.3018  0.0677  0.3395
    5RES   H181 1869   5.467   3.066   6.147  0.4935 -1.8190 -0.5587
    5RES   H182 1870   5.666   3.235   6.180 -1.4227  2.6691 -1.2009
    5RES   H183 1871   5.710   3.211   6.018  0.2580 -0.2514  0.0571
    5RES   H184 1872   5.725   2.954   6.063 -3.0730  2.4684 -0.6896
    5RES   H185 1873   5.662   2.990   6.219 -0.5651  1.0133  0.3849
    5RES   H186 1874   5.882   3.158   6.242 -1.7816  0.6165  0.2257
    5RES   H187 1875   5.943   3.064   6.102  2.4184 -1.3287  1.8625
    5RES   H188 1876   6.013   2.978   6.347  0.3796 -1.3887 -0.1972
    5RES   H189 1877   5.945   2.860   6.235 -1.1141 -2.5455  3.3483
    5RES   H190 1878   5.849   2.940   6.362  0.5682 -2.8423 -0.3398
    5RES   C191 1879   5.462   3.353   5.938  0.0299 -0.7175 -0.5068
    5RES   C192 1880   5.430   3.319   5.796  0.4570  0.1061  0.6571
    5RES   C193 1881   5.400   3.439   5.698  0.4954 -0.7187  0.7883
    5RES   C194 1882   5.255   3.464   5.653  0.5424  0.6933  0.5372
    5RES   C195 1883   5.236   3.581   5.550  0.0226  0.4665 -0.5816
    5RES   C196 1884   5.302   3.559   5.408 -0.0279 -0.2501 -0.9724
    5RES   C197 1885   5.285   3.675   5.315  0.1592  0.0210  0.3626
    5RES   H198 1886   5.566   3.384   5.949 -0.3269  0.1286  0.5268
    5RES   H199 1887   5.408   3.441   5.972  0.2467 -0.4083 -0.9485
    5RES   H200 1888   5.336   3.264   5.793 -1.3008  3.0819 -0.4320
    5RES   H201 1889   5.451   3.425   5.603  0.5315 -0.4463  0.7681
    5RES   H202 1890   5.437   3.529   5.746  0.3435 -1.3720  2.1582
    5RES   H203 1891   5.213   3.477   5.753  2.2797  1.7820  1.1519
    5RES   H204 1892   5.202   3.379   5.609  3.8355 -0.3846 -1.4997
    5RES   H205 1893   5.130   3.605   5.536  0.2323  1.0081 -1.2467
    5RES   H206 1894   5.278   3.676   5.583  0.1862 -0.0200  0.6474
    5RES   H207 1895   5.259   3.472   5.358  0.7756 -1.0474 -0.2779
    5RES   H208 1896   5.409   3.544   5.411 -0.1509 -0.7003  2.0442
    5RES   H209 1897   5.186   3.720   5.315 -0.5408 -1.4670 -1.0785
    5RES   H210 1898   5.316   3.647   5.215 -0.6095 -0.9450  0.3896
    5RES   H211 1899   5.353   3.759   5.329 -0.9269  1.3386 -1.9882
    5RES   C212 1900   5.530   3.226   5.735 -0.4179  0.8105  0.3963
    5RES   C213 1901   5.463   3.122   5.642  0.1015  0.5788  0.5375
    5RES   C214 1902   5.547   3.089   5.513  0.3904 -0.5956 -0.1865
    5RES   C215 1903   5.563   3.211   5.420 -0.2695  0.4894 -1.1269
    5RES   C216 1904   5.612   3.177   5.277  0.4495  0.1028 -0.8651
    5RES   C217 1905   5.605   3.291   5.174 -0.2711  0.9466 -0.6507
    5RES   C218 1906   5.465   3.309   5.129  0.0793 -0.0098  1.6445
    5RES   H219 1907   5.578   3.174   5.818 -1.2226 -0.0076  0.3483
    5RES   H220 1908   5.604   3.285   5.680  1.0124 -1.9125 -0.7169
    5RES   H221 1909   5.380   3.176   5.596 -0.6598 -2.1570 -1.4208
    5RES   H222 1910   5.642   3.040   5.535  0.0887 -1.9177 -1.7466
    5RES   H223 1911   5.486   3.019   5.457 -0.7950  0.0785  0.2437
    5RES   H224 1912   5.623   3.288   5.468  1.4125 -1.3611 -0.1942
    5RES   H225 1913   5.462   3.252   5.413 -0.3623  0.7637  1.3518
    5RES   H226 1914   5.714   3.140   5.286  0.9147  1.6621  0.5213
    5RES   H227 1915   5.563   3.095   5.225 -0.0301 -1.6323  2.2222
    5RES   H228 1916   5.636   3.390   5.208 -1.0439  1.4976 -1.5419
    5RES   H229 1917   5.673   3.259   5.095  1.0777 -1.8305  1.5158
    5RES   H230 1918   5.402   3.220   5.125 -0.2775  0.2418  1.6408
    5RES   H231 1919   5.471   3.370   5.039  1.3771 -3.3680 -0.6801
    5RES   H232 1920   5.417   3.382   5.194 -4.9602 -0.2534 -1.4723
    5RES   C233 1921   5.412   2.993   5.713  0.1469  1.0662 -0.1414
    5RES   C234 1922   5.306   2.902   5.638 -0.6075 -0.3881  0.4425
    5RES   C235 1923   5.284   2.768   5.716 -0.5255  0.4835  0.2189
    5RES   C236 1924   5.269   2.784   5.872 -0.2024  0.8166 -0.0164
    5RES   C237 1925   5.248   2.662   5.949 -0.4669  0.4538 -0.1200
    5RES   C238 1926   5.223   2.665   6.104  0.2144 -1.4644 -0.0474
    5RES   C239 1927   5.084   2.722   6.149 -0.3078 -0.9408 -0.2203
    5RES   H240 1928   5.363   3.013   5.809  0.0488  0.4140 -0.0500
    5RES   H241 1929   5.499   2.936   5.744 -0.9736 -0.4913  0.2287
    5RES   H242 1930   5.355   2.879   5.543  0.1797  0.0200  0.7441
    5RES   H243 1931   5.373   2.706   5.704 -1.4858 -0.7659 -0.6898
    5RES   H244 1932   5.206   2.711   5.665  0.7634 -0.0944 -1.1598
    5RES   H245 1933   5.187   2.852   5.894 -0.7307 -0.0505  0.7024
    5RES   H246 1934   5.357   2.825   5.923  0.3646 -0.6991  0.2407
    5RES   H247 1935   5.333   2.600   5.918  1.2059  2.1203  1.0246
    5RES   H248 1936   5.166   2.607   5.903 -0.4624  0.4349 -0.1052
    5RES   H249 1937   5.236   2.564   6.143 -1.5117 -1.4940  0.5084
    5RES   H250 1938   5.302   2.718   6.156 -2.9479  0.3284  3.1925
    5RES   H251 1939   5.008   2.658   6.104  0.1736  0.1852 -2.6801
    5RES   H252 1940   5.072   2.714   6.257  0.1534 -0.1821 -0.1046
    5RES   H253 1941   5.069   2.825   6.118  1.7996  0.2583  2.5750
    5RES   C254 1942   5.169   2.982   5.604  0.0124 -0.2879 -0.3369
    5RES   C255 1943   5.144   3.017   5.456  0.4877 -0.1197  0.6202
    5RES   C256 1944   5.048   3.134   5.435  0.1920 -0.4279 -0.3903
    5RES   C257 1945   5.058   3.201   5.294  0.2046  0.7046 -0.4882
    5RES   C258 1946   4.948   3.304   5.261  0.0232 -0.5609 -0.0878
    5RES   C259 1947   4.996   3.399   5.151  0.1017 -0.7979  0.4020
    5RES   C260 1948   5.016   3.332   5.006  0.9074  0.0479 -0.1055
    5RES   H261 1949   5.167   3.070   5.669 -0.8140 -0.1848 -0.4965
    5RES   H262 1950   5.086   2.920   5.637  0.2471  0.2578  1.3179
    5RES   H263 1951   5.234   3.055   5.408 -0.6451  0.5979 -0.9548
    5RES   H264 1952   5.076   3.213   5.504  0.6396 -0.4843 -0.5008
    5RES   H265 1953   4.946   3.105   5.456  0.4907  0.2692  2.1348
    5RES   H266 1954   5.148   3.263   5.302  0.8446 -0.5049  2.5000
    5RES   H267 1955   5.068   3.130   5.212  2.2713  1.3336 -0.8218
    5RES   H268 1956   4.922   3.365   5.348 -1.7080 -1.5277  0.0888
    5RES   H269 1957   4.855   3.254   5.236  0.0543 -1.2299  1.0757
    5RES   H270 1958   4.919   3.475   5.135 -0.2168 -0.8498  1.6611
    5RES   H271 1959   5.088   3.449   5.181 -0.5885 -0.0293  1.2673
    5RES   H272 1960   5.052   3.407   4.934  0.8891 -0.1150 -0.2840
    5RES   H273 1961   5.082   3.246   5.006  0.4360 -0.3148 -0.5951
    5RES   H274 1962   4.924   3.289   4.967  1.1691 -2.6569  2.0855
    5RES   C275 1963   5.079   2.891   5.388 -1.2292  0.6135 -0.5298
    5RES   C276 1964   5.181   2.792   5.321 -0.4048 -0.0272 -0.2939
    5RES   C277 1965   5.234   2.858   5.184 -0.2888 -0.1813  0.3081
    5RES   C278 1966   5.383   2.836   5.149  0.4059 -0.2176  0.4116
    5RES   C279 1967   5.400   2.878   5.001  0.1068 -0.1966 -0.0534
    5RES   C280 1968   5.539   2.879   4.945  0.4197 -0.5694  0.6463
    5RES   C281 1969   5.607   2.740   4.937 -0.1398  0.2915 -0.1026
    5RES   H282 1970   5.011   2.934   5.314 -0.6642  1.2571 -0.6732
    5RES   H283 1971   5.028   2.831   5.464  1.9557  0.9951  1.9977
    5RES   H284 1972   5.268   2.778   5.384 -1.2312 -3.2702  0.1953
    5RES   H285 1973   5.175   2.813   5.105 -1.1982  3.2279 -1.0063
    5RES   H286 1974   5.216   2.965   5.176 -0.6302 -0.3828 -1.8485
    5RES   H287 1975   5.407   2.730   5.152 -2.9935 -1.0057  1.6612
    5RES   H288 1976   5.455   2.890   5.210  1.1593  0.2481 -0.8693
    5RES   H289 1977   5.362   2.980   4.987 -0.3384 -0.3832 -0.2288
    5RES   H290 1978   5.352   2.816   4.925 -0.4447 -2.2119  1.9260
    5RES   H291 1979   5.531   2.931   4.849  0.3082  0.8102  1.3893
    5RES   H292 1980   5.605   2.949   4.996 -0.4297  1.2188 -0.6585
    5RES   H293 1981   5.557   2.664   4.877  0.4217 -0.3367  0.2180
    5RES   H294 1982   5.624   2.695   5.035  0.1855  1.7127  0.5077
    5RES   H295 1983   5.709   2.755   4.899  0.1689  0.8463  0.9243
    5RES   C296 1984   5.128   2.650   5.299 -0.0646 -0.0102  0.0789
    5RES   C297 1985   5.152   2.540   5.413  0.2195  0.2755 -0.6147
    5RES   C298 1986   5.295   2.466   5.409  0.5972  0.3671  0.0064
    5RES   C299 1987   5.320   2.377   5.285  0.3230  0.7197 -0.0333
    5RES   C300 1988   5.434   2.281   5.320 -0.4413  0.1599  0.2381
    5RES   C301 1989   5.459   2.190   5.200 -0.2206 -0.4364  0.1643
    5RES   C302 1990   5.581   2.109   5.226  0.0095  0.0480  0.0707
    5RES   H303 1991   5.023   2.660   5.270  0.2666  0.4884 -0.9570
    5RES   H304 1992   5.175   2.609   5.210  0.9483  0.7391  0.2540
    5RES   H305 1993   5.162   2.599   5.505 -2.0125  1.5905 -1.1710
    5RES   H306 1994   5.374   2.540   5.419 -0.1488  1.2035 -0.2142
    5RES   H307 1995   5.310   2.404   5.498  1.7924  0.9887  0.2463
    5RES   H308 1996   5.349   2.445   5.205 -0.5062 -1.2984 -2.0999
    5RES   H309 1997   5.230   2.324   5.256  0.4999  0.0185  0.6647
    5RES   H310 1998   5.406   2.226   5.409  0.1408 -0.0909  0.2673
    5RES   H311 1999   5.523   2.335   5.353  0.3272  0.1929 -1.7677
    5RES   H312 2000   5.381   2.115   5.191  0.8643 -1.4935 -0.6195
    5RES   H313 2001   5.459   2.249   5.109 -1.3672 -0.2444  0.2858
    5RES   H314 2002   5.570   2.039   5.308  0.4537 -0.7115 -0.5144
    5RES   H315 2003   5.601   2.047   5.138 -1.9188 -0.4844 -0.0073
    5RES   H316 2004   5.672   2.170   5.228 -0.2705  0.4286  1.1973
    5RES   C317 2005   5.032   2.432   5.423 -0.4313  0.2543  0.2643
    5RES   C318 2006   5.024   2.348   5.560  0.3820 -0.9333 -0.6302
    5RES   C319 2007   5.015   2.419   5.700 -0.2440 -0.8066  0.0846
    5RES   C320 2008   4.876   2.490   5.726 -0.1492 -0.3769 -0.2003
    5RES   C321 2009   4.875   2.574   5.849 -0.2498 -0.5182 -0.2647
    5RES   C322 2010   4.742   2.578   5.926 -0.4558 -0.2537 -0.2017
    5RES   C323 2011   4.628   2.648   5.841 -0.0373  0.6936  0.2500
    5RES   H324 2012   5.025   2.374   5.331  2.1682 -0.7506  0.6608
    5RES   H325 2013   4.940   2.489   5.415 -0.6491 -0.2108 -0.5498
    5RES   H326 2014   5.123   2.302   5.555  0.4580 -0.7984 -0.3214
    5RES   H327 2015   5.092   2.496   5.693 -1.3226  0.3498  0.6720
    5RES   H328 2016   5.051   2.356   5.781  0.1961  0.5104  0.9149
    5RES   H329 2017   4.801   2.410   5.726 -0.0986 -0.4234  0.0248
    5RES   H330 2018   4.842   2.542   5.637 -1.0742 -2.5151 -1.1422
    5RES   H331 2019   4.912   2.674   5.827 -3.3430  0.2692 -2.2074
    5RES   H332 2020   4.946   2.526   5.915 -1.8222 -0.7041  1.3204
    5RES   H333 2021   4.748   2.636   6.018  0.6558  1.8566 -1.5645
    5RES   H334 2022   4.720   2.479   5.967 -2.1951  0.9368  1.7901
    5RES   H335 2023   4.630   2.754   5.866 -1.8278  1.6159 -3.1688
    5RES   H336 2024   4.531   2.624   5.886  0.0788  0.3104  0.2958
    5RES   H337 2025   4.628   2.619   5.736  0.8376 -3.6063  1.3758
    5RES   C338 2026   4.916   2.234   5.556 -0.6321 -0.2435  0.1994
    5RES   C339 2027   4.935   2.122   5.449 -0.4904  0.3715 -0.0299
    5RES   C340 2028   4.797   2.051   5.446 -0.1103 -0.0823  0.0115
    5RES   C341 2029   4.753   1.996   5.579 -0.7222  0.4656  0.1031
    5RES   C342 2030   4.619   1.922   5.586  0.4409 -0.1465  0.0058
    5RES   C343 2031   4.498   2.018   5.571 -0.5279 -0.2721  0.0997
    5RES   C344 2032   4.361   1.943   5.572  0.1785 -0.0089 -0.5595
    5RES   H345 2033   4.820   2.285   5.542 -0.6123  0.0210  0.9842
    5RES   H346 2034   4.908   2.185   5.653  1.8064  0.6164  0.8738
    5RES   H347 2035   4.945   2.176   5.355  0.6522  1.6934  0.8309
    5RES   H348 2036   4.715   2.115   5.413 -2.0285 -2.4479  0.1065
    5RES   H349 2037   4.792   1.969   5.374  1.1430 -0.6745  0.5979
    5RES   H350 2038   4.760   2.068   5.661  2.6115 -0.8636  1.0786
    5RES   H351 2039   4.824   1.927   5.624 -2.6230 -1.1932  0.6058
    5RES   H352 2040   4.624   1.850   5.505 -3.2496 -0.3541 -0.1132
    5RES   H353 2041   4.618   1.869   5.682 -0.8989  0.4429  0.3387
    5RES   H354 2042   4.495   2.091   5.651  0.1819  0.7236 -0.7633
    5RES   H355 2043   4.507   2.080   5.482  2.4067 -2.2965 -1.1303
    5RES   H356 2044   4.273   2.005   5.558  2.0793  2.3907 -2.3198
    5RES   H357 2045   4.355   1.875   5.657 -0.5824  1.0970  0.2882
    5RES   H358 2046   4.355   1.881   5.483 -1.9254  1.0004 -1.1505
    5RES   C359 2047   5.052   2.033   5.476 -0.7413  0.6767  0.1834
    5RES   C360 2048   5.066   1.909   5.389 -0.1880 -0.9498 -0.3169
    5RES   C361 2049   5.098   1.945   5.237  0.1109 -0.1134 -0.5353
    5RES   C362 2050   4.989   1.884   5.142 -0.7318  0.4921  0.0532
    5RES   C363 2051   4.979   1.941   4.999 -0.8291 -0.5870  0.5350
    5RES   C364 2052   4.866   1.873   4.905  0.0784  0.3151 -0.5529
    5RES   C365 2053   4.886   1.895   4.757 -0.2840  0.1741 -0.0056
    5RES   H366 2054   5.054   2.017   5.584 -1.3378 -2.2495 -0.1957
    5RES   H367 2055   5.140   2.094   5.456  0.6045  0.5310  4.9425
    5RES   H368 2056   4.979   1.848   5.412 -1.5004  1.1356  0.3348
    5RES   H369 2057   5.091   2.053   5.221 -0.5744  0.1414  1.3115
    5RES   H370 2058   5.200   1.921   5.206  0.6422 -0.3979  1.3640
    5RES   H371 2059   4.991   1.775   5.148  1.5388  0.4448 -0.9029
    5RES   H372 2060   4.894   1.907   5.190 -0.7514 -2.3589  1.5007
    5RES   H373 2061   4.961   2.048   4.986 -2.4765 -0.7281  1.5219
    5RES   H374 2062   5.073   1.914   4.953 -1.1225 -0.8240  0.0743
    5RES   H375 2063   4.843   1.767   4.917 -2.2656  0.8799  0.2103
    5RES   H376 2064   4.775   1.927   4.934  0.2207  2.0511 -3.1691
    5RES   H377 2065   4.790   1.880   4.708 -0.9869  1.2265  1.0335
    5RES   H378 2066   4.906   2.002   4.743  2.8180 -0.0195  2.2924
    5RES   H379 2067   4.965   1.828   4.723 -0.7548 -1.1948  1.5674
    5RES   C380 2068   5.189   1.835   5.452 -1.2730 -0.7219  0.0764
    5RES   C381 2069   5.205   1.698   5.391 -0.6616  0.1276  0.5855
    5RES   C382 2070   5.356   1.667   5.383 -0.7822 -0.4046  0.0172
    5RES   C383 2071   5.424   1.724   5.248  0.9798 -0.0260 -0.3456
    5RES   C384 2072   5.571   1.668   5.232  0.0907 -0.4288 -0.7580
    5RES   C385 2073   5.648   1.734   5.118 -0.1410 -0.3993 -0.3014
    5RES   C386 2074   5.767   1.819   5.165  0.1872  0.2069  0.0704
    5RES   H387 2075   5.271   1.904   5.432 -1.0119 -1.5908 -2.0745
    5RES   H388 2076   5.183   1.826   5.560  0.5907  0.3028  0.2813
    5RES   H389 2077   5.167   1.696   5.289 -1.4581 -0.0963  0.8797
    5RES   H390 2078   5.367   1.559   5.380  0.7839 -0.2533 -0.1916
    5RES   H391 2079   5.415   1.710   5.464 -2.4488 -1.7317  1.9832
    5RES   H392 2080   5.367   1.697   5.160  1.2193  1.5842 -1.0084
    5RES   H393 2081   5.443   1.831   5.260 -0.2708  0.2444 -0.7526
    5RES   H394 2082   5.619   1.662   5.330  2.1600 -0.6311 -1.7716
    5RES   H395 2083   5.550   1.567   5.197 -1.1243 -0.1158 -0.9621
    5RES   H396 2084   5.578   1.803   5.070  1.1126  1.2728  0.2280
    5RES   H397 2085   5.673   1.655   5.047 -0.1045 -1.3271  0.7355
    5RES   H398 2086   5.733   1.894   5.237 -0.5150  1.1711 -1.2296
    5RES   H399 2087   5.811   1.879   5.085  0.4839  1.5710  1.2253
    5RES   H400 2088   5.836   1.745   5.205  0.0324  0.1466  0.2241
    5RES   C401 2089   5.124   1.599   5.473 -0.2905  0.1103 -0.7857
    5RES   C402 2090   5.089   1.473   5.396 -0.6073  0.6698  0.3448
    5RES   C403 2091   5.053   1.356   5.491  0.5077 -0.0132  0.3984
    5RES   C404 2092   5.045   1.222   5.423 -0.4830 -0.3579 -0.1535
    5RES   C405 2093   4.922   1.199   5.343 -0.4162 -0.0007 -0.3942
    5RES   C406 2094   4.904   1.056   5.290 -1.2449 -0.3831  0.6824
    5RES   C407 2095   4.773   1.050   5.208  0.8510  0.0021  0.5196
    5RES   H408 2096   5.027   1.640   5.501 -0.4282 -0.9436  0.3169
    5RES   H409 2097   5.179   1.572   5.563 -2.6159  2.0787  1.3043
    5RES   H410 2098   5.174   1.436   5.338 -0.9918 -0.2872  0.3903
    5RES   H411 2099   4.954   1.365   5.536  0.6517  1.2109  0.5034
    5RES   H412 2100   5.117   1.349   5.579  0.5255 -0.7742  0.3271
    5RES   H413 2101   5.027   1.156   5.508 -0.0556 -0.2371  0.0341
    5RES   H414 2102   5.131   1.175   5.376 -0.7167 -3.0641  2.0238
    5RES   H415 2103   4.841   1.221   5.412  2.4131  1.4209  2.6368
    5RES   H416 2104   4.925   1.271   5.261 -1.1240  0.6818  0.1739
    5RES   H417 2105   4.990   1.022   5.233 -0.7657  0.6984  0.7402
    5RES   H418 2106   4.911   0.992   5.378 -0.0686 -1.8564 -0.4550
    5RES   H419 2107   4.760   0.947   5.174 -0.9966 -0.7034  3.1786
    5RES   H420 2108   4.763   1.125   5.131 -0.7401 -0.8127 -0.0807
    5RES   H421 2109   4.683   1.076   5.263  1.1281  0.1593  0.9017
    5RES   H422 2110   5.015   1.496   5.320 -0.0067 -0.4413 -0.5838
    6RES     C1 2111   3.808   7.045   2.398 -0.0222 -0.2411 -0.8760
    6RES     C2 2112   3.812   6.986   2.252  0.2677  0.8765 -0.4611
    6RES     C3 2113   3.707   7.074   2.174  0.0547 -0.2377 -0.5323
    6RES     C4 2114   3.694   7.043   2.026  0.4478  0.4368  0.0060
    6RES     C5 2115   3.606   7.146   1.961 -0.5276 -0.2674  0.6405
    6RES     C6 2116   3.562   7.127   1.819  0.3060  0.1968  0.6458
    6RES     C7 2117   3.528   7.258   1.746 -0.4767  0.0113 -0.1864
    6RES     H8 2118   3.855   6.983   2.473  0.4597  1.0661 -0.0980
    6RES     H9 2119   3.709   7.066   2.440  0.0276 -0.4228 -0.6690
    6RES    H10 2120   3.909   7.007   2.206  0.2000 -0.8980 -1.4260
    6RES    H11 2121   3.613   7.070   2.229 -0.0276 -0.8953 -0.7199
    6RES    H12 2122   3.728   7.181   2.174  1.1536 -0.4274 -2.3318
    6RES    H13 2123   3.793   7.054   1.980  0.1531  0.8647 -0.5202
    6RES    H14 2124   3.670   6.939   2.003 -0.9045  0.2661  2.1410
    6RES    H15 2125   3.668   7.236   1.963  1.1247 -1.3002 -1.5013
    6RES    H16 2126   3.513   7.168   2.012 -0.4712 -0.9752  1.0580
    6RES    H17 2127   3.476   7.059   1.817  0.4914 -0.0481  1.0413
    6RES    H18 2128   3.645   7.077   1.769 -0.0715  1.6126 -1.4833
    6RES    H19 2129   3.558   7.250   1.642  0.5585  0.9360  0.0296
    6RES    H20 2130   3.586   7.336   1.795  1.1515 -1.5834  0.5015
    6RES    H21 2131   3.422   7.277   1.761 -0.7420 -1.7863  0.3920
    6RES    H22 2132   3.863   7.139   2.397  1.6587 -1.1662  1.6808
    6RES    C23 2133   3.771   6.831   2.269 -0.4744 -0.0774  0.6233
    6RES    C24 2134   3.897   6.732   2.267  0.2346 -0.1936 -0.7612
    6RES    C25 2135   3.957   6.718   2.122  0.1225  0.2785 -0.8124
    6RES    C26 2136   4.103   6.671   2.114 -0.0528  0.1057  0.1938
    6RES    C27 2137   4.181   6.699   1.981  1.2004 -0.1308 -0.4977
    6RES    C28 2138   4.331   6.722   2.003  0.0829  0.2324  0.0543
    6RES    C29 2139   4.420   6.727   1.873 -0.4601  0.2720 -0.3975
    6RES    H30 2140   3.716   6.818   2.361 -2.4763 -0.9809 -0.6699
    6RES    H31 2141   3.704   6.802   2.188 -1.0824 -0.2305  1.1748
    6RES    H32 2142   3.979   6.783   2.318 -0.0687  0.4401 -0.9044
    6RES    H33 2143   3.948   6.809   2.063 -0.3800  0.2952 -0.7066
    6RES    H34 2144   3.888   6.645   2.080  0.8774 -1.0215  0.1430
    6RES    H35 2145   4.112   6.568   2.148 -1.5901 -0.1463 -0.1438
    6RES    H36 2146   4.167   6.724   2.186  0.5107 -1.4639  0.8601
    6RES    H37 2147   4.131   6.772   1.917 -2.5787 -2.9465 -0.9041
    6RES    H38 2148   4.166   6.612   1.918 -0.6999 -0.7742  0.8002
    6RES    H39 2149   4.367   6.641   2.067 -1.2711 -0.9201 -0.6109
    6RES    H40 2150   4.358   6.812   2.058  2.3777  1.2177 -2.5436
    6RES    H41 2151   4.429   6.629   1.826  1.4726  1.3436 -2.3605
    6RES    H42 2152   4.393   6.800   1.796 -0.5354  0.5253 -0.1313
    6RES    H43 2153   4.517   6.767   1.900 -0.9320  0.8905  0.4133
    6RES    C44 2154   3.877   6.595   2.336 -0.6141 -0.1287 -0.6979
    6RES    C45 2155   3.822   6.601   2.484 -0.4221 -0.3971  0.2397
    6RES    C46 2156   3.793   6.454   2.528  0.1119  0.5345  0.0549
    6RES    C47 2157   3.680   6.393   2.442 -0.2010 -0.2917 -0.4411
    6RES    C48 2158   3.557   6.475   2.440  0.5200  0.0416  0.2895
    6RES    C49 2159   3.497   6.476   2.587 -0.2057 -0.0861 -0.4263
    6RES    C50 2160   3.358   6.536   2.592  0.0714  0.5650 -0.2955
    6RES    H51 2161   3.975   6.549   2.333  0.1572  1.0488  3.5168
    6RES    H52 2162   3.805   6.541   2.274 -0.7158  0.0105 -0.7021
    6RES    H53 2163   3.730   6.659   2.484 -1.3981 -1.9468  0.2327
    6RES    H54 2164   3.759   6.442   2.631  1.0238 -1.7599  0.1061
    6RES    H55 2165   3.879   6.390   2.512 -1.3752 -1.4071 -0.2989
    6RES    H56 2166   3.716   6.386   2.339 -0.1334  0.8512 -0.4984
    6RES    H57 2167   3.663   6.290   2.475  0.8712 -0.0599  0.9093
    6RES    H58 2168   3.478   6.429   2.381  0.0353  1.1067  0.0880
    6RES    H59 2169   3.570   6.577   2.403 -0.1575  0.1658  0.3867
    6RES    H60 2170   3.561   6.545   2.641  1.4374 -0.7023 -1.5510
    6RES    H61 2171   3.507   6.380   2.638  3.3883  0.6617  0.4237
    6RES    H62 2172   3.331   6.541   2.698 -0.6611  3.0396 -0.5683
    6RES    H63 2173   3.282   6.482   2.535  0.3276  1.2013 -1.2506
    6RES    H64 2174   3.353   6.640   2.559  0.6243  1.0892  1.2418
    6RES    C65 2175   3.921   6.686   2.576 -0.5072 -0.3944  0.2843
    6RES    C66 2176   3.880   6.709   2.720  0.2128  0.1196 -0.4125
    6RES    C67 2177   3.756   6.812   2.727  0.3678  0.1031 -0.5533
    6RES    C68 2178   3.672   6.815   2.849  0.8019  0.4206 -0.4575
    6RES    C69 2179   3.524   6.851   2.830  0.4327  0.1322  0.1959
    6RES    C70 2180   3.433   6.855   2.960  0.5041  0.9499 -0.2690
    6RES    C71 2181   3.478   6.962   3.063  0.2234 -0.1879  0.1241
    6RES    H72 2182   4.020   6.640   2.579 -0.6376 -0.6518  0.6586
    6RES    H73 2183   3.946   6.782   2.531 -1.8826 -0.3824 -0.4882
    6RES    H74 2184   3.846   6.616   2.766  1.2100 -0.3672 -0.6553
    6RES    H75 2185   3.787   6.913   2.700  3.2833 -0.2699  1.1739
    6RES    H76 2186   3.681   6.787   2.653  0.4381  0.1095 -0.6266
    6RES    H77 2187   3.667   6.714   2.891  1.1497  0.1087 -1.1565
    6RES    H78 2188   3.717   6.880   2.923 -0.7467  0.8644  0.1229
    6RES    H79 2189   3.519   6.950   2.785 -1.7280 -0.3338 -0.6863
    6RES    H80 2190   3.470   6.786   2.761  0.9853 -0.5939  0.4452
    6RES    H81 2191   3.431   6.756   3.005  0.7510  0.9173 -0.3257
    6RES    H82 2192   3.331   6.858   2.924  0.5205  2.7027 -0.2319
    6RES    H83 2193   3.583   6.975   3.089  1.1639 -1.1500 -2.9076
    6RES    H84 2194   3.448   7.064   3.040 -0.2387  0.3611  3.0277
    6RES    H85 2195   3.449   6.954   3.167  0.9720 -0.3967  0.3203
    6RES    C86 2196   4.004   6.741   2.810 -0.1800  0.5763 -0.3910
    6RES    C87 2197   4.101   6.628   2.842  0.0785 -0.0851 -0.1885
    6RES    C88 2198   4.247   6.671   2.796  1.1119 -0.3552 -0.0163
    6RES    C89 2199   4.270   6.653   2.650  0.7791 -0.0623 -0.1609
    6RES    C90 2200   4.417   6.649   2.609  0.8565  0.7056 -0.1653
    6RES    C91 2201   4.427   6.640   2.457 -0.4713  0.2064  0.4290
    6RES    C92 2202   4.568   6.659   2.406  0.8300  0.0747 -0.0496
    6RES    H93 2203   4.058   6.819   2.757  2.2568  0.0994  1.3031
    6RES    H94 2204   3.966   6.785   2.903 -0.2907  1.4367 -0.8435
    6RES    H95 2205   4.077   6.543   2.779 -0.2911 -1.9097  2.3304
    6RES    H96 2206   4.259   6.775   2.824 -2.8013  0.1889 -0.0809
    6RES    H97 2207   4.325   6.623   2.855  1.4112 -1.1192 -1.0117
    6RES    H98 2208   4.241   6.551   2.623  1.0701 -0.1033 -0.3223
    6RES    H99 2209   4.219   6.728   2.591 -2.2626 -1.5815  0.4378
    6RES   H100 2210   4.470   6.570   2.661 -0.7615  0.1350  0.6704
    6RES   H101 2211   4.472   6.732   2.653 -0.1682  2.1149 -1.4584
    6RES   H102 2212   4.404   6.538   2.426 -2.6644  1.2079 -1.4043
    6RES   H103 2213   4.362   6.707   2.401 -1.9010 -1.3298  0.2101
    6RES   H104 2214   4.614   6.561   2.417 -0.6169 -0.3288  2.7408
    6RES   H105 2215   4.616   6.730   2.473  0.8925 -0.8424  0.8845
    6RES   H106 2216   4.573   6.702   2.306 -2.6950 -2.9521 -1.6477
    6RES   C107 2217   4.103   6.590   2.992 -0.1962  0.2099 -0.0431
    6RES   C108 2218   3.970   6.537   3.056 -0.2712 -0.9554  0.6516
    6RES   C109 2219   3.920   6.404   2.996  0.2830 -0.5445  0.2696
    6RES   C110 2220   3.776   6.365   3.028  0.2028 -0.8748  0.1166
    6RES   C111 2221   3.727   6.248   2.948 -0.1645  0.1453 -0.0288
    6RES   C112 2222   3.583   6.203   2.970 -0.2347 -0.5406  0.5940
    6RES   C113 2223   3.542   6.080   2.893  0.1709 -0.2839 -0.0810
    6RES   H114 2224   4.150   6.665   3.056 -1.6865  0.4894  0.7541
    6RES   H115 2225   4.179   6.512   2.993 -1.6446 -1.2257  2.9251
    6RES   H116 2226   3.888   6.601   3.023 -1.3410 -2.2434  0.7661
    6RES   H117 2227   3.978   6.321   3.038  1.3562 -0.4641 -1.0321
    6RES   H118 2228   3.944   6.390   2.891 -0.5183 -1.6477  0.2172
    6RES   H119 2229   3.755   6.339   3.132  2.6405  1.3479  1.1866
    6RES   H120 2230   3.715   6.453   3.005 -0.3960 -1.2503  0.2356
    6RES   H121 2231   3.791   6.163   2.972 -0.8325  0.0703  1.5488
    6RES   H122 2232   3.744   6.272   2.843  0.8914 -0.5211 -0.0109
    6RES   H123 2233   3.569   6.190   3.077  1.5024 -1.5632  0.7196
    6RES   H124 2234   3.524   6.290   2.940  0.7652 -0.1240 -0.1718
    6RES   H125 2235   3.585   6.088   2.793  1.4944  0.0414  0.5017
    6RES   H126 2236   3.587   5.993   2.941 -0.5751  0.0715  1.3220
    6RES   H127 2237   3.433   6.079   2.891  0.1388  1.5223 -0.6254
    6RES   C128 2238   3.974   6.528   3.213  0.2317 -0.3780  0.6582
    6RES   C129 2239   3.920   6.654   3.295  0.0019  0.2785 -0.1024
    6RES   C130 2240   3.769   6.683   3.273  0.5042 -0.1819 -0.5173
    6RES   C131 2241   3.668   6.579   3.335 -0.4649 -0.0573 -0.0714
    6RES   C132 2242   3.526   6.629   3.347  0.4364  0.1809  0.1158
    6RES   C133 2243   3.447   6.517   3.397 -0.7672 -0.9857  0.2230
    6RES   C134 2244   3.302   6.535   3.426 -0.6066  0.0898  0.3358
    6RES   H135 2245   3.933   6.432   3.246  0.2899 -0.2192  1.1932
    6RES   H136 2246   4.080   6.515   3.237  0.6367 -0.6411 -1.1383
    6RES   H137 2247   3.926   6.622   3.399  0.6811 -0.4980 -0.3731
    6RES   H138 2248   3.752   6.697   3.166  2.8835 -0.9240 -1.0304
    6RES   H139 2249   3.744   6.772   3.332 -0.0889 -0.7888  0.1487
    6RES   H140 2250   3.700   6.558   3.437  2.4747  1.0229 -0.7170
    6RES   H141 2251   3.665   6.488   3.275  2.0297 -0.3599  0.2027
    6RES   H142 2252   3.501   6.663   3.247 -0.2010 -1.8647 -0.4443
    6RES   H143 2253   3.511   6.706   3.423 -1.5015 -1.4657  1.4801
    6RES   H144 2254   3.492   6.466   3.483 -0.0450  1.5109  1.3810
    6RES   H145 2255   3.454   6.439   3.321 -2.5689 -1.0825  0.1495
    6RES   H146 2256   3.249   6.559   3.334  2.5387  0.9826 -1.3145
    6RES   H147 2257   3.277   6.601   3.509 -0.7744 -0.6755  0.8996
    6RES   H148 2258   3.258   6.438   3.449  0.5704 -0.1446  1.6664
    6RES   C149 2259   4.001   6.783   3.280 -0.0765 -0.1775 -0.2023
    6RES   C150 2260   3.981   6.889   3.394  0.3241 -0.7687  0.4086
    6RES   C151 2261   3.991   7.034   3.338  0.7570  1.0291 -0.1952
    6RES   C152 2262   3.866   7.075   3.263  0.1203 -0.0846  0.1740
    6RES   C153 2263   3.875   7.211   3.201  0.1435  0.6997  0.0656
    6RES   C154 2264   3.739   7.260   3.144 -0.0228 -0.0085  0.5489
    6RES   C155 2265   3.628   7.271   3.250  0.5108 -0.2878 -0.3256
    6RES   H156 2266   4.108   6.772   3.267  0.1051  0.2310  0.9191
    6RES   H157 2267   3.962   6.832   3.191  0.5467  1.9729  0.6766
    6RES   H158 2268   3.884   6.881   3.442  0.9084 -0.1788  1.7172
    6RES   H159 2269   4.004   7.111   3.414 -0.5458 -0.2503  1.3486
    6RES   H160 2270   4.081   7.043   3.278  0.5881  0.7993 -0.4813
    6RES   H161 2271   3.782   7.070   3.332  0.4703 -1.4770  0.5046
    6RES   H162 2272   3.842   6.996   3.192 -0.2399  0.5664 -0.4430
    6RES   H163 2273   3.950   7.206   3.122  0.1377  1.9935 -0.0384
    6RES   H164 2274   3.908   7.286   3.274  1.4294 -0.1236  0.3406
    6RES   H165 2275   3.707   7.192   3.065  0.0863  1.3471 -0.6857
    6RES   H166 2276   3.749   7.356   3.093 -0.0965  0.3597  1.2124
    6RES   H167 2277   3.536   7.318   3.216  0.4325 -2.7892 -3.8243
    6RES   H168 2278   3.668   7.328   3.334  1.8015 -0.7036 -0.6446
    6RES   H169 2279   3.603   7.170   3.283  2.0157 -1.1966 -1.8757
    6RES   C170 2280   4.081   6.866   3.510 -0.2009  0.7844 -0.0443
    6RES   C171 2281   4.058   6.954   3.634 -0.3698 -0.5866 -0.1720
    6RES   C172 2282   3.908   6.947   3.686 -0.8580 -0.5673 -0.2686
    6RES   C173 2283   3.852   6.808   3.713  0.2922 -0.5309  0.5316
    6RES   C174 2284   3.698   6.813   3.746  0.3703  0.3062  0.2632
    6RES   C175 2285   3.625   6.679   3.727 -0.0965 -0.1088  0.5426
    6RES   C176 2286   3.484   6.680   3.767 -0.0114  0.4755 -0.0347
    6RES   H177 2287   4.179   6.890   3.469  0.5616 -1.3868  0.3926
    6RES   H178 2288   4.080   6.760   3.535 -3.1325  1.1249  1.5286
    6RES   H179 2289   4.058   7.062   3.629 -1.3200 -0.5034  1.3364
    6RES   H180 2290   3.846   7.005   3.618  3.2032  4.6322  0.1430
    6RES   H181 2291   3.910   6.997   3.782  2.2789  0.0397 -0.6077
    6RES   H182 2292   3.906   6.749   3.787  1.1522 -1.3725 -0.7546
    6RES   H183 2293   3.855   6.747   3.622  2.5981 -0.4544  0.5412
    6RES   H184 2294   3.644   6.888   3.688  0.5807  0.8796  0.7921
    6RES   H185 2295   3.697   6.834   3.853 -1.4535  1.7548  0.0042
    6RES   H186 2296   3.681   6.605   3.783  1.1873  0.2026 -0.3153
    6RES   H187 2297   3.635   6.651   3.622 -1.4518  0.2821  0.2946
    6RES   H188 2298   3.479   6.679   3.876 -0.5712  1.0540 -0.0502
    6RES   H189 2299   3.428   6.588   3.755  0.9669 -0.4885  2.4192
    6RES   H190 2300   3.425   6.756   3.716 -3.0976 -2.4328 -0.9742
    6RES   C191 2301   4.149   6.912   3.743 -0.2302 -0.8387 -1.0474
    6RES   C192 2302   4.144   6.988   3.882  0.2520  0.4172  0.2442
    6RES   C193 2303   4.271   6.947   3.959  1.3650  0.2676 -0.3731
    6RES   C194 2304   4.397   7.010   3.903  0.0943  0.5436  0.2297
    6RES   C195 2305   4.530   6.946   3.964  0.0624 -0.0522 -0.0834
    6RES   C196 2306   4.656   7.000   3.901 -0.0318  0.3214  0.2171
    6RES   C197 2307   4.690   7.143   3.921  0.2522  0.3937 -0.3270
    6RES   H198 2308   4.249   6.908   3.699 -0.0648 -2.0459 -0.6066
    6RES   H199 2309   4.136   6.805   3.761  1.1808 -1.0939 -1.4614
    6RES   H200 2310   4.068   6.928   3.933 -0.0048  0.3316 -0.2337
    6RES   H201 2311   4.281   6.838   3.963  1.2539  0.2852  0.4301
    6RES   H202 2312   4.264   6.986   4.060 -0.3347 -0.8544 -0.0346
    6RES   H203 2313   4.389   7.118   3.919  0.1993  0.6152 -0.2013
    6RES   H204 2314   4.396   6.997   3.795 -1.3157 -0.9919  0.3948
    6RES   H205 2315   4.524   6.961   4.072 -2.0921  0.7526 -0.3115
    6RES   H206 2316   4.524   6.838   3.951 -1.6500 -0.1031  1.0856
    6RES   H207 2317   4.649   6.979   3.794  0.5767 -2.7292  0.7305
    6RES   H208 2318   4.744   6.943   3.933 -1.7151 -1.4343  1.8368
    6RES   H209 2319   4.750   7.152   4.011 -0.6479 -0.7664  0.4171
    6RES   H210 2320   4.608   7.211   3.947  0.7135  2.1073 -3.1850
    6RES   H211 2321   4.754   7.183   3.843  0.4722 -0.0228 -0.3562
    6RES   C212 2322   4.113   7.140   3.881  0.5535 -0.7797 -0.3389
    6RES   C213 2323   4.088   7.202   4.021  0.0760  0.1271  0.0412
    6RES   C214 2324   4.068   7.354   4.007  0.2194  0.3076 -0.1210
    6RES   C215 2325   4.202   7.427   3.974  0.0613 -0.1021 -0.2602
    6RES   C216 2326   4.172   7.566   3.918  0.0171 -0.1458 -0.5494
    6RES   C217 2327   4.296   7.642   3.872 -0.9849  0.1515 -0.1642
    6RES   C218 2328   4.423   7.649   3.953  0.2959 -0.2330  0.0054
    6RES   H219 2329   4.024   7.153   3.819 -1.3947 -2.6878  1.9616
    6RES   H220 2330   4.194   7.189   3.827  0.1790  1.1620  0.8257
    6RES   H221 2331   4.177   7.203   4.084 -0.6837  0.7057  1.1215
    6RES   H222 2332   3.986   7.377   3.939  0.6895 -0.0421 -0.8194
    6RES   H223 2333   4.038   7.394   4.104  2.5316  1.8962 -0.0160
    6RES   H224 2334   4.264   7.360   3.915  1.4197  1.4212 -0.5902
    6RES   H225 2335   4.266   7.429   4.062 -0.9567 -3.0459  0.6265
    6RES   H226 2336   4.092   7.566   3.844 -0.4391  3.2807 -0.1447
    6RES   H227 2337   4.118   7.610   4.002  0.9857 -1.8209  0.9762
    6RES   H228 2338   4.326   7.615   3.771 -0.1571  1.9350 -0.4192
    6RES   H229 2339   4.261   0.016   3.852 -1.1038  0.2037  0.2929
    6RES   H230 2340   4.482   7.557   3.956 -0.7636 -0.8888  1.6876
    6RES   H231 2341   4.406   7.677   4.057  0.9445 -0.0812  0.0747
    6RES   H232 2342   4.487   0.001   3.912  1.2936 -0.8422  0.3674
    6RES   C233 2343   3.965   7.144   4.097 -0.0654 -0.1050  0.3686
    6RES   C234 2344   3.982   7.052   4.220 -0.6793  0.2656 -0.0386
    6RES   C235 2345   4.039   7.130   4.345  0.1593  0.9005  0.0125
    6RES   C236 2346   4.187   7.115   4.363  0.1960  0.9649 -0.0936
    6RES   C237 2347   4.231   6.974   4.414 -0.2250  0.0807  0.2695
    6RES   C238 2348   4.384   6.957   4.438  0.7944 -0.4352  0.1468
    6RES   C239 2349   4.417   6.820   4.503 -0.2471 -0.0755 -0.0007
    6RES   H240 2350   3.904   7.091   4.024  1.1091  0.8804 -1.3661
    6RES   H241 2351   3.898   7.223   4.131 -0.8962 -0.0705 -1.2987
    6RES   H242 2352   4.047   6.967   4.203 -2.1809 -0.7431 -0.8621
    6RES   H243 2353   3.990   7.085   4.431 -1.5956 -1.3631 -2.0932
    6RES   H244 2354   4.023   7.237   4.356  2.3421  1.2754 -0.3650
    6RES   H245 2355   4.223   7.186   4.437 -2.9475  0.3348  2.1461
    6RES   H246 2356   4.245   7.129   4.271 -1.5667  1.7839 -1.1028
    6RES   H247 2357   4.205   6.897   4.342  0.1467 -0.8152  1.0853
    6RES   H248 2358   4.183   6.946   4.508  1.5211  2.5940  1.9802
    6RES   H249 2359   4.447   6.985   4.354 -2.5281 -1.8084 -2.9482
    6RES   H250 2360   4.410   7.027   4.518 -0.6632 -0.6976  0.8688
    6RES   H251 2361   4.524   6.803   4.521 -0.2783  1.7642  2.1306
    6RES   H252 2362   4.372   6.812   4.602  0.1312 -1.0040  0.1055
    6RES   H253 2363   4.378   6.739   4.442 -0.4497  0.0473 -0.0342
    6RES   C254 2364   3.846   6.986   4.251  0.4436 -0.7341 -1.0707
    6RES   C255 2365   3.804   6.869   4.158  0.4036 -0.2574  0.0653
    6RES   C256 2366   3.648   6.873   4.151  0.2312 -0.7304 -0.3489
    6RES   C257 2367   3.588   7.004   4.096  0.4308 -1.1373  0.4075
    6RES   C258 2368   3.435   7.000   4.094  0.9695  0.2138  0.2135
    6RES   C259 2369   3.374   7.120   4.018 -0.6207 -0.0920 -0.9006
    6RES   C260 2370   3.225   7.112   3.999  0.6210 -0.7998 -0.1506
    6RES   H261 2371   3.779   7.072   4.257  1.9610  0.3360  1.2870
    6RES   H262 2372   3.854   6.945   4.351 -1.0299 -2.1396 -1.5199
    6RES   H263 2373   3.848   6.890   4.060  1.5716  1.8979  1.0123
    6RES   H264 2374   3.608   6.852   4.250  2.5566 -2.4630  0.2839
    6RES   H265 2375   3.607   6.788   4.097  0.9132 -0.7885 -0.7765
    6RES   H266 2376   3.604   7.096   4.152 -2.5360  0.1336 -0.7340
    6RES   H267 2377   3.632   6.998   3.997  0.3545 -0.0110  0.3051
    6RES   H268 2378   3.389   6.998   4.193  0.2109 -0.6334 -0.1467
    6RES   H269 2379   3.413   6.901   4.053  2.5868 -0.8046  1.7642
    6RES   H270 2380   3.386   7.211   4.077 -0.9770 -0.5287 -0.1504
    6RES   H271 2381   3.426   7.135   3.923 -0.8397 -0.1352 -1.0287
    6RES   H272 2382   3.182   7.205   3.961  1.3842 -0.7817 -0.9882
    6RES   H273 2383   3.190   7.034   3.931 -0.6425 -0.4177  0.0610
    6RES   H274 2384   3.178   7.085   4.093  1.6799  1.7832  1.1493
    6RES   C275 2385   3.855   6.735   4.217  0.9526 -0.2440 -0.4611
    6RES   C276 2386   3.875   6.617   4.123 -0.5800  0.0507 -0.0707
    6RES   C277 2387   3.839   6.485   4.198 -0.0932 -0.0318 -0.2277
    6RES   C278 2388   3.694   6.480   4.240 -0.2006 -0.2453  0.2871
    6RES   C279 2389   3.642   6.339   4.255 -0.5923  0.3295 -0.2124
    6RES   C280 2390   3.486   6.336   4.248  0.1533 -0.5423  0.1329
    6RES   C281 2391   3.438   6.208   4.306  0.0619 -0.1382 -0.3601
    6RES   H282 2392   3.786   6.717   4.300 -0.3776  1.4716 -1.1576
    6RES   H283 2393   3.944   6.760   4.274 -1.1856  1.6025  2.2255
    6RES   H284 2394   3.822   6.640   4.030 -0.4602 -2.9745 -0.9359
    6RES   H285 2395   3.864   6.393   4.145 -0.8452 -0.6875  0.5491
    6RES   H286 2396   3.899   6.483   4.288  1.8859  0.9080 -1.4818
    6RES   H287 2397   3.636   6.520   4.157  2.2108  0.3108 -1.1448
    6RES   H288 2398   3.673   6.539   4.330 -0.4117  1.9631 -1.1844
    6RES   H289 2399   3.692   6.298   4.343  0.1747  1.9910  0.1467
    6RES   H290 2400   3.673   6.268   4.179  1.1777  1.1972 -0.3178
    6RES   H291 2401   3.443   6.412   4.313  0.4877 -1.4641  1.4609
    6RES   H292 2402   3.440   6.349   4.150 -1.5665 -1.2743  0.8170
    6RES   H293 2403   3.460   6.126   4.238  0.5112 -0.7663  0.5337
    6RES   H294 2404   3.329   6.201   4.306  0.0362  0.2790 -0.8220
    6RES   H295 2405   3.477   6.173   4.402 -0.4022  0.5719  0.0870
    6RES   C296 2406   4.026   6.610   4.071  0.3321  0.5704 -0.0802
    6RES   C297 2407   4.078   6.488   3.986 -0.0231 -0.3071 -0.4835
    6RES   C298 2408   4.220   6.520   3.940 -0.0209  0.3641 -0.2123
    6RES   C299 2409   4.322   6.550   4.049 -1.0335  0.0405  0.3398
    6RES   C300 2410   4.437   6.448   4.054 -0.0061 -0.6261 -0.2380
    6RES   C301 2411   4.532   6.482   4.171 -0.5376 -0.2797 -0.3314
    6RES   C302 2412   4.607   6.605   4.159  0.2002  0.3985 -0.3544
    6RES   H303 2413   4.048   6.707   4.024 -0.8421  1.0794  0.4013
    6RES   H304 2414   4.078   6.606   4.166 -1.7368  1.6856  1.1321
    6RES   H305 2415   4.090   6.402   4.051 -2.1546  0.9865  1.7026
    6RES   H306 2416   4.261   6.430   3.895 -0.6810 -1.1823  2.2489
    6RES   H307 2417   4.220   6.599   3.864  0.9341 -0.7586 -1.4034
    6RES   H308 2418   4.283   6.558   4.150 -4.2344  0.4297 -0.8687
    6RES   H309 2419   4.374   6.641   4.021  2.0916 -2.5487 -2.8152
    6RES   H310 2420   4.493   6.427   3.963  0.3402  0.7285 -0.3441
    6RES   H311 2421   4.376   6.360   4.075 -0.8244  0.1367  0.6583
    6RES   H312 2422   4.484   6.485   4.269  0.3727  1.2916  0.0809
    6RES   H313 2423   4.597   6.397   4.192 -0.3780 -0.0297  0.2054
    6RES   H314 2424   4.550   6.697   4.173  0.7580  0.9839 -1.7678
    6RES   H315 2425   4.677   6.614   4.242 -0.0761 -1.5991  0.1270
    6RES   H316 2426   4.649   6.622   4.060 -0.3432 -0.1801 -0.6897
    6RES   C317 2427   3.980   6.459   3.867 -0.6051 -0.5770 -0.7414
    6RES   C318 2428   3.988   6.317   3.810 -1.0957  0.4903 -0.1411
    6RES   C319 2429   3.878   6.222   3.863  0.1724  0.1125 -0.0183
    6RES   C320 2430   3.731   6.256   3.827  0.3703 -0.4125 -0.9830
    6RES   C321 2431   3.636   6.159   3.907 -0.0933  0.3744 -0.5010
    6RES   C322 2432   3.485   6.179   3.890  0.2175  0.7731 -0.3429
    6RES   C323 2433   3.435   6.153   3.747 -0.1659  0.9036  0.5224
    6RES   H324 2434   3.998   6.541   3.797  0.4166  1.7293  2.1100
    6RES   H325 2435   3.881   6.478   3.909 -0.8516 -0.5977 -1.3189
    6RES   H326 2436   4.084   6.281   3.847 -1.2162 -1.7054 -1.8950
    6RES   H327 2437   3.888   6.226   3.971 -0.2589  1.7343 -0.0270
    6RES   H328 2438   3.901   6.117   3.842 -1.0273  0.1863 -1.8757
    6RES   H329 2439   3.712   6.224   3.724 -0.3504 -0.6196 -0.7886
    6RES   H330 2440   3.705   6.360   3.847 -0.5944 -1.2289  2.2804
    6RES   H331 2441   3.664   6.170   4.012 -1.3515 -1.6287  0.0801
    6RES   H332 2442   3.671   6.058   3.887 -0.0625  0.6128 -1.6681
    6RES   H333 2443   3.458   6.281   3.919  0.4254  0.5233  0.7770
    6RES   H334 2444   3.433   6.108   3.955  0.7631  0.4829 -0.2133
    6RES   H335 2445   3.327   6.150   3.758  0.0790 -0.1805  3.1272
    6RES   H336 2446   3.471   6.058   3.707 -2.8153  0.3190 -0.5922
    6RES   H337 2447   3.465   6.236   3.684  0.6956  0.8378  0.8362
    6RES   C338 2448   3.997   6.318   3.661 -0.2415 -0.1527  0.3040
    6RES   C339 2449   4.025   6.175   3.606  1.2553  0.1043 -0.0918
    6RES   C340 2450   4.149   6.103   3.663  0.0415  0.2500  0.2110
    6RES   C341 2451   4.275   6.167   3.682 -0.1554 -0.6296 -0.1029
    6RES   C342 2452   4.391   6.064   3.686 -0.4393 -0.3093 -0.2676
    6RES   C343 2453   4.516   6.107   3.756 -0.1006 -0.3543 -0.1435
    6RES   C344 2454   4.510   6.094   3.913  0.1128  1.0243 -0.5946
    6RES   H345 2455   4.085   6.371   3.626 -2.1467  2.5702 -0.4749
    6RES   H346 2456   3.910   6.359   3.609 -0.1382 -0.5888 -0.2138
    6RES   H347 2457   3.935   6.116   3.624  0.8052  1.0678  0.9087
    6RES   H348 2458   4.123   6.073   3.764  0.1362 -0.2238  0.0948
    6RES   H349 2459   4.159   6.011   3.605 -0.1260  0.0296  0.5305
    6RES   H350 2460   4.275   6.220   3.778 -1.1044  0.3590 -0.6431
    6RES   H351 2461   4.302   6.248   3.614 -0.0057 -0.2742  0.3699
    6RES   H352 2462   4.353   5.968   3.721  0.6787 -1.1442 -1.3247
    6RES   H353 2463   4.406   6.042   3.580  1.4002 -2.2877  0.3595
    6RES   H354 2464   4.590   6.038   3.716 -1.9310  0.2523 -4.9309
    6RES   H355 2465   4.534   6.210   3.726 -1.6120  0.1308  0.5613
    6RES   H356 2466   4.423   6.147   3.950 -0.7466 -1.2413  0.7394
    6RES   H357 2467   4.595   6.148   3.955 -0.4997  1.0399  0.6489
    6RES   H358 2468   4.508   5.991   3.950  0.9733  1.2531  0.1121
    6RES   C359 2469   4.032   6.174   3.450  0.7292  0.4791 -0.0805
    6RES   C360 2470   3.986   6.052   3.377 -0.0477 -0.1542  0.3887
    6RES   C361 2471   3.836   6.019   3.398 -0.8387 -1.3356  0.1871
    6RES   C362 2472   3.728   6.134   3.372 -0.6598  0.3157 -0.3872
    6RES   C363 2473   3.584   6.075   3.391 -0.2855  0.6765  0.7483
    6RES   C364 2474   3.468   6.167   3.355 -0.1380  0.2144  0.5785
    6RES   C365 2475   3.346   6.108   3.278  0.2119 -0.6791  0.0066
    6RES   H366 2476   4.137   6.194   3.428  0.6103  1.1421 -0.0391
    6RES   H367 2477   3.982   6.262   3.410 -0.9325 -0.2609  0.3101
    6RES   H368 2478   4.036   5.966   3.421 -0.4255 -0.4162  0.3131
    6RES   H369 2479   3.813   5.937   3.331 -2.8677 -1.9650  1.6423
    6RES   H370 2480   3.811   5.979   3.496 -1.5006  0.4357  0.7692
    6RES   H371 2481   3.744   6.212   3.447  1.2237 -0.6864  0.2874
    6RES   H372 2482   3.743   6.171   3.270 -2.3560  0.6372 -0.5225
    6RES   H373 2483   3.579   5.989   3.324  0.2717  1.8325 -0.8217
    6RES   H374 2484   3.556   6.057   3.494  0.5874  0.2407  0.9119
    6RES   H375 2485   3.427   6.224   3.439  0.5552 -0.3972  1.3411
    6RES   H376 2486   3.514   6.241   3.289 -1.8730  1.7457  1.0540
    6RES   H377 2487   3.274   6.183   3.246  0.6303  0.9973  2.8387
    6RES   H378 2488   3.379   6.046   3.194  0.3222  1.1869 -1.3646
    6RES   H379 2489   3.291   6.047   3.350  0.8787 -1.0300  0.2166
    6RES   C380 2490   4.012   6.070   3.225 -0.2521 -0.0360  0.3617
    6RES   C381 2491   4.038   5.940   3.145 -0.2203  0.8002  0.3002
    6RES   C382 2492   3.959   5.931   3.016 -0.7227 -0.4050 -0.1295
    6RES   C383 2493   3.952   5.795   2.936  0.1932 -0.4367 -0.3020
    6RES   C384 2494   3.897   5.670   3.013 -0.4249 -0.6250 -1.1328
    6RES   C385 2495   3.867   5.547   2.929  0.0890 -0.6935  0.3227
    6RES   C386 2496   3.832   5.423   3.013 -0.2459  0.1931 -0.0314
    6RES   H387 2497   3.930   6.127   3.181 -0.3861 -0.9473 -0.5927
    6RES   H388 2498   4.091   6.143   3.206 -1.5593  1.1861 -0.4497
    6RES   H389 2499   3.999   5.854   3.200  0.8060  0.5576  0.6627
    6RES   H390 2500   4.002   5.995   2.938 -1.1897  0.6461  0.4633
    6RES   H391 2501   3.862   5.972   3.043 -0.1681 -0.0184  1.3581
    6RES   H392 2502   3.877   5.807   2.857  1.4238 -1.9286 -1.7252
    6RES   H393 2503   4.051   5.784   2.892  1.1728  0.8511  1.5145
    6RES   H394 2504   3.970   5.638   3.088 -1.1553 -0.0451 -0.1544
    6RES   H395 2505   3.813   5.694   3.078  1.3364 -0.3138  1.1107
    6RES   H396 2506   3.955   5.525   2.868  1.1310  2.3203  0.6731
    6RES   H397 2507   3.783   5.570   2.864  1.6615 -2.0714 -2.3024
    6RES   H398 2508   3.745   5.447   3.073 -0.3476  0.9742 -0.4867
    6RES   H399 2509   3.912   5.389   3.078 -0.9033 -0.8752  0.2313
    6RES   H400 2510   3.799   5.345   2.943 -2.3348  1.0864 -0.0758
    6RES   C401 2511   4.187   5.913   3.125  0.2397 -0.0222  0.1640
    6RES   C402 2512   4.288   5.898   3.244 -0.1943 -0.2400  0.5166
    6RES   C403 2513   4.430   5.880   3.208 -0.3375  0.1489 -0.4444
    6RES   C404 2514   4.521   5.861   3.322  0.1878  0.6898 -0.3508
    6RES   C405 2515   4.495   5.720   3.382 -0.3632 -0.0766  0.0357
    6RES   C406 2516   4.609   5.670   3.471 -0.3366 -0.5780  0.0702
    6RES   C407 2517   4.661   5.776   3.567  0.0861  0.0687 -0.0397
    6RES   H408 2518   4.214   5.996   3.060  1.6327  1.5804  2.6843
    6RES   H409 2519   4.203   5.830   3.056 -3.6757  0.0438 -0.9022
    6RES   H410 2520   4.237   5.818   3.298  0.4569 -1.2857 -0.4022
    6RES   H411 2521   4.466   5.970   3.159 -1.1364  1.1770  0.8200
    6RES   H412 2522   4.440   5.796   3.139 -1.6898  0.2233 -0.7519
    6RES   H413 2523   4.503   5.941   3.394  1.0381  0.5287  0.0491
    6RES   H414 2524   4.626   5.860   3.291 -0.1366 -0.9414 -1.4580
    6RES   H415 2525   4.400   5.719   3.434 -1.6300  0.1722 -2.2271
    6RES   H416 2526   4.494   5.648   3.300 -0.9048 -1.0963  0.9375
    6RES   H417 2527   4.577   5.583   3.528 -1.3480 -0.3420 -0.1233
    6RES   H418 2528   4.690   5.644   3.403  0.0508 -0.2448  0.3986
    6RES   H419 2529   4.712   5.733   3.652  0.4026 -0.4869 -0.5095
    6RES   H420 2530   4.576   5.835   3.601 -0.3003 -1.7021  2.1737
    6RES   H421 2531   4.734   5.836   3.513 -1.4985  0.7811 -1.4578
    6RES   H422 2532   4.269   5.993   3.294 -0.4427 -0.0923  0.1412
    7RES     C1 2533   1.919   0.905   6.893 -0.4205 -0.3185  0.0001
    7RES     C2 2534   1.889   0.829   6.760  0.0586 -0.4233  0.0250
    7RES     C3 2535   1.818   0.695   6.796  0.0583  0.5710  0.8650
    7RES     C4 2536   1.732   0.624   6.680  0.8705  0.5892  0.1915
    7RES     C5 2537   1.650   0.502   6.731 -0.1773  0.1625  0.3256
    7RES     C6 2538   1.547   0.447   6.631  0.7746  0.4606 -0.5128
    7RES     C7 2539   1.475   0.318   6.676 -0.1679  0.3545  0.3119
    7RES     H8 2540   1.836   0.908   6.963 -1.1508  0.6667 -0.8921
    7RES     H9 2541   1.942   1.011   6.886 -0.8447 -0.2308 -0.0644
    7RES    H10 2542   1.821   0.880   6.692 -0.5692 -2.7133 -1.1412
    7RES    H11 2543   1.897   0.627   6.827  0.0968  0.9581  1.6391
    7RES    H12 2544   1.754   0.717   6.882  0.7502  1.6349  1.1200
    7RES    H13 2545   1.667   0.702   6.642  0.4106  0.4268  0.6375
    7RES    H14 2546   1.789   0.578   6.599  0.7159 -0.8866  0.8944
    7RES    H15 2547   1.592   0.532   6.818 -0.7165  1.8125 -0.5897
    7RES    H16 2548   1.714   0.415   6.750  0.9613  0.7711 -0.6244
    7RES    H17 2549   1.601   0.434   6.537 -0.4097  0.3900 -1.1914
    7RES    H18 2550   1.469   0.520   6.611  1.6964  1.4610 -0.5145
    7RES    H19 2551   1.397   0.332   6.750  0.4729  1.0081  0.8801
    7RES    H20 2552   1.546   0.243   6.713  0.9553  0.8404 -0.8358
    7RES    H21 2553   1.427   0.268   6.592  0.2414  1.3053 -0.5025
    7RES    H22 2554   1.998   0.852   6.946 -1.2656 -0.8308  0.7565
    7RES    C23 2555   2.016   0.805   6.674 -0.8365 -0.0291  0.1672
    7RES    C24 2556   2.087   0.929   6.617  0.0231  1.3131 -0.1880
    7RES    C25 2557   1.994   1.013   6.521 -0.5028  0.4931 -0.0875
    7RES    C26 2558   1.918   0.943   6.402  0.0204 -0.1669 -0.0208
    7RES    C27 2559   1.808   1.027   6.339  0.0908  0.1549 -0.0685
    7RES    C28 2560   1.750   0.959   6.212  0.3499 -0.2826  0.0209
    7RES    C29 2561   1.699   0.814   6.238 -0.4457  0.1817  0.0677
    7RES    H30 2562   2.093   0.763   6.739  0.2038 -0.4658 -1.3148
    7RES    H31 2563   2.000   0.726   6.601 -0.7757  1.6649 -1.7234
    7RES    H32 2564   2.122   0.982   6.706  1.6245 -1.0006  0.6004
    7RES    H33 2565   2.041   1.107   6.493  0.5985  0.4962  1.7039
    7RES    H34 2566   1.911   1.049   6.582 -2.3963 -0.9842 -1.7387
    7RES    H35 2567   1.885   0.845   6.435 -0.4443 -0.0355 -0.0994
    7RES    H36 2568   1.995   0.923   6.327 -0.6327 -0.3523 -0.6384
    7RES    H37 2569   1.848   1.120   6.298  0.6125  0.1357  0.3976
    7RES    H38 2570   1.723   1.041   6.405 -1.8526  1.8642 -2.8351
    7RES    H39 2571   1.820   0.953   6.129  1.3295  2.5078  0.6102
    7RES    H40 2572   1.660   1.007   6.174  0.5775 -0.4215 -0.6956
    7RES    H41 2573   1.622   0.781   6.169 -1.7350  2.6709  0.2468
    7RES    H42 2574   1.784   0.746   6.235 -0.2037  0.5054 -0.5299
    7RES    H43 2575   1.662   0.818   6.341  2.4072 -0.2763  1.1651
    7RES    C44 2576   2.218   0.892   6.545  0.7163 -0.6977 -0.2757
    7RES    C45 2577   2.306   1.015   6.505 -0.6835  0.1116 -0.6532
    7RES    C46 2578   2.441   1.006   6.581 -0.0118 -0.4766  0.4587
    7RES    C47 2579   2.523   0.881   6.559  0.4004  0.0097 -0.3413
    7RES    C48 2580   2.676   0.893   6.529  0.0386 -0.7272 -0.1941
    7RES    C49 2581   2.753   0.754   6.509  0.4610  0.3128  0.8179
    7RES    C50 2582   2.903   0.765   6.482 -0.3366 -0.4535 -0.3228
    7RES    H51 2583   2.201   0.840   6.451  4.0455 -2.0378 -0.2187
    7RES    H52 2584   2.265   0.822   6.614 -0.5343 -0.0633  1.2486
    7RES    H53 2585   2.250   1.100   6.544 -1.9510 -0.4000 -1.3682
    7RES    H54 2586   2.406   1.031   6.681  2.6775 -0.6708  1.4896
    7RES    H55 2587   2.511   1.083   6.548 -0.7728 -0.1807 -0.4973
    7RES    H56 2588   2.513   0.805   6.636  0.9615 -1.5649 -1.7861
    7RES    H57 2589   2.485   0.832   6.469 -1.1457 -0.1237  0.3707
    7RES    H58 2590   2.733   0.953   6.600  0.7935 -0.2253 -1.2140
    7RES    H59 2591   2.683   0.941   6.431 -0.0297 -1.0393 -0.3513
    7RES    H60 2592   2.705   0.691   6.435  0.4959  0.2820  0.8211
    7RES    H61 2593   2.747   0.705   6.607  1.0220 -0.3633  0.5164
    7RES    H62 2594   2.921   0.816   6.388 -1.7349  2.2925  0.8224
    7RES    H63 2595   2.936   0.662   6.468 -1.8042 -0.6766 -2.4020
    7RES    H64 2596   2.962   0.805   6.564 -1.1633  0.4556 -0.1591
    7RES    C65 2597   2.313   1.033   6.352 -0.2116 -0.5161  0.1221
    7RES    C66 2598   2.382   1.164   6.311  0.5193  0.7962  0.3391
    7RES    C67 2599   2.290   1.283   6.332  0.5776  0.5844  0.1299
    7RES    C68 2600   2.164   1.294   6.246 -0.3622  0.1214  0.1735
    7RES    C69 2601   2.082   1.429   6.256  0.0679  0.0902 -0.1350
    7RES    C70 2602   1.955   1.421   6.167 -0.2035 -0.4195 -0.3573
    7RES    C71 2603   1.904   1.567   6.136  0.0131  0.0514 -0.5936
    7RES    H72 2604   2.367   0.948   6.312  3.6970  1.9543 -0.1472
    7RES    H73 2605   2.211   1.022   6.316 -0.0991 -2.4593  0.3243
    7RES    H74 2606   2.473   1.179   6.370  1.1527 -2.5370  0.2899
    7RES    H75 2607   2.254   1.286   6.435 -1.8851  1.4010 -0.7300
    7RES    H76 2608   2.348   1.375   6.323  3.9520 -1.1281  2.7848
    7RES    H77 2609   2.200   1.289   6.143  4.3253 -1.2598  1.7586
    7RES    H78 2610   2.091   1.216   6.268 -0.3976  0.3316  0.8005
    7RES    H79 2611   2.060   1.440   6.362 -4.0398  1.9864 -1.0753
    7RES    H80 2612   2.149   1.505   6.215 -0.8031  0.8472 -0.1771
    7RES    H81 2613   1.878   1.355   6.206 -0.3751 -0.3371 -0.5564
    7RES    H82 2614   1.985   1.388   6.067 -0.2548  0.1583 -0.5633
    7RES    H83 2615   1.829   1.559   6.058  1.4823 -3.4986 -1.7693
    7RES    H84 2616   1.867   1.618   6.224 -0.0522  0.7427 -1.0134
    7RES    H85 2617   1.986   1.627   6.095  2.2792 -2.3065  0.2764
    7RES    C86 2618   2.426   1.154   6.171  0.4253 -0.1135  0.6971
    7RES    C87 2619   2.516   1.276   6.128  0.4132  0.3242  0.2909
    7RES    C88 2620   2.656   1.305   6.209  0.2539 -0.3092 -0.2070
    7RES    C89 2621   2.754   1.192   6.226  0.0221  0.3489  0.1934
    7RES    C90 2622   2.893   1.245   6.268  0.3154  0.1326  0.8315
    7RES    C91 2623   2.980   1.124   6.304  0.4690  0.7611  0.1981
    7RES    C92 2624   3.133   1.147   6.295 -0.0245  0.6377 -0.5365
    7RES    H93 2625   2.486   1.065   6.150 -0.7835 -1.0431  1.1093
    7RES    H94 2626   2.343   1.142   6.101 -0.5315  1.1498  1.6107
    7RES    H95 2627   2.452   1.363   6.142 -0.6321 -0.2557 -0.7981
    7RES    H96 2628   2.702   1.388   6.156 -0.1805 -1.4644 -2.4607
    7RES    H97 2629   2.633   1.339   6.310  1.0422 -0.6313  0.0862
    7RES    H98 2630   2.709   1.121   6.295  1.0340 -1.4726 -0.9654
    7RES    H99 2631   2.768   1.138   6.132  1.3309  1.5580 -0.3356
    7RES   H100 2632   2.886   1.311   6.355  0.3958 -1.9876  2.4698
    7RES   H101 2633   2.934   1.297   6.181 -1.8366  0.4147 -0.0314
    7RES   H102 2634   2.959   1.120   6.411 -3.3197 -1.4811 -0.5070
    7RES   H103 2635   2.959   1.026   6.262 -0.8159  0.7401  0.8567
    7RES   H104 2636   3.181   1.053   6.321  2.2669  0.9890 -3.2940
    7RES   H105 2637   3.175   1.222   6.362  0.7952 -1.2596  1.0832
    7RES   H106 2638   3.153   1.174   6.191  0.5520 -1.8536 -1.0844
    7RES   C107 2639   2.543   1.265   5.977 -0.3942  0.1474 -0.1656
    7RES   C108 2640   2.587   1.386   5.890 -0.0637 -0.5413  0.4441
    7RES   C109 2641   2.712   1.357   5.803  0.3842 -0.3943  0.1615
    7RES   C110 2642   2.844   1.358   5.881  0.6161 -0.2304  1.0274
    7RES   C111 2643   2.961   1.304   5.807  0.5676  0.3798  0.0267
    7RES   C112 2644   3.092   1.343   5.872 -0.5354 -0.0260 -0.0830
    7RES   C113 2645   3.210   1.256   5.828 -0.0645  0.3384  0.0635
    7RES   H114 2646   2.450   1.226   5.935 -1.4614  0.3326  1.9452
    7RES   H115 2647   2.615   1.184   5.980  1.5790  1.9086  1.7911
    7RES   H116 2648   2.633   1.461   5.955  0.2253 -0.9550  0.7252
    7RES   H117 2649   2.716   1.413   5.710 -1.0254 -0.3802  0.0897
    7RES   H118 2650   2.697   1.261   5.754  0.4063  1.3285 -3.3694
    7RES   H119 2651   2.863   1.463   5.905 -0.0891 -0.2100  1.4996
    7RES   H120 2652   2.827   1.308   5.977  2.0792  2.1184  2.5696
    7RES   H121 2653   2.960   1.332   5.701  2.1720  2.1525  0.4570
    7RES   H122 2654   2.953   1.195   5.815 -1.1349  0.4802 -0.0661
    7RES   H123 2655   3.111   1.448   5.851  1.3969  0.2779  2.8361
    7RES   H124 2656   3.104   1.334   5.980 -0.4950 -0.1760 -0.0991
    7RES   H125 2657   3.296   1.286   5.889 -0.6841 -0.5778  1.4275
    7RES   H126 2658   3.197   1.148   5.834  1.8032  0.1419  0.9428
    7RES   H127 2659   3.245   1.279   5.728  3.4481 -0.3113  1.0657
    7RES   C128 2660   2.467   1.434   5.797 -0.3512  0.1929 -0.1976
    7RES   C129 2661   2.343   1.481   5.867  0.5034  0.0054 -0.2047
    7RES   C130 2662   2.213   1.472   5.786  0.2390 -0.3386 -0.1647
    7RES   C131 2663   2.159   1.331   5.788  0.4481 -0.4209  0.1154
    7RES   C132 2664   2.029   1.323   5.710  0.2057  0.5211  0.0521
    7RES   C133 2665   1.973   1.177   5.718 -0.4453 -0.0579  0.2737
    7RES   C134 2666   1.838   1.157   5.645 -0.6593 -1.1059  0.2094
    7RES   H135 2667   2.502   1.518   5.736  1.3998 -0.4700 -0.1205
    7RES   H136 2668   2.444   1.349   5.733  2.0380  1.8480 -3.3654
    7RES   H137 2669   2.328   1.404   5.944 -2.0430 -0.9403 -1.5963
    7RES   H138 2670   2.223   1.500   5.681 -0.1146 -1.2522 -0.4467
    7RES   H139 2671   2.140   1.543   5.826 -0.7699 -1.2936 -0.2776
    7RES   H140 2672   2.141   1.290   5.888  0.5160  1.5855  0.9839
    7RES   H141 2673   2.222   1.260   5.736  0.5866 -0.9403  0.9732
    7RES   H142 2674   2.056   1.353   5.608  2.9992 -0.5560  0.4124
    7RES   H143 2675   1.954   1.390   5.752 -0.4429  0.0008 -0.2744
    7RES   H144 2676   1.971   1.130   5.816 -0.4492 -0.6467 -0.0014
    7RES   H145 2677   2.050   1.110   5.679 -0.3891 -0.8460  1.7194
    7RES   H146 2678   1.763   1.222   5.689  2.6075  2.8389  0.1916
    7RES   H147 2679   1.799   1.056   5.658  1.7180 -2.0292  0.3059
    7RES   H148 2680   1.842   1.181   5.539  0.4243  1.5357  0.8119
    7RES   C149 2681   2.359   1.610   5.953  0.4141  0.7151 -0.4754
    7RES   C150 2682   2.360   1.736   5.868 -0.0421  0.6241  0.7891
    7RES   C151 2683   2.477   1.832   5.900  0.5199 -1.0246 -0.3409
    7RES   C152 2684   2.609   1.779   5.854  0.0491  0.0305 -0.2056
    7RES   C153 2685   2.735   1.841   5.915  0.4787 -1.2152  0.1756
    7RES   C154 2686   2.855   1.754   5.900 -0.5136 -0.2164  0.6339
    7RES   C155 2687   2.988   1.836   5.922 -0.1037 -0.2368 -0.3720
    7RES   H156 2688   2.280   1.614   6.028  0.1399  1.8230 -0.8101
    7RES   H157 2689   2.449   1.587   6.010  0.2496  2.5049  0.5596
    7RES   H158 2690   2.368   1.695   5.767  0.8440  1.8251  0.3624
    7RES   H159 2691   2.474   1.922   5.840 -0.2952 -1.0217 -0.2929
    7RES   H160 2692   2.484   1.864   6.004  1.1905 -0.9867 -0.3969
    7RES   H161 2693   2.630   1.775   5.747  0.3851  2.0912 -0.2462
    7RES   H162 2694   2.619   1.682   5.901 -2.0906 -0.7168 -1.2441
    7RES   H163 2695   2.727   1.855   6.023 -1.0976  0.9805 -0.1834
    7RES   H164 2696   2.750   1.940   5.872  1.2491  0.4371  3.9631
    7RES   H165 2697   2.856   1.703   5.804  1.3115  2.8343 -1.0634
    7RES   H166 2698   2.852   1.673   5.973 -0.6938  0.7041  1.6697
    7RES   H167 2699   2.990   1.906   6.005 -1.3323  1.5927 -1.8600
    7RES   H168 2700   3.021   1.889   5.833  0.1330  2.6038  1.3486
    7RES   H169 2701   3.068   1.769   5.954  0.1216  0.8062  1.3511
    7RES   C170 2702   2.223   1.809   5.892 -0.2804  0.5496 -0.1907
    7RES   C171 2703   2.186   1.922   5.789 -0.1345  0.8650  0.5916
    7RES   C172 2704   2.144   1.854   5.654 -0.1149 -0.5751 -0.2162
    7RES   C173 2705   2.162   1.939   5.537 -0.0286 -0.8719  0.2161
    7RES   C174 2706   2.129   1.862   5.407  0.3812  0.1285  0.3504
    7RES   C175 2707   2.215   1.738   5.363 -0.6946  0.3655  0.8119
    7RES   C176 2708   2.360   1.773   5.314  0.6083 -0.0846  0.1243
    7RES   H177 2709   2.222   1.861   5.988  0.0128 -0.1681  0.2071
    7RES   H178 2710   2.143   1.737   5.908  0.0620  0.3601  0.7074
    7RES   H179 2711   2.276   1.980   5.767  1.0615 -0.8856  0.7387
    7RES   H180 2712   2.042   1.817   5.669 -0.5357  0.1286 -1.2590
    7RES   H181 2713   2.196   1.762   5.627 -0.8320 -0.8394 -0.7023
    7RES   H182 2714   2.266   1.974   5.537  0.4553 -2.1839 -1.8923
    7RES   H183 2715   2.103   2.030   5.544 -1.0143 -1.5714  1.1029
    7RES   H184 2716   2.131   1.925   5.318  1.1139  0.8591  0.8738
    7RES   H185 2717   2.031   1.818   5.419  1.0751 -1.9761 -1.2462
    7RES   H186 2718   2.156   1.691   5.285  1.1947  1.5486 -1.4018
    7RES   H187 2719   2.214   1.666   5.445  2.7920  1.3505  1.8379
    7RES   H188 2720   2.353   1.865   5.256 -1.0521 -0.3080 -0.0411
    7RES   H189 2721   2.410   1.695   5.256  0.7520  0.7867 -0.9351
    7RES   H190 2722   2.429   1.805   5.392 -0.0371 -1.3636  1.2370
    7RES   C191 2723   2.082   2.015   5.841  0.0742  0.0366 -0.9531
    7RES   C192 2724   2.134   2.157   5.883 -0.0397  0.2814  0.0195
    7RES   C193 2725   2.020   2.257   5.883  0.5155 -0.1501  0.6013
    7RES   C194 2726   1.901   2.215   5.978 -0.0660 -0.4592 -0.6693
    7RES   C195 2727   1.801   2.329   5.984 -0.2319 -0.2820 -0.3300
    7RES   C196 2728   1.695   2.307   6.086  0.6260  0.0453 -0.6784
    7RES   C197 2729   1.583   2.418   6.094  0.3300 -0.3033 -0.1828
    7RES   H198 2730   2.031   1.969   5.926  1.8159 -0.0969  0.0700
    7RES   H199 2731   2.012   2.028   5.759  1.6287 -0.1098 -2.3300
    7RES   H200 2732   2.199   2.194   5.804 -2.7944 -0.7739 -2.8406
    7RES   H201 2733   1.968   2.251   5.787 -0.0112 -3.7184  1.0484
    7RES   H202 2734   2.056   2.358   5.904 -1.3659  0.4834  0.8434
    7RES   H203 2735   1.927   2.178   6.077  0.3141 -0.2756 -0.7027
    7RES   H204 2736   1.845   2.133   5.932 -1.8178  1.0653 -1.3240
    7RES   H205 2737   1.852   2.420   6.015 -2.5153  0.3898  1.6707
    7RES   H206 2738   1.756   2.352   5.887 -0.0832 -2.2780 -0.8960
    7RES   H207 2739   1.735   2.296   6.187  0.6824 -1.7512 -0.8735
    7RES   H208 2740   1.636   2.217   6.066 -0.7835  0.6224  0.7493
    7RES   H209 2741   1.547   2.430   5.992 -2.2579 -1.8077  0.5040
    7RES   H210 2742   1.645   2.507   6.103 -2.6594  2.0548 -2.0289
    7RES   H211 2743   1.503   2.411   6.168  0.8838 -0.9904  0.3654
    7RES   C212 2744   2.218   2.154   6.013  0.4304  0.1504 -0.0675
    7RES   C213 2745   2.290   2.281   6.049 -0.0541 -0.7444 -0.2227
    7RES   C214 2746   2.306   2.282   6.195 -0.3074 -0.2237 -0.5853
    7RES   C215 2747   2.180   2.333   6.273 -0.1389  0.3518 -0.3943
    7RES   C216 2748   2.125   2.471   6.241  0.0766 -0.6072  0.8695
    7RES   C217 2749   2.021   2.524   6.338 -0.1872 -0.6156 -0.3166
    7RES   C218 2750   2.077   2.566   6.480  0.1137  0.7133  0.1113
    7RES   H219 2751   2.286   2.070   5.998 -1.3258 -1.6594  1.8987
    7RES   H220 2752   2.170   2.115   6.103  2.2436 -0.4194  0.6716
    7RES   H221 2753   2.233   2.368   6.015 -0.1184 -0.5221  0.4513
    7RES   H222 2754   2.333   2.183   6.233 -0.0279 -0.7368 -2.1028
    7RES   H223 2755   2.390   2.346   6.222 -1.0342  0.2157  0.7125
    7RES   H224 2756   2.209   2.331   6.378  2.4374  4.0494 -0.9261
    7RES   H225 2757   2.096   2.264   6.270  2.1103 -2.5595  0.5996
    7RES   H226 2758   2.211   2.538   6.242 -0.8901  0.7148 -1.4157
    7RES   H227 2759   2.081   2.488   6.143 -1.3272  2.0036  1.9090
    7RES   H228 2760   1.989   2.618   6.292  3.3145  1.3014  1.0312
    7RES   H229 2761   1.943   2.451   6.362  2.1109 -1.6169  4.7368
    7RES   H230 2762   2.152   2.641   6.454 -1.0324  2.1911  1.0098
    7RES   H231 2763   2.121   2.482   6.534  2.0764  0.9904 -1.0348
    7RES   H232 2764   2.000   2.612   6.542  1.0989  1.3575  0.8853
    7RES   C233 2765   2.435   2.276   5.982  0.1319 -0.4364  0.1408
    7RES   C234 2766   2.515   2.406   5.969  0.5746  0.7145 -0.4125
    7RES   C235 2767   2.663   2.387   5.930 -0.1979 -0.1594 -0.1415
    7RES   C236 2768   2.742   2.275   6.003  0.3420 -0.3738  0.4185
    7RES   C237 2769   2.737   2.293   6.158  0.7198 -0.8399 -0.4865
    7RES   C238 2770   2.791   2.181   6.234 -0.5065  0.5885 -0.7695
    7RES   C239 2771   2.694   2.065   6.248 -0.4765  0.4480 -0.1150
    7RES   H240 2772   2.439   2.225   5.886  0.7105 -1.0020  0.4596
    7RES   H241 2773   2.484   2.204   6.047  1.7468 -0.9503 -1.6098
    7RES   H242 2774   2.521   2.458   6.064  1.4000 -0.4047  0.1581
    7RES   H243 2775   2.717   2.479   5.949  1.3929 -0.9460 -0.8381
    7RES   H244 2776   2.673   2.384   5.822  0.5040  3.6796 -0.2546
    7RES   H245 2777   2.847   2.279   5.974  0.0678  0.1896 -0.5068
    7RES   H246 2778   2.705   2.177   5.972 -0.9922  0.0164  0.7308
    7RES   H247 2779   2.635   2.312   6.193  0.7686 -0.1529 -0.7035
    7RES   H248 2780   2.798   2.381   6.178 -0.6616  0.1549 -0.5161
    7RES   H249 2781   2.887   2.164   6.185  0.6850  2.2857  0.8939
    7RES   H250 2782   2.808   2.215   6.337  0.0387  0.4216 -0.8029
    7RES   H251 2783   2.681   2.008   6.156  0.3650  1.2446 -0.7327
    7RES   H252 2784   2.740   2.003   6.325 -0.2448 -0.2708 -0.8255
    7RES   H253 2785   2.602   2.090   6.302  0.0028 -0.0592  0.9508
    7RES   C254 2786   2.441   2.502   5.868 -0.0779  0.5049  0.0061
    7RES   C255 2787   2.493   2.646   5.847  0.0582  0.1946  0.5169
    7RES   C256 2788   2.462   2.737   5.965 -1.0209  0.1420 -0.6170
    7RES   C257 2789   2.314   2.774   5.982 -0.0897  0.5239  0.1067
    7RES   C258 2790   2.284   2.841   6.117  0.8756 -0.6231 -0.3788
    7RES   C259 2791   2.144   2.903   6.115  0.4371 -0.1577  0.3073
    7RES   C260 2792   2.104   2.918   6.261  0.2419 -0.8394  0.4987
    7RES   H261 2793   2.337   2.510   5.896  0.2099 -0.1882  1.3026
    7RES   H262 2794   2.439   2.443   5.776 -1.4686  0.5795 -0.0142
    7RES   H263 2795   2.602   2.641   5.840 -0.0154 -2.7822  0.8505
    7RES   H264 2796   2.528   2.824   5.962  1.6331 -1.8023 -0.3958
    7RES   H265 2797   2.491   2.677   6.051 -0.2487  0.1367 -0.8805
    7RES   H266 2798   2.309   2.850   5.905 -0.6419  0.8477  0.4574
    7RES   H267 2799   2.241   2.696   5.963  1.4796 -0.5722 -1.5829
    7RES   H268 2800   2.358   2.918   6.139  1.7512 -0.6108 -3.2357
    7RES   H269 2801   2.296   2.760   6.189  2.0910 -0.0083  0.1059
    7RES   H270 2802   2.133   3.004   6.077 -1.2246 -0.9754 -1.4632
    7RES   H271 2803   2.063   2.839   6.079 -2.2937  1.6482  2.9132
    7RES   H272 2804   2.014   2.979   6.273  1.4167  1.0086  0.1797
    7RES   H273 2805   2.083   2.825   6.313  0.2750 -0.0859  1.8902
    7RES   H274 2806   2.172   2.975   6.325  0.0775  1.1785 -1.0691
    7RES   C275 2807   2.445   2.696   5.708  0.3611  0.3355  0.1712
    7RES   C276 2808   2.530   2.646   5.586  0.0031  0.2243  0.8214
    7RES   C277 2809   2.674   2.705   5.589 -0.4431 -0.1128  0.5450
    7RES   C278 2810   2.693   2.860   5.569 -0.8885 -0.7054  0.8056
    7RES   C279 2811   2.843   2.903   5.562 -0.5248  0.7039 -0.1010
    7RES   C280 2812   2.925   2.848   5.450 -0.2045  0.6671 -0.2471
    7RES   C281 2813   2.891   2.924   5.321 -0.7194 -0.5818 -0.2513
    7RES   H282 2814   2.455   2.805   5.714 -0.8029  0.4615 -0.1647
    7RES   H283 2815   2.337   2.689   5.705  0.4246 -1.0615  1.0721
    7RES   H284 2816   2.537   2.537   5.588  2.4773  0.2953 -0.9037
    7RES   H285 2817   2.738   2.679   5.674 -0.9557 -0.1825  0.9118
    7RES   H286 2818   2.711   2.652   5.502 -0.4573 -1.4645  1.3479
    7RES   H287 2819   2.637   2.919   5.642 -3.2162  0.5330 -1.8612
    7RES   H288 2820   2.650   2.886   5.472 -0.0707  0.8483  0.8494
    7RES   H289 2821   2.891   2.882   5.657  0.8461  0.5620 -0.8003
    7RES   H290 2822   2.845   3.012   5.552  0.5391  0.6841 -0.1683
    7RES   H291 2823   3.033   2.857   5.469 -0.6526 -0.8598  3.4171
    7RES   H292 2824   2.903   2.743   5.434 -0.1088  0.2150  2.3572
    7RES   H293 2825   2.924   3.027   5.309  0.5779 -0.7414  1.8337
    7RES   H294 2826   2.782   2.915   5.310 -0.6619 -1.1010 -0.4198
    7RES   H295 2827   2.939   2.870   5.240  2.1296  0.6084  0.6007
    7RES   C296 2828   2.455   2.677   5.449  0.1967 -0.6035 -1.5032
    7RES   C297 2829   2.484   2.562   5.346  0.3675 -0.2945  0.3696
    7RES   C298 2830   2.494   2.605   5.195  0.5087 -0.1826 -0.0836
    7RES   C299 2831   2.618   2.671   5.144  0.3534  0.3046  0.0792
    7RES   C300 2832   2.636   2.672   4.989  0.0407  0.4163 -0.1413
    7RES   C301 2833   2.760   2.744   4.935 -0.0292 -0.3163  0.4745
    7RES   C302 2834   2.750   2.783   4.786 -0.4155 -0.0733  0.0493
    7RES   H303 2835   2.347   2.681   5.465  0.6476  1.4073  1.4313
    7RES   H304 2836   2.462   2.781   5.416  0.8070 -0.5190 -1.1120
    7RES   H305 2837   2.575   2.509   5.373 -0.2250 -1.5041  0.0490
    7RES   H306 2838   2.491   2.516   5.133  0.1538  1.1093 -1.9596
    7RES   H307 2839   2.407   2.664   5.167  0.2108 -0.4136  0.3576
    7RES   H308 2840   2.713   2.630   5.181  1.6361 -0.0246 -3.3650
    7RES   H309 2841   2.613   2.774   5.179 -1.6630 -0.4514  2.1050
    7RES   H310 2842   2.546   2.713   4.943  0.5385  1.5150 -0.1568
    7RES   H311 2843   2.652   2.568   4.963  3.1869  0.8601 -0.1292
    7RES   H312 2844   2.778   2.829   5.001 -0.9654 -1.1567  1.8302
    7RES   H313 2845   2.845   2.676   4.946 -0.1370 -0.2434  1.9636
    7RES   H314 2846   2.719   2.700   4.722  0.5146  0.1996 -0.7720
    7RES   H315 2847   2.679   2.866   4.779 -1.2930 -0.6868  1.5113
    7RES   H316 2848   2.843   2.817   4.740 -0.2174 -0.0724  0.4529
    7RES   C317 2849   2.372   2.453   5.349  0.3000  0.0450  0.4184
    7RES   C318 2850   2.416   2.305   5.310 -0.2190 -0.0737  0.1455
    7RES   C319 2851   2.482   2.256   5.444  0.6769  0.2293 -0.6618
    7RES   C320 2852   2.585   2.141   5.418 -0.7236 -0.2990 -0.4465
    7RES   C321 2853   2.673   2.098   5.545  0.6993  0.0196  0.0859
    7RES   C322 2854   2.790   2.200   5.580 -0.0450  0.3151  0.5849
    7RES   C323 2855   2.903   2.137   5.669  0.7424 -0.0975  0.4590
    7RES   H324 2856   2.284   2.474   5.288  0.6659 -0.0363 -0.1459
    7RES   H325 2857   2.327   2.446   5.448 -2.1950  1.4867 -0.5903
    7RES   H326 2858   2.493   2.302   5.233  0.2094 -0.5454  0.5898
    7RES   H327 2859   2.399   2.227   5.508  1.8710  1.7178  1.6275
    7RES   H328 2860   2.531   2.337   5.497  2.7722 -0.2004 -1.8878
    7RES   H329 2861   2.655   2.180   5.343  1.2616  0.0299  1.5266
    7RES   H330 2862   2.538   2.059   5.362 -0.5751  0.3650 -1.5721
    7RES   H331 2863   2.724   2.004   5.525  2.5626  1.2229 -0.9897
    7RES   H332 2864   2.615   2.087   5.637 -0.6457 -1.3089 -0.8891
    7RES   H333 2865   2.758   2.285   5.640  0.3627  0.2496  0.8958
    7RES   H334 2866   2.837   2.231   5.487 -1.6404  0.9806 -0.0289
    7RES   H335 2867   2.864   2.100   5.764 -2.2119  2.2586  0.2385
    7RES   H336 2868   2.977   2.214   5.691 -0.3757  1.6206 -1.5914
    7RES   H337 2869   2.957   2.053   5.627  1.3314  1.2254 -1.4854
    7RES   C338 2870   2.305   2.212   5.255 -0.1854 -0.4692 -0.2718
    7RES   C339 2871   2.239   2.254   5.120 -0.0935  0.1557  0.4522
    7RES   C340 2872   2.116   2.162   5.084 -0.0095 -0.3986 -0.6480
    7RES   C341 2873   1.994   2.191   5.175 -0.4895 -0.7772  0.6755
    7RES   C342 2874   1.883   2.086   5.150  0.2755 -0.0646  0.0841
    7RES   C343 2875   1.746   2.121   5.210 -0.5012  0.8660  0.1144
    7RES   C344 2876   1.727   2.080   5.357  0.1522  0.0789 -0.4743
    7RES   H345 2877   2.224   2.209   5.328 -0.1923  0.7110 -0.2129
    7RES   H346 2878   2.357   2.119   5.233  0.3970 -0.3987  0.7773
    7RES   H347 2879   2.200   2.356   5.125  2.0912  1.3262 -3.4171
    7RES   H348 2880   2.086   2.161   4.980  1.4410 -2.5101 -1.0929
    7RES   H349 2881   2.140   2.056   5.090 -1.5223 -0.8138 -1.5878
    7RES   H350 2882   1.965   2.294   5.152  1.2339 -0.6105 -0.7758
    7RES   H351 2883   2.001   2.183   5.284  1.7595 -0.2081  0.5891
    7RES   H352 2884   1.872   2.071   5.043 -0.8448  0.0273  0.1775
    7RES   H353 2885   1.913   1.987   5.185  1.2364  0.8394  1.8657
    7RES   H354 2886   1.725   2.228   5.211 -1.5528  0.6699 -0.0988
    7RES   H355 2887   1.669   2.073   5.151 -0.0699  0.7584 -0.3631
    7RES   H356 2888   1.732   1.973   5.375  1.1275  0.2547  0.3241
    7RES   H357 2889   1.629   2.114   5.391  0.1198 -1.3071  0.8660
    7RES   H358 2890   1.797   2.115   5.433 -1.6104  0.6049  0.9545
    7RES   C359 2891   2.347   2.259   5.009  1.3726  0.4519  0.4002
    7RES   C360 2892   2.309   2.300   4.868 -0.9396  0.1572 -0.3726
    7RES   C361 2893   2.199   2.412   4.843  0.0100  0.2980 -0.5999
    7RES   C362 2894   2.234   2.565   4.863  0.1612  0.3651 -0.2038
    7RES   C363 2895   2.124   2.663   4.824 -0.1981 -0.2937  0.4688
    7RES   C364 2896   2.186   2.802   4.798 -0.1794 -0.0118 -0.4712
    7RES   C365 2897   2.077   2.916   4.773 -0.7766 -0.1772 -0.3865
    7RES   H366 2898   2.388   2.158   5.001  0.0287 -0.1349  0.7645
    7RES   H367 2899   2.431   2.322   5.037  1.5854  0.1637  0.4092
    7RES   H368 2900   2.252   2.216   4.828  0.2377 -0.8336  0.0043
    7RES   H369 2901   2.173   2.406   4.738 -0.1370  0.6709 -0.5831
    7RES   H370 2902   2.108   2.369   4.885  0.0179  1.6464  0.8445
    7RES   H371 2903   2.252   2.583   4.969 -3.0016 -1.4342  0.6889
    7RES   H372 2904   2.325   2.595   4.810  0.7754 -0.6546  0.2441
    7RES   H373 2905   2.079   2.641   4.728  0.3531  2.8944 -0.5853
    7RES   H374 2906   2.042   2.660   4.897  0.6606 -0.5878  1.4374
    7RES   H375 2907   2.248   2.830   4.884  1.7990 -0.4641 -1.7239
    7RES   H376 2908   2.243   2.792   4.706 -1.6272  0.8400 -1.4769
    7RES   H377 2909   2.121   3.008   4.812  1.2064 -0.6602 -1.4137
    7RES   H378 2910   2.058   2.937   4.667 -0.3049  0.8437 -0.2753
    7RES   H379 2911   1.989   2.887   4.831 -1.2039 -1.0140 -1.4387
    7RES   C380 2912   2.427   2.320   4.767 -0.0986 -0.1753  0.2094
    7RES   C381 2913   2.527   2.204   4.742 -0.5193  0.2870  0.3393
    7RES   C382 2914   2.516   2.138   4.598  0.1248  0.4577  0.3735
    7RES   C383 2915   2.369   2.098   4.575  0.8099 -0.3676 -0.2551
    7RES   C384 2916   2.358   1.998   4.461  0.1122 -0.0337 -0.1236
    7RES   C385 2917   2.217   1.952   4.423  0.0285 -0.6608  0.3073
    7RES   C386 2918   2.174   1.819   4.496 -0.0454 -0.2495  0.2304
    7RES   H387 2919   2.381   2.354   4.674 -1.3974  1.8395  1.5399
    7RES   H388 2920   2.480   2.409   4.802  1.1715 -0.3920 -1.0935
    7RES   H389 2921   2.496   2.124   4.809  0.0426 -0.3965 -0.2046
    7RES   H390 2922   2.579   2.050   4.594  0.2161  0.5019  0.8788
    7RES   H391 2923   2.541   2.212   4.521 -0.3244  0.7751  0.5273
    7RES   H392 2924   2.337   2.044   4.665  2.5345  0.3172  0.7856
    7RES   H393 2925   2.301   2.183   4.570  0.6287 -0.2978  2.2949
    7RES   H394 2926   2.396   2.049   4.373  0.1757 -0.9371 -0.6255
    7RES   H395 2927   2.422   1.910   4.471  0.2191  0.0199 -0.3334
    7RES   H396 2928   2.209   1.936   4.316 -1.1379  0.0143  0.2857
    7RES   H397 2929   2.143   2.027   4.452 -2.2944 -3.9323  3.2215
    7RES   H398 2930   2.182   1.832   4.604  0.5606 -2.3831  0.4680
    7RES   H399 2931   2.232   1.727   4.487  1.4087  0.4690  2.0515
    7RES   H400 2932   2.069   1.798   4.476  0.4941 -1.0176 -1.9225
    7RES   C401 2933   2.676   2.247   4.768 -0.1574 -0.6821 -0.4117
    7RES   C402 2934   2.730   2.248   4.916  0.0570  0.3703  0.6266
    7RES   C403 2935   2.868   2.319   4.917 -0.9861 -0.9168  0.7364
    7RES   C404 2936   2.900   2.354   5.062 -0.4724 -0.3120  0.0926
    7RES   C405 2937   3.047   2.393   5.081  0.9743 -0.2750 -0.2776
    7RES   C406 2938   3.079   2.415   5.229  0.3573 -0.2146  0.5703
    7RES   C407 2939   2.996   2.527   5.296 -0.1698 -0.8116  0.2515
    7RES   H408 2940   2.689   2.335   4.706 -2.4890 -0.6746 -0.9664
    7RES   H409 2941   2.743   2.178   4.716 -0.1471 -0.1392 -1.1275
    7RES   H410 2942   2.741   2.144   4.946  1.5472  1.1913  3.0793
    7RES   H411 2943   2.862   2.396   4.840 -1.4593 -1.0501  0.6388
    7RES   H412 2944   2.941   2.247   4.879 -1.9262 -0.5448 -1.8610
    7RES   H413 2945   2.876   2.273   5.130  0.0161 -0.6403 -0.1272
    7RES   H414 2946   2.839   2.437   5.100 -2.7208 -1.5229 -0.8390
    7RES   H415 2947   3.112   2.315   5.040  0.4842 -0.8808  0.0963
    7RES   H416 2948   3.068   2.477   5.014 -0.0022  0.3909  0.2459
    7RES   H417 2949   3.068   2.320   5.281  0.7368 -1.1035 -0.9734
    7RES   H418 2950   3.186   2.435   5.224  1.0096 -2.4576  3.6872
    7RES   H419 2951   2.991   2.617   5.235  0.8968 -1.2703 -0.5063
    7RES   H420 2952   3.036   2.550   5.395  0.7946  1.7357 -0.7124
    7RES   H421 2953   2.893   2.496   5.315 -1.0627  1.5606 -0.6038
    7RES   H422 2954   2.654   2.296   4.978 -0.0202  2.7948 -1.2645
    8RES     C1 2955   2.578   5.533   7.290  0.5336 -0.7592 -0.4318
    8RES     C2 2956   2.527   5.578   7.161 -0.0443  0.2155  0.4368
    8RES     C3 2957   2.419   5.493   7.094 -0.4543 -0.0623  0.1346
    8RES     C4 2958   2.282   5.497   7.166  0.5428 -0.8065  0.6801
    8RES     C5 2959   2.183   5.406   7.094 -0.4729 -0.4878  0.2788
    8RES     C6 2960   2.062   5.371   7.168  0.3676  0.3177  0.1882
    8RES     C7 2961   1.961   5.287   7.085  0.2004 -0.0805  0.0750
    8RES     H8 2962   2.644   5.606   7.336 -1.3148 -0.5370  1.9896
    8RES     H9 2963   2.609   5.429   7.277  0.4023 -0.9488  0.7242
    8RES    H10 2964   2.486   5.679   7.171 -0.0534  0.1694  0.8792
    8RES    H11 2965   2.394   5.518   6.991  0.5706  1.3095  0.2123
    8RES    H12 2966   2.451   5.388   7.095  1.4056  0.4887 -0.3156
    8RES    H13 2967   2.300   5.468   7.269 -0.4373 -1.7801  0.5849
    8RES    H14 2968   2.248   5.600   7.164 -0.1028 -1.0304 -0.6914
    8RES    H15 2969   2.234   5.316   7.061 -0.3600 -0.1487 -0.4847
    8RES    H16 2970   2.152   5.467   7.009  0.9302  0.0395  0.1377
    8RES    H17 2971   2.029   5.457   7.227 -3.2818 -0.8171 -0.0719
    8RES    H18 2972   2.090   5.297   7.242  0.7783 -0.3370 -0.6158
    8RES    H19 2973   2.005   5.231   7.003  0.1359  0.7702 -0.5488
    8RES    H20 2974   1.889   5.356   7.041  0.8359  0.6772  0.2083
    8RES    H21 2975   1.901   5.222   7.148 -0.5500  0.3263 -0.2168
    8RES    H22 2976   2.498   5.539   7.363  0.2307 -1.9772 -0.6417
    8RES    C23 2977   2.656   5.610   7.086 -1.1946  0.9392 -0.2733
    8RES    C24 2978   2.652   5.634   6.931 -0.4334 -0.1654 -0.6440
    8RES    C25 2979   2.790   5.627   6.864 -0.7739  0.2302 -0.4595
    8RES    C26 2980   2.895   5.709   6.942  0.8906  0.0744  0.2036
    8RES    C27 2981   3.036   5.707   6.879 -0.2467  0.0668  0.4114
    8RES    C28 2982   3.161   5.739   6.959 -0.4211  0.2698 -0.0786
    8RES    C29 2983   3.149   5.868   7.033 -0.1191 -0.3476  0.2577
    8RES    H30 2984   2.716   5.688   7.133  1.8817 -1.1253 -0.6659
    8RES    H31 2985   2.715   5.519   7.095 -1.0871  1.1003  0.6895
    8RES    H32 2986   2.609   5.553   6.872 -1.1291  1.2583 -2.1314
    8RES    H33 2987   2.785   5.675   6.766  2.9530 -0.0237 -0.8237
    8RES    H34 2988   2.822   5.525   6.841 -2.0189  0.1034 -1.6895
    8RES    H35 2989   2.905   5.666   7.042  0.8736  2.1455  1.1223
    8RES    H36 2990   2.875   5.814   6.965  0.9434 -0.1230  1.1803
    8RES    H37 2991   3.024   5.776   6.796  1.2085  1.1130  1.0511
    8RES    H38 2992   3.053   5.613   6.827  0.1037 -0.7825  2.0090
    8RES    H39 2993   3.249   5.746   6.895  1.3380 -3.2104  1.7792
    8RES    H40 2994   3.189   5.662   7.031  2.1620  1.3008  0.0597
    8RES    H41 2995   3.237   5.911   7.081  0.4952 -1.2738 -0.0181
    8RES    H42 2996   3.112   5.933   6.954  1.2631  1.9258  1.4342
    8RES    H43 2997   3.072   5.851   7.108  0.3841  0.4459  0.9738
    8RES    C44 2998   2.567   5.761   6.897 -0.5785  0.2186 -0.2152
    8RES    C45 2999   2.544   5.796   6.746  0.6079  0.5766  0.2454
    8RES    C46 3000   2.395   5.851   6.730 -1.0026 -0.5858  0.0549
    8RES    C47 3001   2.300   5.738   6.686 -0.0374  0.6352 -0.0695
    8RES    C48 3002   2.151   5.758   6.725  0.0138 -1.3303 -0.6289
    8RES    C49 3003   2.103   5.897   6.676 -0.0232 -0.3736 -0.9654
    8RES    C50 3004   2.117   5.921   6.526 -0.1320  0.0537  0.0602
    8RES    H51 3005   2.610   5.842   6.955 -0.8462  0.3502 -0.2025
    8RES    H52 3006   2.466   5.746   6.934 -0.4473 -1.7842 -0.6062
    8RES    H53 3007   2.553   5.701   6.693 -1.0690  2.0168 -2.8022
    8RES    H54 3008   2.386   5.914   6.641  1.1206 -0.6890 -0.2535
    8RES    H55 3009   2.353   5.899   6.819 -1.4887  1.1857 -1.0893
    8RES    H56 3010   2.302   5.720   6.578  1.4604  2.5593 -0.3917
    8RES    H57 3011   2.334   5.647   6.735  0.6785  2.1368  2.3368
    8RES    H58 3012   2.140   5.741   6.832  1.2795 -0.8985 -0.4298
    8RES    H59 3013   2.088   5.681   6.680 -0.8667 -0.2975 -1.2014
    8RES    H60 3014   2.167   5.974   6.719 -2.0867  0.2615  1.0841
    8RES    H61 3015   2.005   5.929   6.711 -0.7958 -2.1656 -1.3844
    8RES    H62 3016   2.076   6.016   6.491 -3.4144 -1.3875 -0.2627
    8RES    H63 3017   2.052   5.846   6.480  0.4573 -0.0554 -0.6013
    8RES    H64 3018   2.213   5.897   6.480 -1.9014 -3.4097 -2.0495
    8RES    C65 3019   2.638   5.904   6.697 -0.3688 -0.0854  0.0396
    8RES    C66 3020   2.643   5.909   6.543 -0.4095  0.4637  1.0379
    8RES    C67 3021   2.748   5.821   6.475 -0.3366  0.1050 -0.4718
    8RES    C68 3022   2.896   5.846   6.511  0.7707 -0.0269 -0.2278
    8RES    C69 3023   2.984   5.905   6.399  0.1491 -0.3008 -0.1573
    8RES    C70 3024   3.009   5.811   6.291  0.0907 -0.1998 -0.4430
    8RES    C71 3025   3.122   5.850   6.195  0.3314  0.5513  0.1756
    8RES    H72 3026   2.612   5.999   6.743  3.7339  0.9625  0.4278
    8RES    H73 3027   2.738   5.893   6.740  0.0576  0.1407 -0.8903
    8RES    H74 3028   2.553   5.861   6.505 -0.0449 -1.6229  2.7410
    8RES    H75 3029   2.713   5.722   6.506  1.0691 -0.3537 -0.3277
    8RES    H76 3030   2.734   5.816   6.367 -2.2714 -0.7692 -0.2021
    8RES    H77 3031   2.912   5.907   6.599 -0.4640 -1.3962  0.9732
    8RES    H78 3032   2.932   5.750   6.549 -0.4500 -0.3672  0.1197
    8RES    H79 3033   2.937   5.999   6.371 -1.0524 -0.8689 -0.0623
    8RES    H80 3034   3.081   5.925   6.445 -0.8844  0.4137  1.7661
    8RES    H81 3035   2.922   5.801   6.225 -1.7104  5.5528  0.8033
    8RES    H82 3036   3.031   5.718   6.342 -0.5338 -0.7798 -1.2136
    8RES    H83 3037   3.148   5.771   6.124 -0.3159  1.4738 -1.1108
    8RES    H84 3038   3.091   5.933   6.131  0.0864 -1.6783 -2.7040
    8RES    H85 3039   3.206   5.882   6.257 -0.7852  1.3061  1.3335
    8RES    C86 3040   2.646   6.052   6.486 -0.7531  0.2759 -0.4768
    8RES    C87 3041   2.611   6.075   6.338 -0.5773  0.4758  0.3114
    8RES    C88 3042   2.465   6.045   6.322 -0.1178 -0.0513  0.4998
    8RES    C89 3043   2.416   6.039   6.174 -0.5055 -0.0821  0.4388
    8RES    C90 3044   2.263   6.018   6.172 -0.0971 -0.3354 -0.4475
    8RES    C91 3045   2.210   6.002   6.024  0.1930 -0.8501 -0.6932
    8RES    C92 3046   2.063   6.029   6.022  0.5625  0.6260  0.9366
    8RES    H93 3047   2.583   6.112   6.551  1.2456 -0.0515  1.8493
    8RES    H94 3048   2.746   6.090   6.506  0.3488 -1.9304 -1.6332
    8RES    H95 3049   2.678   6.010   6.282  0.3911 -0.7380  2.7725
    8RES    H96 3050   2.445   5.943   6.356  0.4503 -0.5599 -0.6270
    8RES    H97 3051   2.407   6.111   6.385 -0.4698  0.6423 -0.5282
    8RES    H98 3052   2.458   6.128   6.127  1.3023 -0.9289  0.4264
    8RES    H99 3053   2.470   5.956   6.131  0.3688 -0.2376  1.7898
    8RES   H100 3054   2.214   6.102   6.220 -2.5838 -0.9924 -1.7807
    8RES   H101 3055   2.245   5.937   6.244  2.7183 -0.3834  0.2550
    8RES   H102 3056   2.252   6.081   5.962  1.3741 -1.3860 -0.5842
    8RES   H103 3057   2.234   5.900   5.996  0.3796 -0.6284 -1.3501
    8RES   H104 3058   2.039   6.131   6.054  0.0986  0.5316  0.8743
    8RES   H105 3059   2.010   5.949   6.073  1.3092  0.6310  1.7445
    8RES   H106 3060   2.032   6.022   5.918  3.0444 -0.2374  0.2100
    8RES   C107 3061   2.659   6.209   6.281  0.2380 -0.6669 -0.1555
    8RES   C108 3062   2.577   6.330   6.345 -0.1298  0.8810 -0.2778
    8RES   C109 3063   2.664   6.392   6.460  0.5184 -0.5856 -0.7085
    8RES   C110 3064   2.570   6.462   6.563  0.1644 -0.3598  0.4490
    8RES   C111 3065   2.640   6.571   6.647 -0.1264 -0.4500 -0.2632
    8RES   C112 3066   2.535   6.629   6.748 -0.3879 -0.4465 -0.1017
    8RES   C113 3067   2.602   6.726   6.850  0.4346  0.4592 -0.2068
    8RES   H114 3068   2.652   6.204   6.173  1.2919 -0.5612 -0.2340
    8RES   H115 3069   2.766   6.223   6.297  0.1081 -1.4539  1.6213
    8RES   H116 3070   2.483   6.304   6.393 -0.1648 -0.8696 -1.2617
    8RES   H117 3071   2.726   6.471   6.418 -0.5641  1.1780  0.9011
    8RES   H118 3072   2.734   6.319   6.501  1.7949 -0.7888 -3.1231
    8RES   H119 3073   2.494   6.525   6.516 -1.5719 -3.1073 -0.5931
    8RES   H120 3074   2.523   6.396   6.636 -1.2779  0.8192  0.6314
    8RES   H121 3075   2.704   6.639   6.591  0.8086  1.4686  3.0381
    8RES   H122 3076   2.706   6.514   6.713 -0.7388 -1.2097 -0.2935
    8RES   H123 3077   2.465   6.686   6.687  1.6002  0.2504 -1.7931
    8RES   H124 3078   2.477   6.556   6.804 -0.7596 -0.4455 -0.4858
    8RES   H125 3079   2.662   6.671   6.922  1.6698 -0.1407 -1.6643
    8RES   H126 3080   2.668   6.801   6.807  0.3371  1.3343  1.1254
    8RES   H127 3081   2.528   6.780   6.909 -0.9982 -1.9069  0.1941
    8RES   C128 3082   2.555   6.447   6.257  0.1302 -0.2052  0.0919
    8RES   C129 3083   2.436   6.437   6.152  0.4363  0.2482 -0.3195
    8RES   C130 3084   2.424   6.568   6.067  0.3582 -0.6640  0.1695
    8RES   C131 3085   2.358   6.549   5.925 -0.7595 -0.0294  0.5912
    8RES   C132 3086   2.451   6.530   5.803  0.3571 -1.2680 -0.5973
    8RES   C133 3087   2.361   6.534   5.678 -0.9879  0.2958  1.0152
    8RES   C134 3088   2.272   6.416   5.650  0.5667  0.5037 -0.4382
    8RES   H135 3089   2.554   6.544   6.307 -0.4458  2.3365 -4.5197
    8RES   H136 3090   2.645   6.449   6.196  1.1260 -1.3567  1.4876
    8RES   H137 3091   2.456   6.359   6.079  1.0088 -0.7950  0.9313
    8RES   H138 3092   2.522   6.614   6.060 -0.2529  0.6939  0.4662
    8RES   H139 3093   2.363   6.638   6.124 -1.1283 -1.7352 -0.0696
    8RES   H140 3094   2.302   6.640   5.902  0.0221 -0.1772 -2.0347
    8RES   H141 3095   2.289   6.465   5.932  0.4725 -1.0690  0.5397
    8RES   H142 3096   2.500   6.437   5.829  0.3821 -1.3285 -0.8581
    8RES   H143 3097   2.524   6.611   5.804 -1.7286  0.6803  1.3504
    8RES   H144 3098   2.424   6.535   5.589  0.2226 -1.7499  1.8056
    8RES   H145 3099   2.300   6.624   5.673  1.1872  1.7746  0.2498
    8RES   H146 3100   2.182   6.409   5.712  2.1428  0.1773  1.9036
    8RES   H147 3101   2.339   6.331   5.662 -0.8554 -0.4377  1.2076
    8RES   H148 3102   2.250   6.422   5.544 -1.0756 -1.4644 -0.2661
    8RES   C149 3103   2.295   6.411   6.225  0.7802  0.4743  0.4662
    8RES   C150 3104   2.244   6.502   6.330 -0.1332  0.0949  0.1617
    8RES   C151 3105   2.194   6.413   6.445  0.6470  0.2940 -0.4638
    8RES   C152 3106   2.128   6.482   6.564  0.0178  1.4028 -0.0261
    8RES   C153 3107   2.092   6.367   6.663 -0.4613  0.3954 -0.4177
    8RES   C154 3108   2.069   6.416   6.798 -0.4410  0.3065 -0.3133
    8RES   C155 3109   2.036   6.296   6.898  0.5620  0.8784  0.1279
    8RES   H156 3110   2.234   6.395   6.136  3.4462 -0.5659 -1.2517
    8RES   H157 3111   2.303   6.308   6.260  1.3196  0.5953  0.7143
    8RES   H158 3112   2.326   6.568   6.357 -0.2504  0.0105  0.7274
    8RES   H159 3113   2.126   6.334   6.415 -1.0891  0.8778  1.7744
    8RES   H160 3114   2.278   6.363   6.492 -0.5674 -1.3907 -0.0357
    8RES   H161 3115   2.032   6.527   6.536  0.4269  0.4291 -3.1695
    8RES   H162 3116   2.192   6.559   6.607 -0.3829  0.3139  2.5687
    8RES   H163 3117   2.177   6.304   6.688 -0.2507  1.3772  1.3575
    8RES   H164 3118   2.023   6.291   6.626 -1.2467 -0.4820  2.7060
    8RES   H165 3119   1.978   6.475   6.797 -1.0934 -0.6993 -0.7805
    8RES   H166 3120   2.149   6.484   6.829 -1.0728  2.1330 -2.5860
    8RES   H167 3121   2.042   6.331   7.001 -2.0531  1.1295  0.2390
    8RES   H168 3122   2.104   6.212   6.890 -0.1624  0.2531  0.4711
    8RES   H169 3123   1.936   6.254   6.885  1.6125 -0.9046 -2.5457
    8RES   C170 3124   2.132   6.582   6.264  0.7137  0.5182 -0.1856
    8RES   C171 3125   2.100   6.719   6.334 -0.3455 -0.3259 -0.1669
    8RES   C172 3126   2.210   6.822   6.295 -0.3811  0.7152 -0.0908
    8RES   C173 3127   2.313   6.847   6.403  0.1378  0.4925  0.1029
    8RES   C174 3128   2.436   6.920   6.339  0.7432 -0.5075 -0.0033
    8RES   C175 3129   2.547   6.944   6.441  0.0343  0.2859  0.7676
    8RES   C176 3130   2.687   6.951   6.377  0.4976  0.3992 -0.1432
    8RES   H177 3131   2.048   6.513   6.271  2.7144 -1.9815 -0.0942
    8RES   H178 3132   2.148   6.596   6.157  1.5269 -1.2291 -0.3072
    8RES   H179 3133   2.104   6.704   6.442 -0.7422 -0.6555 -0.1955
    8RES   H180 3134   2.183   6.924   6.266 -1.0782  0.6853  0.4537
    8RES   H181 3135   2.273   6.783   6.215  0.1984 -0.6387  1.0255
    8RES   H182 3136   2.355   6.756   6.444  0.2841 -1.1732 -3.5009
    8RES   H183 3137   2.274   6.904   6.487  0.6299  0.9123  0.0473
    8RES   H184 3138   2.405   7.016   6.297  0.2585 -1.4538 -1.8712
    8RES   H185 3139   2.476   6.854   6.262  1.1033 -2.5427  1.8855
    8RES   H186 3140   2.545   6.863   6.513  2.1639 -0.8397 -0.3963
    8RES   H187 3141   2.528   7.032   6.502  1.0218  0.6217  0.6000
    8RES   H188 3142   2.711   6.858   6.326  1.8256  1.3275 -1.2353
    8RES   H189 3143   2.772   6.963   6.444  1.0092  1.0222 -0.8907
    8RES   H190 3144   2.698   7.024   6.297  1.0288  0.0053 -0.4277
    8RES   C191 3145   1.964   6.773   6.303  0.0733 -0.2508  0.3628
    8RES   C192 3146   1.849   6.703   6.375 -0.2532  0.1395  0.2225
    8RES   C193 3147   1.838   6.751   6.520 -0.8686  0.4314 -0.5378
    8RES   C194 3148   1.758   6.657   6.615  0.6231  0.1594  0.0795
    8RES   C195 3149   1.771   6.687   6.761  1.1301 -0.6027 -0.4977
    8RES   C196 3150   1.718   6.576   6.851  0.4954 -0.2566  0.3638
    8RES   C197 3151   1.571   6.579   6.884 -0.6586  0.1605 -0.1434
    8RES   H198 3152   1.965   6.764   6.194  2.6218 -0.5443  0.3685
    8RES   H199 3153   1.955   6.879   6.325  1.0312 -0.2263  0.6891
    8RES   H200 3154   1.876   6.598   6.387 -1.4977 -0.0102  2.0622
    8RES   H201 3155   1.787   6.846   6.537  0.8643  1.4685 -1.0137
    8RES   H202 3156   1.942   6.765   6.550 -1.0808 -0.3221  0.5609
    8RES   H203 3157   1.800   6.558   6.598 -1.7412 -1.0638  1.1751
    8RES   H204 3158   1.653   6.647   6.588  0.4644 -1.5888  1.3091
    8RES   H205 3159   1.878   6.697   6.779  1.3050 -1.7683 -0.8191
    8RES   H206 3160   1.726   6.782   6.789  0.0585 -0.9725 -0.9643
    8RES   H207 3161   1.774   6.582   6.944  0.9509  0.0309  0.0708
    8RES   H208 3162   1.756   6.485   6.804  0.5006 -1.2289  2.2175
    8RES   H209 3163   1.550   6.523   6.975 -1.9471 -0.1950 -0.6445
    8RES   H210 3164   1.511   6.537   6.803 -0.8479 -1.8149  0.9808
    8RES   H211 3165   1.546   6.684   6.897  0.2494  0.2460  0.9254
    8RES   C212 3166   1.718   6.724   6.291 -0.0062  0.3076  0.0218
    8RES   C213 3167   1.715   6.636   6.157 -0.0258 -0.6022 -0.3510
    8RES   C214 3168   1.653   6.498   6.171  0.0151  0.0565 -0.0076
    8RES   C215 3169   1.755   6.387   6.232 -0.3176 -0.0586  0.2472
    8RES   C216 3170   1.704   6.241   6.211 -0.1545  0.4292  0.2899
    8RES   C217 3171   1.799   6.140   6.281 -0.1150 -0.1786 -0.1703
    8RES   C218 3172   1.754   5.996   6.263 -0.8333 -0.2971  0.3293
    8RES   H219 3173   1.696   6.828   6.267  2.5363  1.2774  1.6334
    8RES   H220 3174   1.636   6.691   6.355 -0.3522 -0.5639 -0.8592
    8RES   H221 3175   1.816   6.629   6.117  0.5813 -1.9790  1.3688
    8RES   H222 3176   1.567   6.518   6.235 -0.1600 -2.5237  0.6109
    8RES   H223 3177   1.614   6.474   6.073  0.6364 -0.4956 -0.1231
    8RES   H224 3178   1.738   6.408   6.337  0.3810 -2.5143  0.8844
    8RES   H225 3179   1.858   6.399   6.197  0.1157  0.6667  1.7444
    8RES   H226 3180   1.599   6.230   6.237 -0.0761  1.8664  1.3086
    8RES   H227 3181   1.707   6.216   6.105  0.4718 -0.3641  0.4876
    8RES   H228 3182   1.902   6.152   6.245 -0.8724  1.4683 -1.8599
    8RES   H229 3183   1.801   6.159   6.388 -0.3162 -0.9604 -0.0230
    8RES   H230 3184   1.774   5.967   6.160 -0.7919  1.4248 -0.1679
    8RES   H231 3185   1.652   5.966   6.289 -0.6831  0.2063  1.4989
    8RES   H232 3186   1.822   5.927   6.313  0.8528  0.2326 -1.1844
    8RES   C233 3187   1.635   6.723   6.049 -0.3044 -0.3190 -0.8102
    8RES   C234 3188   1.671   6.682   5.905  0.0517 -0.5711 -0.5238
    8RES   C235 3189   1.561   6.731   5.807 -0.7742  0.4567  0.0840
    8RES   C236 3190   1.457   6.620   5.774  0.8588 -0.3532  0.1179
    8RES   C237 3191   1.348   6.665   5.674  0.9367  0.2627  0.2916
    8RES   C238 3192   1.227   6.575   5.657 -0.2872 -0.5445 -0.1561
    8RES   C239 3193   1.093   6.654   5.676  0.0291  0.2390  0.1449
    8RES   H240 3194   1.635   6.832   6.054 -0.3273 -0.2946 -1.2853
    8RES   H241 3195   1.532   6.688   6.061  0.9513 -3.6551  0.7699
    8RES   H242 3196   1.664   6.573   5.905 -0.8196 -0.5137 -0.6089
    8RES   H243 3197   1.617   6.760   5.719  0.1937 -1.1218  0.1540
    8RES   H244 3198   1.505   6.816   5.846  0.3650  1.5506 -0.6461
    8RES   H245 3199   1.408   6.597   5.868 -2.5061  0.1897 -1.4329
    8RES   H246 3200   1.516   6.535   5.740 -1.5534 -1.1425 -2.2228
    8RES   H247 3201   1.404   6.679   5.581  0.5852 -0.1196  0.0184
    8RES   H248 3202   1.306   6.757   5.715  0.2350 -0.1624  0.5337
    8RES   H249 3203   1.218   6.536   5.556 -0.4621  0.6865 -0.6257
    8RES   H250 3204   1.226   6.483   5.717 -2.7303 -1.7936 -2.0446
    8RES   H251 3205   1.082   6.694   5.777 -1.0336 -0.1376  0.1739
    8RES   H252 3206   1.083   6.739   5.608 -2.0408  0.4202  0.6679
    8RES   H253 3207   1.007   6.590   5.658  0.7016 -0.4945 -0.5189
    8RES   C254 3208   1.814   6.718   5.863  0.2115  0.4314  0.0344
    8RES   C255 3209   1.880   6.617   5.770  0.7689 -0.1123  0.1868
    8RES   C256 3210   1.925   6.485   5.842 -0.6665  0.7608 -0.3155
    8RES   C257 3211   1.876   6.346   5.786 -0.0264 -0.4970  0.4708
    8RES   C258 3212   1.727   6.320   5.800  0.3974 -0.5575 -0.2502
    8RES   C259 3213   1.695   6.171   5.761 -0.2020  0.1565  0.2660
    8RES   C260 3214   1.556   6.128   5.725 -1.0280 -0.1459 -0.2612
    8RES   H261 3215   1.881   6.738   5.947  1.2398  3.4820 -1.4476
    8RES   H262 3216   1.803   6.819   5.823  2.0461 -0.1789 -2.1157
    8RES   H263 3217   1.813   6.577   5.694  1.9461 -2.7648  0.5023
    8RES   H264 3218   1.895   6.486   5.947 -0.7097 -0.1399 -0.3116
    8RES   H265 3219   2.031   6.481   5.866 -0.6245 -1.5301 -0.7422
    8RES   H266 3220   1.919   6.329   5.687 -2.2887  1.6909 -0.9665
    8RES   H267 3221   1.926   6.267   5.841 -0.5781 -1.9599 -1.0942
    8RES   H268 3222   1.668   6.391   5.743 -0.1353 -0.4963  0.3661
    8RES   H269 3223   1.682   6.330   5.899  0.3846 -0.7909 -0.2329
    8RES   H270 3224   1.751   6.162   5.668  0.3291 -0.4476  0.6388
    8RES   H271 3225   1.737   6.096   5.828 -1.0422 -0.6142 -0.0632
    8RES   H272 3226   1.562   6.023   5.699 -2.5399  0.1146 -1.7064
    8RES   H273 3227   1.491   6.133   5.812 -0.8778  3.4970 -0.2875
    8RES   H274 3228   1.508   6.191   5.650 -0.2001 -1.4450 -1.9181
    8RES   C275 3229   2.005   6.680   5.701  0.4489 -0.3302 -0.4780
    8RES   C276 3230   1.990   6.794   5.605  0.3193  0.5234  0.4897
    8RES   C277 3231   1.945   6.745   5.457  0.6455  0.7632  0.0190
    8RES   C278 3232   2.043   6.644   5.379 -0.1979 -0.4802  0.1386
    8RES   C279 3233   2.008   6.633   5.226 -0.1026 -0.6293 -0.3899
    8RES   C280 3234   2.131   6.594   5.142  0.5713  0.4247  0.0707
    8RES   C281 3235   2.089   6.567   4.992 -0.7798 -1.0457  0.0831
    8RES   H282 3236   2.050   6.606   5.635 -1.0457 -0.9295 -0.8518
    8RES   H283 3237   2.071   6.714   5.781 -0.3756 -0.6463  0.3414
    8RES   H284 3238   1.913   6.866   5.634 -2.1701 -1.7073 -0.4074
    8RES   H285 3239   1.849   6.695   5.471  0.3755  1.1857 -0.3216
    8RES   H286 3240   1.923   6.832   5.396  0.4528  0.8920  0.2674
    8RES   H287 3241   2.051   6.544   5.419  0.5491 -0.4570  0.0511
    8RES   H288 3242   2.143   6.685   5.390  0.4367 -2.0218  0.1384
    8RES   H289 3243   1.975   6.730   5.188  0.1772 -0.0423  0.8189
    8RES   H290 3244   1.928   6.562   5.206  0.3541 -1.5388  0.9673
    8RES   H291 3245   2.194   6.683   5.146  0.8947  0.1872  0.2636
    8RES   H292 3246   2.179   6.507   5.185  0.0389  0.4159  0.6577
    8RES   H293 3247   2.020   6.483   5.001  0.2028 -1.6389  2.4061
    8RES   H294 3248   2.172   6.541   4.927 -1.7462 -0.0745 -1.5777
    8RES   H295 3249   2.032   6.647   4.945 -0.3782 -2.4606 -2.9390
    8RES   C296 3250   2.124   6.878   5.598 -0.5908 -0.6880 -0.2945
    8RES   C297 3251   2.101   7.022   5.533  0.0376 -0.6279  0.0803
    8RES   C298 3252   2.225   7.065   5.448  0.2637 -0.0086 -0.2188
    8RES   C299 3253   2.234   6.982   5.326  0.1010 -0.5235 -0.1969
    8RES   C300 3254   2.334   7.042   5.236 -0.2222  0.6914 -0.1728
    8RES   C301 3255   2.386   6.951   5.122  0.1533  0.0917  0.1063
    8RES   C302 3256   2.487   7.023   5.027  0.1966 -0.0201  0.3571
    8RES   H303 3257   2.162   6.885   5.700  1.5803  1.9815 -1.2169
    8RES   H304 3258   2.199   6.817   5.548 -0.7016 -1.1667  0.1203
    8RES   H305 3259   2.014   7.025   5.469 -0.0581  0.2040  0.2527
    8RES   H306 3260   2.224   7.169   5.415  1.5607  0.0384 -0.1527
    8RES   H307 3261   2.319   7.053   5.503  0.3771 -1.6540 -0.7426
    8RES   H308 3262   2.139   6.979   5.273 -0.2589 -1.3538  0.4771
    8RES   H309 3263   2.260   6.881   5.359  3.1517  0.0929 -0.6133
    8RES   H310 3264   2.412   7.079   5.302  0.3004  0.4860 -0.6697
    8RES   H311 3265   2.299   7.138   5.198 -5.3903 -1.1286 -0.5062
    8RES   H312 3266   2.421   6.855   5.159  1.7398  0.6694  0.1178
    8RES   H313 3267   2.297   6.916   5.070 -0.2424 -1.5607  1.8601
    8RES   H314 3268   2.556   7.068   5.098 -0.6799  1.6472  0.1626
    8RES   H315 3269   2.543   6.961   4.956 -0.2603  2.6739 -2.4331
    8RES   H316 3270   2.445   7.109   4.977  0.0257  0.0383  0.6022
    8RES   C317 3271   2.064   7.130   5.652 -0.0468 -0.1121 -0.5904
    8RES   C318 3272   1.953   7.229   5.617 -0.1884 -0.3844  0.0617
    8RES   C319 3273   1.816   7.167   5.630  0.2109 -0.0239 -0.1081
    8RES   C320 3274   1.712   7.227   5.534  0.0947  0.6569  0.4820
    8RES   C321 3275   1.584   7.141   5.526 -0.3479  0.0932  0.4378
    8RES   C322 3276   1.591   7.023   5.434 -0.6341 -0.0758 -0.4696
    8RES   C323 3277   1.460   6.980   5.378 -0.9356  0.2934 -0.7932
    8RES   H324 3278   2.158   7.182   5.670 -1.3359  1.0280  3.5342
    8RES   H325 3279   2.028   7.076   5.740  1.0609 -3.2981 -2.0326
    8RES   H326 3280   1.971   7.270   5.517  0.6550  1.7137  1.0567
    8RES   H327 3281   1.795   7.171   5.737 -0.9667  0.1330 -0.3447
    8RES   H328 3282   1.818   7.063   5.597 -0.9108  0.2791 -1.1429
    8RES   H329 3283   1.752   7.234   5.432 -0.3885  0.8291  0.3002
    8RES   H330 3284   1.677   7.329   5.548 -2.3479  0.1366 -1.3995
    8RES   H331 3285   1.499   7.195   5.485 -0.4885  0.0666  0.6947
    8RES   H332 3286   1.566   7.109   5.628  1.6736 -1.8819  0.2109
    8RES   H333 3287   1.642   6.942   5.486  4.1165  2.6532 -0.5607
    8RES   H334 3288   1.651   7.051   5.347  0.5231  0.1734  0.4047
    8RES   H335 3289   1.388   6.954   5.455 -2.2071 -0.2412 -2.1251
    8RES   H336 3290   1.479   6.902   5.305 -1.1024 -0.0886 -0.4300
    8RES   H337 3291   1.421   7.056   5.310 -1.3411  0.9166  0.1335
    8RES   C338 3292   1.970   7.355   5.705 -0.0976  0.0274 -0.1963
    8RES   C339 3293   2.097   7.445   5.689 -0.3197 -0.4726 -0.8909
    8RES   C340 3294   2.092   7.563   5.799  0.2098 -0.4296 -0.3599
    8RES   C341 3295   2.103   7.529   5.950 -0.3009  0.2584  0.3375
    8RES   C342 3296   2.080   7.644   6.039  0.0173  0.0021 -0.8307
    8RES   C343 3297   2.134   7.622   6.182  0.4310  0.2140 -0.3154
    8RES   C344 3298   2.110   0.015   6.271 -0.3919 -0.2736 -1.0977
    8RES   H345 3299   1.960   7.319   5.807 -0.1331  0.0281 -0.1995
    8RES   H346 3300   1.879   7.415   5.703 -1.1616 -1.4700  1.8254
    8RES   H347 3301   2.187   7.386   5.703  0.5081  0.6136 -1.5548
    8RES   H348 3302   2.166   7.641   5.779  0.7859 -0.9024 -0.0775
    8RES   H349 3303   1.999   7.617   5.782  0.4702  0.4799  0.9998
    8RES   H350 3304   2.206   7.493   5.963 -0.7325 -0.4356  1.8432
    8RES   H351 3305   2.037   7.446   5.973  1.2992 -0.7675  1.3496
    8RES   H352 3306   2.142   7.725   6.001  0.6378 -0.5147 -0.9327
    8RES   H353 3307   1.975   7.676   6.038 -0.2201 -0.7722 -0.7921
    8RES   H354 3308   2.090   7.531   6.222 -0.3129  0.7642  0.1149
    8RES   H355 3309   2.240   7.596   6.174  0.7677  1.1684  0.9292
    8RES   H356 3310   2.138   0.102   6.211  1.0951  1.2065  1.6600
    8RES   H357 3311   2.181   0.015   6.354  0.7661  1.4273 -2.0526
    8RES   H358 3312   2.009   0.020   6.312 -0.5085  2.4089 -1.6707
    8RES   C359 3313   2.116   7.508   5.546  0.6868 -0.2982 -0.5310
    8RES   C360 3314   2.260   7.562   5.519  0.3007  0.1483 -0.4207
    8RES   C361 3315   2.354   7.440   5.503 -0.3185 -0.3227 -0.1535
    8RES   C362 3316   2.499   7.478   5.477  0.7353  0.6347  0.6418
    8RES   C363 3317   2.582   7.356   5.475 -0.0100 -0.4000  0.2079
    8RES   C364 3318   2.703   7.368   5.382  0.5082 -0.4411  0.8782
    8RES   C365 3319   2.652   7.332   5.240  0.4756  1.0906 -0.0216
    8RES   H366 3320   2.037   7.583   5.539 -0.2636 -1.3056 -0.7166
    8RES   H367 3321   2.090   7.434   5.470 -0.9561 -0.0078 -0.2748
    8RES   H368 3322   2.296   7.628   5.598  0.5147 -0.5108  0.0464
    8RES   H369 3323   2.359   7.378   5.593 -0.7849 -0.8222 -0.4667
    8RES   H370 3324   2.310   7.369   5.433 -0.2827 -0.0674 -0.4379
    8RES   H371 3325   2.510   7.540   5.388 -1.3068 -0.7350 -0.6060
    8RES   H372 3326   2.531   7.538   5.562  1.7761  2.3037 -0.8968
    8RES   H373 3327   2.602   7.340   5.581 -1.6691 -2.4611  0.2343
    8RES   H374 3328   2.521   7.267   5.457 -0.1528  0.2684 -2.7653
    8RES   H375 3329   2.741   7.470   5.376  1.0163 -0.7017 -0.4284
    8RES   H376 3330   2.775   7.292   5.411 -0.1502 -1.4443 -0.0956
    8RES   H377 3331   2.613   7.231   5.236  0.4565  1.0786  0.3991
    8RES   H378 3332   2.571   7.402   5.218 -1.2046 -1.3210 -1.7570
    8RES   H379 3333   2.739   7.325   5.175  0.0899  0.1507 -0.4502
    8RES   C380 3334   2.258   7.650   5.390 -0.0006  0.7412  0.3728
    8RES   C381 3335   2.186   0.059   5.388  0.2582 -0.0104 -0.5603
    8RES   C382 3336   2.247   0.155   5.491 -0.0281 -0.8725  0.0695
    8RES   C383 3337   2.379   0.216   5.451 -0.0320  0.1284  0.2493
    8RES   C384 3338   2.454   0.289   5.565  0.3020  0.1788  0.4424
    8RES   C385 3339   2.381   0.424   5.599  0.4705  0.1999 -0.6109
    8RES   C386 3340   2.473   0.508   5.680  0.3768  0.3467 -0.4989
    8RES   H387 3341   2.362   7.671   5.369  0.3442 -0.2035  1.0804
    8RES   H388 3342   2.221   7.581   5.314 -1.5933 -0.1100  1.8724
    8RES   H389 3343   2.083   0.043   5.419  0.2534  0.6892 -0.2098
    8RES   H390 3344   2.250   0.115   5.593  4.1352 -0.9007  0.0345
    8RES   H391 3345   2.179   0.239   5.501  0.4050 -0.3236 -1.6154
    8RES   H392 3346   2.447   0.138   5.417  0.5093  1.2961 -1.3920
    8RES   H393 3347   2.370   0.281   5.364  0.5238  1.2538  1.0259
    8RES   H394 3348   2.482   0.221   5.645 -0.6902  1.6027  2.0233
    8RES   H395 3349   2.552   0.316   5.525  0.5770  0.0041  0.9994
    8RES   H396 3350   2.286   0.405   5.650 -0.2118  1.3642 -1.4311
    8RES   H397 3351   2.347   0.473   5.508 -2.4133  0.4734  0.5657
    8RES   H398 3352   2.536   0.562   5.610  0.3505  0.5863 -0.3408
    8RES   H399 3353   2.537   0.442   5.738  0.9598  0.7302 -0.7044
    8RES   H400 3354   2.429   0.582   5.747  0.1087 -1.0903  0.9489
    8RES   C401 3355   2.175   0.121   5.243  0.1457  0.1503 -1.0567
    8RES   C402 3356   2.085   0.036   5.150 -0.0680  0.0163 -0.1998
    8RES   C403 3357   2.031   0.124   5.035 -0.8682  0.0703 -0.2788
    8RES   C404 3358   1.903   0.090   4.960 -0.3970  0.2746 -1.0540
    8RES   C405 3359   1.879   0.192   4.846 -0.1991  0.1099  0.0124
    8RES   C406 3360   1.748   0.167   4.772  0.3596  0.5149  0.4316
    8RES   C407 3361   1.715   0.275   4.665 -0.9169 -0.3864 -0.1941
    8RES   H408 3362   2.274   0.124   5.198  0.5267  1.9083 -0.1620
    8RES   H409 3363   2.137   0.223   5.255  1.8546  0.6967 -0.0553
    8RES   H410 3364   1.987   0.005   5.187  0.0888  0.0946  0.2826
    8RES   H411 3365   2.111   0.131   4.961 -0.5108  2.5234  0.2809
    8RES   H412 3366   2.024   0.227   5.071  1.6643 -0.9241  3.3883
    8RES   H413 3367   1.813   0.095   5.022  1.7714 -1.5546  2.3627
    8RES   H414 3368   1.911   7.712   4.929  1.3950 -0.3538  1.4497
    8RES   H415 3369   1.875   0.294   4.882  2.5983  1.0001 -1.9924
    8RES   H416 3370   1.966   0.193   4.780  1.5755  3.3478  2.2970
    8RES   H417 3371   1.754   0.069   4.725  2.3428  0.3285  1.0038
    8RES   H418 3372   1.664   0.151   4.839 -1.3631 -2.0679 -2.2464
    8RES   H419 3373   1.674   0.358   4.723 -0.7242 -0.7877  0.5209
    8RES   H420 3374   1.636   0.233   4.604  0.1474 -1.6952 -0.7058
    8RES   H421 3375   1.805   0.293   4.606 -0.9833 -0.8636 -0.4405
    8RES   H422 3376   2.127   7.667   5.119  0.5362 -0.3079  1.5642
    9RES     C1 3377   1.518   2.945   4.900  0.0720 -0.0480  0.1510
    9RES     C2 3378   1.616   2.856   4.971  0.4418  0.3048  0.1019
    9RES     C3 3379   1.608   2.702   4.946  0.3947  0.3724 -0.5944
    9RES     C4 3380   1.586   2.664   4.797 -0.1135 -0.0110 -0.1837
    9RES     C5 3381   1.591   2.511   4.778  0.3350 -0.1029  0.1002
    9RES     C6 3382   1.708   2.438   4.832  0.4596  0.7687 -0.1320
    9RES     C7 3383   1.839   2.496   4.779 -0.9094 -0.3154 -0.1467
    9RES     H8 3384   1.550   3.047   4.921 -0.6290 -0.0872  1.4411
    9RES     H9 3385   1.411   2.940   4.917 -0.6139  2.2866 -2.9304
    9RES    H10 3386   1.707   2.901   4.932  0.3151  0.8607  0.4531
    9RES    H11 3387   1.702   2.664   4.986 -0.3059 -0.3179  0.4261
    9RES    H12 3388   1.526   2.662   5.006 -0.4079 -0.9782 -2.5199
    9RES    H13 3389   1.485   2.693   4.767 -0.9303  0.2987  2.7593
    9RES    H14 3390   1.657   2.704   4.724 -0.2024  0.2884 -0.1076
    9RES    H15 3391   1.582   2.488   4.672  0.4516 -1.0829  0.2959
    9RES    H16 3392   1.507   2.471   4.834  0.0808 -0.3718 -0.4709
    9RES    H17 3393   1.706   2.338   4.788 -2.6286  0.9714 -0.5438
    9RES    H18 3394   1.710   2.415   4.939 -1.0567  3.5465  0.5357
    9RES    H19 3395   1.923   2.442   4.822 -2.1905 -1.4464  0.9826
    9RES    H20 3396   1.859   2.596   4.819 -0.3822 -0.3338 -0.3631
    9RES    H21 3397   1.852   2.505   4.671 -0.8806 -0.7245 -0.1790
    9RES    H22 3398   1.528   2.938   4.791  0.5281  0.8793  0.1322
    9RES    C23 3399   1.613   2.886   5.124 -0.5491  0.0165 -0.1815
    9RES    C24 3400   1.716   2.798   5.211 -0.5280 -0.0433  0.3290
    9RES    C25 3401   1.694   2.827   5.363 -0.4283 -0.5520 -0.6194
    9RES    C26 3402   1.566   2.767   5.424  0.4455  0.2548 -0.5920
    9RES    C27 3403   1.555   2.812   5.574  0.3032 -0.2096 -0.2473
    9RES    C28 3404   1.436   2.742   5.642 -0.6861 -0.5083  0.3534
    9RES    C29 3405   1.421   2.783   5.789 -0.0469 -0.3304 -0.5050
    9RES    H30 3406   1.627   2.992   5.143 -2.3535  0.2475 -0.1280
    9RES    H31 3407   1.518   2.849   5.162 -0.6692  1.7069  1.2390
    9RES    H32 3408   1.682   2.697   5.187  1.1101 -0.3679 -0.7667
    9RES    H33 3409   1.717   2.932   5.383  0.0770 -0.4862 -1.4981
    9RES    H34 3410   1.765   2.765   5.417 -2.0713 -0.2945  1.8831
    9RES    H35 3411   1.579   2.660   5.409  1.3354  0.3322 -0.4399
    9RES    H36 3412   1.468   2.788   5.381  0.1688  0.1173 -0.0325
    9RES    H37 3413   1.546   2.921   5.568  1.5977 -0.1541 -1.4106
    9RES    H38 3414   1.644   2.783   5.631  0.5363 -1.6115 -1.3042
    9RES    H39 3415   1.445   2.634   5.655 -0.5578 -0.6198 -0.6583
    9RES    H40 3416   1.338   2.761   5.599 -0.5143  1.9676  0.9439
    9RES    H41 3417   1.509   2.752   5.846  2.0284  3.3237 -1.5844
    9RES    H42 3418   1.414   2.890   5.802  0.7865 -0.1389 -1.5616
    9RES    H43 3419   1.325   2.758   5.835 -0.6406 -1.2043 -2.1781
    9RES    C44 3420   1.860   2.831   5.161 -1.1495 -0.2370 -0.0853
    9RES    C45 3421   1.975   2.768   5.247 -1.0071  0.3564  0.2945
    9RES    C46 3422   1.976   2.611   5.220  0.8993 -0.3233  0.7012
    9RES    C47 3423   2.039   2.536   5.335  0.1334 -0.0997 -0.2761
    9RES    C48 3424   1.950   2.521   5.461  0.0989 -0.6132 -0.0308
    9RES    C49 3425   1.815   2.441   5.453  0.0478 -0.4387 -0.2268
    9RES    C50 3426   1.757   2.411   5.589  0.2760 -0.5190  0.6067
    9RES    H51 3427   1.880   2.938   5.165 -2.0205 -0.0870  0.3764
    9RES    H52 3428   1.868   2.788   5.061  1.8220 -0.5468  0.2208
    9RES    H53 3429   1.955   2.788   5.352 -0.8343  1.4399  0.1312
    9RES    H54 3430   2.022   2.580   5.126 -1.7736 -3.5518  0.3707
    9RES    H55 3431   1.872   2.586   5.200  0.6683  0.6186  0.6821
    9RES    H56 3432   2.054   2.433   5.306  0.6332 -0.9749  2.8714
    9RES    H57 3433   2.133   2.581   5.367  1.5298 -1.1170 -2.8341
    9RES    H58 3434   1.948   2.617   5.511  1.9331 -0.4720 -0.1906
    9RES    H59 3435   2.013   2.472   5.536 -0.4994 -1.1769  0.1098
    9RES    H60 3436   1.849   2.353   5.397  3.8573  1.9847 -1.9853
    9RES    H61 3437   1.740   2.487   5.389 -0.6164  0.2155  1.0300
    9RES    H62 3438   1.828   2.339   5.629 -1.3028 -2.6181 -0.2724
    9RES    H63 3439   1.675   2.343   5.569 -0.9177  1.3774 -1.1970
    9RES    H64 3440   1.721   2.491   5.654 -1.4090  1.0095 -2.0893
    9RES    C65 3441   2.114   2.832   5.211  0.1039  0.2436 -0.0170
    9RES    C66 3442   2.136   2.980   5.275 -0.2201  0.4803 -0.0165
    9RES    C67 3443   2.165   3.102   5.175 -0.4786  0.4335  0.0949
    9RES    C68 3444   2.043   3.143   5.092  0.8530 -0.0423  0.1341
    9RES    C69 3445   2.067   3.260   4.996 -0.1592 -0.1218 -0.1453
    9RES    C70 3446   1.941   3.275   4.910  0.4651  0.5964 -0.6909
    9RES    C71 3447   1.926   3.419   4.853 -0.6249 -0.3653 -0.0887
    9RES    H72 3448   2.204   2.772   5.227 -1.5309 -2.8422 -1.7967
    9RES    H73 3449   2.100   2.845   5.104 -0.2517 -0.1867 -0.0265
    9RES    H74 3450   2.044   3.018   5.321 -0.5790 -0.8582  0.3863
    9RES    H75 3451   2.183   3.193   5.230 -1.4093  0.4552  0.3819
    9RES    H76 3452   2.249   3.085   5.108 -1.0975 -2.6362 -0.0055
    9RES    H77 3453   2.009   3.057   5.035 -1.5052 -0.3770  1.9698
    9RES    H78 3454   1.961   3.160   5.162  1.0123 -0.6702  0.4773
    9RES    H79 3455   2.084   3.348   5.059  1.1051 -0.4037 -0.0770
    9RES    H80 3456   2.151   3.237   4.930 -0.0479  0.1574 -0.1035
    9RES    H81 3457   1.851   3.251   4.966  0.5473  3.0045  0.5430
    9RES    H82 3458   1.949   3.212   4.821  1.7089 -1.6402  0.9418
    9RES    H83 3459   1.910   3.490   4.933  2.0892  1.1311 -0.7979
    9RES    H84 3460   2.019   3.443   4.801  0.1791  3.0591  2.7469
    9RES    H85 3461   1.850   3.434   4.776  0.4784  1.3758 -0.8639
    9RES    C86 3462   2.246   2.977   5.385  0.6632 -0.0657 -0.1001
    9RES    C87 3463   2.218   3.061   5.516 -0.2984 -0.7912  0.2255
    9RES    C88 3464   2.178   2.980   5.645  0.5168  0.0504  0.1909
    9RES    C89 3465   2.044   2.915   5.646  0.7309 -0.6704 -0.5833
    9RES    C90 3466   2.029   2.820   5.767  0.3096  0.0895  0.3189
    9RES    C91 3467   1.887   2.769   5.787 -0.4221  0.8722 -0.5480
    9RES    C92 3468   1.844   2.728   5.931 -0.2309  0.0678 -0.1353
    9RES    H93 3469   2.271   2.874   5.411 -0.8811 -0.5328 -0.4510
    9RES    H94 3470   2.343   3.000   5.341  1.6540  0.1121  2.1225
    9RES    H95 3471   2.141   3.134   5.492  0.3179 -1.0513 -2.7306
    9RES    H96 3472   2.255   2.905   5.666 -0.0638 -0.4079  0.7199
    9RES    H97 3473   2.175   3.050   5.729 -0.8485  0.0672  0.1467
    9RES    H98 3474   1.971   2.995   5.656  2.0546  0.1904  2.5072
    9RES    H99 3475   2.020   2.852   5.560  1.3521  0.4259 -1.5729
    9RES   H100 3476   2.048   2.876   5.858  1.8346 -0.3196  0.2702
    9RES   H101 3477   2.105   2.742   5.759 -0.5234 -0.6036 -0.9794
    9RES   H102 3478   1.822   2.848   5.751 -0.4037  1.6986  1.1644
    9RES   H103 3479   1.866   2.688   5.718  0.6039  1.9335 -2.1304
    9RES   H104 3480   1.838   2.823   5.984 -0.2979  0.8202 -1.4738
    9RES   H105 3481   1.912   2.654   5.973  0.2384  0.2215 -0.6074
    9RES   H106 3482   1.745   2.684   5.933  0.8794 -2.4389  1.4939
    9RES   C107 3483   2.339   3.141   5.541 -0.4059 -0.4058 -0.5718
    9RES   C108 3484   2.371   3.265   5.449  0.0591  0.0816  0.0081
    9RES   C109 3485   2.271   3.382   5.461  0.5126  0.3850 -0.9107
    9RES   C110 3486   2.246   3.444   5.603  0.3359 -0.1411 -0.0375
    9RES   C111 3487   2.156   3.570   5.599  1.0993  0.4514  0.1834
    9RES   C112 3488   2.139   3.637   5.741 -0.0673 -0.0616 -0.5876
    9RES   C113 3489   2.065   3.773   5.741  0.8517  0.3753  0.0001
    9RES   H114 3490   2.426   3.075   5.536 -0.4419 -0.4351 -0.7925
    9RES   H115 3491   2.330   3.182   5.642  3.6915 -1.4538  0.3284
    9RES   H116 3492   2.377   3.237   5.344  1.0611  0.9817 -0.1839
    9RES   H117 3493   2.173   3.349   5.429  0.7738 -0.4481 -0.8759
    9RES   H118 3494   2.300   3.461   5.391  0.0696  1.2633 -0.1191
    9RES   H119 3495   2.195   3.371   5.666 -0.4152  0.6279  0.2547
    9RES   H120 3496   2.345   3.465   5.642 -0.1316 -0.5614  1.3965
    9RES   H121 3497   2.061   3.548   5.550  0.1922 -1.6791  2.7425
    9RES   H122 3498   2.195   3.642   5.528 -0.1945 -0.8265 -1.8665
    9RES   H123 3499   2.089   3.572   5.813  1.9034 -1.0254 -0.0515
    9RES   H124 3500   2.243   3.643   5.774  0.6768  0.1205 -2.8942
    9RES   H125 3501   2.093   3.838   5.825 -1.9187  1.9856 -0.2742
    9RES   H126 3502   2.103   3.826   5.654 -0.6861 -0.2377 -1.0667
    9RES   H127 3503   1.958   3.764   5.729  1.1408 -3.4146 -0.4389
    9RES   C128 3504   2.518   3.316   5.472  0.5786  0.0690  0.4475
    9RES   C129 3505   2.572   3.424   5.384  0.0003 -0.1446 -0.1536
    9RES   C130 3506   2.605   3.379   5.240 -0.2393  0.1045 -0.0057
    9RES   C131 3507   2.692   3.252   5.235 -0.1774 -0.6771  0.1266
    9RES   C132 3508   2.742   3.220   5.091 -0.1506 -0.3382 -0.1049
    9RES   C133 3509   2.830   3.323   5.028  0.0754  0.2059  0.7513
    9RES   C134 3510   2.960   3.349   5.098 -0.0054 -0.0446  0.6069
    9RES   H135 3511   2.512   3.365   5.569 -2.8131 -1.8708  1.3066
    9RES   H136 3512   2.593   3.237   5.485 -1.6547 -2.2695 -0.4464
    9RES   H137 3513   2.494   3.498   5.368  0.6674  0.8228  1.0250
    9RES   H138 3514   2.649   3.458   5.180 -0.1766 -0.9526 -1.3789
    9RES   H139 3515   2.513   3.348   5.191  0.7890  0.6278 -2.3403
    9RES   H140 3516   2.636   3.165   5.268 -0.5983 -0.0837  1.0114
    9RES   H141 3517   2.778   3.279   5.297  0.0260  0.8491 -0.7924
    9RES   H142 3518   2.653   3.211   5.030  0.3473  2.7948 -1.3471
    9RES   H143 3519   2.792   3.123   5.085  2.6220  1.1508 -1.7103
    9RES   H144 3520   2.776   3.416   5.010  0.8143 -0.0748 -3.5226
    9RES   H145 3521   2.860   3.283   4.931 -1.4987  0.7594  0.0257
    9RES   H146 3522   3.010   3.423   5.037 -0.9961 -0.5639 -0.8720
    9RES   H147 3523   3.008   3.252   5.103 -0.1579 -0.1166  0.6939
    9RES   H148 3524   2.954   3.400   5.194  1.5510  0.4462  0.4466
    9RES   C149 3525   2.693   3.506   5.441  0.0720  0.1761 -0.8038
    9RES   C150 3526   2.673   3.602   5.562 -0.9142  0.0692  0.5945
    9RES   C151 3527   2.562   3.710   5.525  0.1935  0.2384  0.3163
    9RES   C152 3528   2.529   3.810   5.640  0.1487  0.6120  0.4640
    9RES   C153 3529   2.419   3.912   5.590 -0.1739 -0.1073  0.1937
    9RES   C154 3530   2.415   4.041   5.681  0.1219 -0.1822 -0.4818
    9RES   C155 3531   2.315   4.148   5.637 -0.0547  0.6275  0.5264
    9RES   H156 3532   2.766   3.427   5.455  0.8679  1.0497  0.1041
    9RES   H157 3533   2.744   3.559   5.361 -0.3611  2.8051  0.6021
    9RES   H158 3534   2.639   3.552   5.652 -0.5241 -0.6568  0.3373
    9RES   H159 3535   2.598   3.754   5.432  0.1780 -0.2801  0.0639
    9RES   H160 3536   2.465   3.669   5.498 -0.5294  1.6523  0.7259
    9RES   H161 3537   2.620   3.866   5.664 -0.9071  1.8442  1.7097
    9RES   H162 3538   2.503   3.764   5.736 -0.3271  1.5804  0.8123
    9RES   H163 3539   2.319   3.875   5.568 -0.1410  1.2864 -2.5310
    9RES   H164 3540   2.464   3.950   5.498  2.2781 -2.7817  0.2397
    9RES   H165 3541   2.512   4.084   5.702 -0.2770  0.6717 -0.3806
    9RES   H166 3542   2.374   4.007   5.776 -1.3571 -0.2023 -1.1157
    9RES   H167 3543   2.338   4.166   5.532  0.0745  0.8202  0.5868
    9RES   H168 3544   2.338   4.245   5.680  2.4850  0.4587 -0.3616
    9RES   H169 3545   2.213   4.120   5.664 -0.0309 -1.6107 -1.4696
    9RES   C170 3546   2.806   3.667   5.590  0.1110 -0.1149 -0.0350
    9RES   C171 3547   2.914   3.580   5.660  0.1257  0.5380  0.2374
    9RES   C172 3548   3.049   3.603   5.590 -0.3219  0.0227 -0.2289
    9RES   C173 3549   3.071   3.568   5.442 -0.5805  0.5012 -0.2312
    9RES   C174 3550   3.216   3.578   5.406 -0.2225 -0.5032 -0.0246
    9RES   C175 3551   3.244   3.551   5.254  0.0863 -0.1716  0.7066
    9RES   C176 3552   3.233   3.676   5.168  0.3813  0.0542 -0.4402
    9RES   H177 3553   2.792   3.755   5.652 -1.7516  0.8384 -1.7307
    9RES   H178 3554   2.844   3.699   5.492  0.5439  2.4848  0.9396
    9RES   H179 3555   2.886   3.476   5.643 -1.7723  1.2497 -1.2688
    9RES   H180 3556   3.132   3.565   5.650 -0.5432  0.4220  0.3359
    9RES   H181 3557   3.066   3.710   5.606  2.1936 -0.2406 -0.9820
    9RES   H182 3558   3.025   3.637   5.371 -1.3385  2.0086  1.6665
    9RES   H183 3559   3.023   3.477   5.408  0.6068 -0.4051  0.4688
    9RES   H184 3560   3.264   3.495   5.459  1.2300  1.0176  1.0882
    9RES   H185 3561   3.259   3.668   5.449 -0.9122  0.0962 -0.5770
    9RES   H186 3562   3.183   3.471   5.213 -0.2708 -0.2794  1.4404
    9RES   H187 3563   3.347   3.520   5.235  0.2248  1.6044 -1.6860
    9RES   H188 3564   3.259   3.649   5.066  0.3489 -1.0508 -0.1617
    9RES   H189 3565   3.313   3.742   5.203  1.0221  0.6866 -3.0532
    9RES   H190 3566   3.132   3.717   5.171 -0.4507 -1.9344 -0.8505
    9RES   C191 3567   2.932   3.594   5.808  0.6573 -0.4533 -0.4715
    9RES   C192 3568   2.802   3.573   5.898 -0.6117  1.2082  0.1012
    9RES   C193 3569   2.739   3.434   5.891  0.1184  0.6941  0.3602
    9RES   C194 3570   2.591   3.422   5.936  0.2039 -0.9373 -0.0449
    9RES   C195 3571   2.540   3.279   5.911  0.0612 -0.4588 -0.2649
    9RES   C196 3572   2.397   3.249   5.964 -0.8633 -0.1872 -0.5768
    9RES   C197 3573   2.385   3.231   6.116  0.6718 -0.3841 -0.4262
    9RES   H198 3574   2.977   3.688   5.839 -0.4490  0.4265 -1.4646
    9RES   H199 3575   3.009   3.529   5.849  0.4068 -0.7540 -0.4698
    9RES   H200 3576   2.740   3.641   5.839  0.4979  1.3071 -0.9722
    9RES   H201 3577   2.798   3.365   5.952 -0.9727 -0.7412 -0.1612
    9RES   H202 3578   2.755   3.405   5.787 -1.9952  0.2723  0.1406
    9RES   H203 3579   2.527   3.498   5.892  0.6198  0.6287  2.0392
    9RES   H204 3580   2.588   3.453   6.040  2.4488 -1.6236  0.2533
    9RES   H205 3581   2.546   3.270   5.802  0.2680  1.3894 -0.4250
    9RES   H206 3582   2.612   3.208   5.952 -0.7618 -1.2379 -0.1537
    9RES   H207 3583   2.361   3.156   5.920  2.0082 -0.2722 -2.8411
    9RES   H208 3584   2.347   3.339   5.926 -3.2226 -0.9645  0.5526
    9RES   H209 3585   2.474   3.177   6.149  0.8775 -1.2374 -2.2924
    9RES   H210 3586   2.289   3.194   6.151  1.2609 -0.9314  0.6251
    9RES   H211 3587   2.396   3.329   6.162  0.0428 -0.3020 -0.4475
    9RES   C212 3588   2.818   3.618   6.041 -0.6225  0.0210 -0.0119
    9RES   C213 3589   2.825   3.771   6.067 -0.8091 -0.4666 -0.5215
    9RES   C214 3590   2.691   3.828   6.036 -0.0872 -0.1709 -0.2873
    9RES   C215 3591   2.699   3.983   6.010 -0.1075  0.2289  0.2130
    9RES   C216 3592   2.573   4.061   5.991  0.1203 -0.1533 -0.0700
    9RES   C217 3593   2.601   4.204   5.943  0.4157  0.1316  0.0359
    9RES   C218 3594   2.638   4.287   6.063 -0.9472  0.1310 -0.2662
    9RES   H219 3595   2.902   3.561   6.081  0.0266  1.0484  0.0999
    9RES   H220 3596   2.748   3.576   6.113  1.9840 -1.2857  1.8872
    9RES   H221 3597   2.890   3.821   5.995 -1.5322  1.2361 -0.0119
    9RES   H222 3598   2.651   3.786   5.943 -0.3060  1.9167 -1.1658
    9RES   H223 3599   2.615   3.814   6.113  0.0186  0.6578 -0.0224
    9RES   H224 3600   2.759   4.008   5.923 -0.5082 -2.1485 -0.7768
    9RES   H225 3601   2.752   4.025   6.095  0.9905 -0.7551  0.0341
    9RES   H226 3602   2.488   4.010   5.945  0.4944  0.5756 -1.6019
    9RES   H227 3603   2.531   4.075   6.091 -1.0901 -0.9485 -0.4535
    9RES   H228 3604   2.675   4.212   5.863  1.9483 -0.8372  1.3268
    9RES   H229 3605   2.514   4.248   5.895  0.3334  0.0843  0.1439
    9RES   H230 3606   2.742   4.260   6.080 -1.4614 -2.0526 -0.5315
    9RES   H231 3607   2.581   4.265   6.153 -1.7604 -0.5964 -0.9560
    9RES   H232 3608   2.634   4.394   6.038  0.2148  0.1627 -0.3680
    9RES   C233 3609   2.886   3.811   6.214 -0.0015  0.0888  0.1457
    9RES   C234 3610   3.037   3.782   6.242 -0.2581 -0.1466  0.4977
    9RES   C235 3611   3.130   3.808   6.121  0.9085  0.5549  0.6042
    9RES   C236 3612   3.283   3.781   6.125  0.6823 -0.2620  0.0817
    9RES   C237 3613   3.353   3.805   5.989  0.5529  0.3448  0.2427
    9RES   C238 3614   3.499   3.768   5.982  0.0860  0.3278 -0.1391
    9RES   C239 3615   3.536   3.626   6.004  0.6234  0.0402  0.3269
    9RES   H240 3616   2.836   3.754   6.292  0.3002  0.8998  0.9388
    9RES   H241 3617   2.858   3.915   6.229  0.3180  0.0016  1.3346
    9RES   H242 3618   3.050   3.676   6.264 -0.5881 -0.2487  0.2020
    9RES   H243 3619   3.106   3.911   6.096 -3.1096 -0.2923  0.6172
    9RES   H244 3620   3.093   3.749   6.037 -0.1721  1.0583  0.7151
    9RES   H245 3621   3.302   3.679   6.159  1.8170  0.4700  1.6989
    9RES   H246 3622   3.325   3.851   6.198 -2.2441  0.8164  0.7749
    9RES   H247 3623   3.352   3.904   5.944  1.8866  0.7212  1.0282
    9RES   H248 3624   3.296   3.748   5.916 -0.4605 -1.3352  2.2915
    9RES   H249 3625   3.536   3.800   5.884 -0.4220 -0.1603 -0.4928
    9RES   H250 3626   3.557   3.838   6.042 -0.6160  0.2008  0.6945
    9RES   H251 3627   3.636   3.601   5.968 -0.5704 -3.9000 -0.4825
    9RES   H252 3628   3.536   3.602   6.110  1.4030 -3.1434 -0.3470
    9RES   H253 3629   3.477   3.553   5.949  0.3569 -0.4882  1.3167
    9RES   C254 3630   3.087   3.861   6.363  0.3392 -0.5147 -0.4143
    9RES   C255 3631   3.024   3.832   6.503  0.0735 -0.7815  1.2079
    9RES   C256 3632   3.072   3.944   6.601 -0.0406 -0.2496 -0.3574
    9RES   C257 3633   3.010   3.944   6.748  0.2091  0.2726 -1.2715
    9RES   C258 3634   2.862   3.967   6.757 -0.2288 -0.0076 -0.0598
    9RES   C259 3635   2.797   4.015   6.891  0.1009 -0.2369 -0.3006
    9RES   C260 3636   2.800   3.913   7.005  0.1574  0.0258 -0.1801
    9RES   H261 3637   3.077   3.969   6.349  2.6199 -0.3825 -1.2483
    9RES   H262 3638   3.195   3.852   6.380  0.7641  1.9618 -1.5267
    9RES   H263 3639   2.917   3.816   6.490  0.4682 -3.3248  0.8297
    9RES   H264 3640   3.046   4.043   6.563  0.5564 -0.8496 -2.3855
    9RES   H265 3641   3.180   3.937   6.615  0.0339  1.3145 -0.0942
    9RES   H266 3642   3.028   3.848   6.797  0.5289  0.0471 -1.8237
    9RES   H267 3643   3.061   4.019   6.808 -2.0527  1.5451 -0.8828
    9RES   H268 3644   2.819   3.870   6.736  1.2130 -0.6436 -0.1601
    9RES   H269 3645   2.832   4.027   6.671 -1.0043 -1.4971 -0.8416
    9RES   H270 3646   2.848   4.108   6.914 -0.8429  0.4329 -0.9127
    9RES   H271 3647   2.694   4.043   6.870  0.3178 -0.1037 -1.1949
    9RES   H272 3648   2.730   3.933   7.085 -2.0785 -0.2419 -2.0147
    9RES   H273 3649   2.794   3.809   6.973  0.8414 -0.6749  1.8488
    9RES   H274 3650   2.894   3.912   7.061  1.3081 -0.3654 -2.0677
    9RES   C275 3651   3.066   3.692   6.550 -0.5121  0.8470 -0.2363
    9RES   C276 3652   2.966   3.571   6.530 -0.4528 -0.1970  0.3633
    9RES   C277 3653   2.842   3.570   6.627  0.9273  0.4513  0.2510
    9RES   C278 3654   2.721   3.490   6.577  0.4668 -0.3533  0.0812
    9RES   C279 3655   2.597   3.517   6.662 -0.0656 -0.0771 -0.1566
    9RES   C280 3656   2.486   3.425   6.613 -0.3437  0.5457  0.3402
    9RES   C281 3657   2.411   3.477   6.496 -0.4385 -0.1430  0.1498
    9RES   H282 3658   3.085   3.701   6.657 -0.6631  1.3097 -0.2475
    9RES   H283 3659   3.161   3.664   6.504 -0.6902 -1.3267  0.6338
    9RES   H284 3660   2.920   3.581   6.432  1.2211 -0.1594 -0.4359
    9RES   H285 3661   2.879   3.527   6.720  2.2041  2.7591  0.8296
    9RES   H286 3662   2.807   3.668   6.657  2.4252  1.0196  0.1882
    9RES   H287 3663   2.741   3.383   6.576  1.8260 -0.1376  1.3123
    9RES   H288 3664   2.705   3.535   6.479  0.6771 -0.1391  0.1415
    9RES   H289 3665   2.563   3.621   6.658 -0.4738 -0.1756  0.7883
    9RES   H290 3666   2.637   3.503   6.762  0.8685  2.5793 -0.1111
    9RES   H291 3667   2.532   3.328   6.591  0.5943  0.8761  0.8245
    9RES   H292 3668   2.428   3.418   6.705 -1.7408 -0.9711 -0.6126
    9RES   H293 3669   2.491   3.510   6.429  0.2919  1.6587  1.8712
    9RES   H294 3670   2.351   3.565   6.518 -0.1044  0.3629 -0.9607
    9RES   H295 3671   2.352   3.404   6.441  1.7532  0.8289 -3.6502
    9RES   C296 3672   3.051   3.447   6.533 -0.2135  0.0028  0.4227
    9RES   C297 3673   3.151   3.414   6.421  0.6537 -0.0464  0.0595
    9RES   C298 3674   3.079   3.343   6.308 -0.2541 -0.6662 -0.2984
    9RES   C299 3675   3.158   3.351   6.172  0.2525 -0.0558  0.6426
    9RES   C300 3676   3.096   3.263   6.059  0.0545 -0.2056  0.3068
    9RES   C301 3677   3.172   3.278   5.932 -0.2697  0.2065  0.5110
    9RES   C302 3678   3.128   3.179   5.829 -0.2376  0.1751  0.1842
    9RES   H303 3679   3.104   3.458   6.627 -2.3263  0.4162  1.5930
    9RES   H304 3680   2.991   3.360   6.559 -1.5515  1.2412  1.6126
    9RES   H305 3681   3.175   3.509   6.373 -0.3273  1.5294  2.5795
    9RES   H306 3682   3.080   3.237   6.333 -0.0343  0.0404  2.8829
    9RES   H307 3683   2.973   3.367   6.305 -0.6358 -2.2627 -0.0321
    9RES   H308 3684   3.263   3.328   6.186  0.4026 -0.2795 -0.7688
    9RES   H309 3685   3.161   3.455   6.140 -2.6327 -0.6329 -1.7278
    9RES   H310 3686   2.992   3.288   6.039  0.1577  1.1972  1.4935
    9RES   H311 3687   3.111   3.157   6.083 -0.3848 -0.2564  0.3492
    9RES   H312 3688   3.156   3.378   5.892 -2.2552 -0.6526 -0.9030
    9RES   H313 3689   3.280   3.277   5.948 -0.2542 -1.1764  0.3775
    9RES   H314 3690   3.170   3.199   5.731  1.3432  3.2137  1.4250
    9RES   H315 3691   3.140   3.075   5.861  1.2141  0.2911  0.0375
    9RES   H316 3692   3.021   3.193   5.812 -0.2243  0.9776  0.7347
    9RES   C317 3693   3.264   3.324   6.478  0.0674  0.1890  0.0689
    9RES   C318 3694   3.370   3.397   6.557 -0.7271  0.5286 -0.3880
    9RES   C319 3695   3.430   3.306   6.664 -0.1409 -0.4579 -0.2004
    9RES   C320 3696   3.493   3.177   6.615 -0.3309 -0.7078  0.0664
    9RES   C321 3697   3.585   3.107   6.717  0.4094  0.1779  0.1614
    9RES   C322 3698   3.627   2.963   6.685 -0.2316  0.4886 -0.3692
    9RES   C323 3699   3.513   2.856   6.705 -0.4476  0.0985 -0.2967
    9RES   H324 3700   3.317   3.266   6.402 -1.4727 -0.4034 -0.5802
    9RES   H325 3701   3.214   3.248   6.538 -0.0208 -0.2819 -0.5903
    9RES   H326 3702   3.313   3.461   6.624  0.3398 -0.2907  1.3408
    9RES   H327 3703   3.366   3.288   6.750 -1.3212 -3.7200 -1.6893
    9RES   H328 3704   3.505   3.373   6.706 -0.3900  0.3488 -1.0222
    9RES   H329 3705   3.542   3.186   6.518 -2.0243  1.5996 -0.6186
    9RES   H330 3706   3.416   3.104   6.592 -0.8758 -0.0497 -0.2014
    9RES   H331 3707   3.545   3.117   6.818 -2.9551 -1.3678 -0.9400
    9RES   H332 3708   3.670   3.173   6.731 -0.6681  1.2808  1.6642
    9RES   H333 3709   3.711   2.939   6.751 -0.6816  1.6021  0.6373
    9RES   H334 3710   3.679   2.953   6.590 -0.7224 -0.6761 -0.5277
    9RES   H335 3711   3.421   2.884   6.655 -0.1605  0.8054 -0.4315
    9RES   H336 3712   3.492   2.819   6.805 -1.7658 -0.1624 -0.6622
    9RES   H337 3713   3.537   2.773   6.639  0.2807 -0.2107  0.3470
    9RES   C338 3714   3.471   3.476   6.475 -0.0071  0.3381 -0.4449
    9RES   C339 3715   3.556   3.592   6.534  0.5873  0.7774 -0.3800
    9RES   C340 3716   3.477   3.722   6.575  0.5261  0.6418 -0.1041
    9RES   C341 3717   3.547   3.812   6.677  0.5470 -0.2143 -0.5500
    9RES   C342 3718   3.480   3.949   6.694 -0.1922  0.2502  0.5103
    9RES   C343 3719   3.527   4.053   6.590  0.0380  0.0175 -0.2565
    9RES   C344 3720   3.493   4.198   6.639  0.6739 -0.3399 -0.0272
    9RES   H345 3721   3.413   3.523   6.396  0.3849  1.9350  0.2080
    9RES   H346 3722   3.550   3.415   6.429  1.2140 -1.0105  3.2575
    9RES   H347 3723   3.590   3.556   6.631  0.4285 -0.7181 -0.8735
    9RES   H348 3724   3.457   3.767   6.478 -1.3153 -0.7774 -0.4160
    9RES   H349 3725   3.385   3.688   6.623  1.2406  0.1184  0.9107
    9RES   H350 3726   3.655   3.821   6.666  0.8095 -1.3486  0.8608
    9RES   H351 3727   3.528   3.749   6.764 -2.6378  2.7142  0.9758
    9RES   H352 3728   3.374   3.925   6.698 -0.1613  0.3192  2.0634
    9RES   H353 3729   3.508   3.983   6.794  1.8171 -0.8680  0.3490
    9RES   H354 3730   3.636   4.044   6.585  0.0593 -1.9659  2.9997
    9RES   H355 3731   3.484   4.022   6.494  1.1227 -2.2091 -0.0319
    9RES   H356 3732   3.554   4.226   6.725  1.7561 -2.6207 -0.0180
    9RES   H357 3733   3.391   4.207   6.677  1.7000  2.1221  2.2468
    9RES   H358 3734   3.507   4.276   6.564 -1.8691  0.5049  0.3076
    9RES   C359 3735   3.667   3.650   6.435 -0.6415  0.3045 -0.7153
    9RES   C360 3736   3.794   3.567   6.406  0.0068 -0.1256  0.3051
    9RES   C361 3737   3.882   3.626   6.283 -0.0349  0.4681  0.5645
    9RES   C362 3738   3.966   3.755   6.314 -0.8009 -0.1468 -0.0548
    9RES   C363 3739   4.057   3.798   6.194  0.6365  0.5942 -0.2147
    9RES   C364 3740   4.170   3.896   6.242  0.3715 -0.0208  0.1167
    9RES   C365 3741   4.245   3.940   6.114 -0.4177 -0.1726  0.1761
    9RES   H366 3742   3.692   3.748   6.475  0.5206 -0.2554 -0.0326
    9RES   H367 3743   3.621   3.663   6.337 -0.3675  0.7339 -0.7869
    9RES   H368 3744   3.758   3.472   6.367  1.2628 -1.2087  1.6987
    9RES   H369 3745   3.948   3.546   6.248 -0.1796  0.7991 -0.4694
    9RES   H370 3746   3.816   3.645   6.199  0.1374  1.2004  0.5868
    9RES   H371 3747   3.896   3.833   6.344  0.9562  2.1645 -1.7820
    9RES   H372 3748   4.040   3.748   6.394 -1.1189 -0.6695  0.1925
    9RES   H373 3749   4.098   3.708   6.149  1.9047  1.6677 -1.2432
    9RES   H374 3750   3.991   3.843   6.120 -0.2086 -0.8723 -0.3754
    9RES   H375 3751   4.126   3.976   6.302  0.8219  0.0757  0.3218
    9RES   H376 3752   4.236   3.847   6.314  0.6570  3.0071  2.0152
    9RES   H377 3753   4.189   4.024   6.072 -2.2969 -2.3157 -1.7582
    9RES   H378 3754   4.348   3.969   6.135 -0.4436 -0.7805  1.1281
    9RES   H379 3755   4.246   3.852   6.049  0.8421 -0.3301  0.4080
    9RES   C380 3756   3.876   3.517   6.523 -0.0354  0.8482  0.7676
    9RES   C381 3757   3.976   3.403   6.503  0.1257 -0.4531 -0.1020
    9RES   C382 3758   4.119   3.447   6.475  0.5042 -0.7104 -0.8315
    9RES   C383 3759   4.211   3.341   6.416  0.3152  0.8045 -0.4990
    9RES   C384 3760   4.363   3.372   6.420 -0.8096  0.6546  0.3003
    9RES   C385 3761   4.402   3.515   6.380 -0.2804  0.1925 -0.4255
    9RES   C386 3762   4.393   3.536   6.226 -0.7821  0.3672  0.9356
    9RES   H387 3763   3.925   3.599   6.576  0.5176  0.7450  0.4199
    9RES   H388 3764   3.805   3.479   6.597  1.0932 -3.6306 -0.3134
    9RES   H389 3765   3.955   3.371   6.401 -0.4585  1.8274 -0.7203
    9RES   H390 3766   4.169   3.494   6.560  1.2862  1.1967 -2.2874
    9RES   H391 3767   4.115   3.529   6.402  1.6068  0.7119  0.6475
    9RES   H392 3768   4.203   3.258   6.487  0.5030  1.9636  0.9039
    9RES   H393 3769   4.172   3.322   6.317  0.6141 -0.3358 -0.4049
    9RES   H394 3770   4.392   3.361   6.525  2.6447 -0.6980 -0.7288
    9RES   H395 3771   4.420   3.297   6.364 -3.2847  0.4550 -2.0455
    9RES   H396 3772   4.504   3.539   6.409 -0.7467  0.9230  0.6202
    9RES   H397 3773   4.343   3.594   6.426 -0.0332 -0.7231  1.5033
    9RES   H398 3774   4.415   3.636   6.189  0.4919 -0.5058 -0.7860
    9RES   H399 3775   4.306   3.510   6.166  1.3752  0.7195 -2.4554
    9RES   H400 3776   4.475   3.484   6.175 -0.8978  0.2724  0.8482
    9RES   C401 3777   3.957   3.285   6.593 -0.2531  0.4379 -0.5453
    9RES   C402 3778   4.004   3.320   6.733 -0.0268  0.2587 -0.0716
    9RES   C403 3779   3.992   3.216   6.842  0.6504 -0.6722  0.6290
    9RES   C404 3780   4.071   3.084   6.820  0.2216  0.2225  0.3268
    9RES   C405 3781   3.987   2.974   6.891 -0.2096 -0.2108  0.8634
    9RES   C406 3782   4.078   2.855   6.922  0.1263  0.1320 -0.3500
    9RES   C407 3783   4.135   2.789   6.801 -0.2909 -0.2269 -0.5383
    9RES   H408 3784   4.007   3.194   6.558 -0.4152 -0.1662  0.7594
    9RES   H409 3785   3.851   3.258   6.592 -0.3843  0.8713  0.8481
    9RES   H410 3786   3.951   3.403   6.779  1.0927  1.3521 -0.6985
    9RES   H411 3787   3.884   3.207   6.845  0.6468 -2.0314 -2.2572
    9RES   H412 3788   4.039   3.258   6.931  0.5200 -2.2826  1.4841
    9RES   H413 3789   4.169   3.087   6.868 -0.0625  3.0402  0.8137
    9RES   H414 3790   4.092   3.069   6.714  0.4171  0.3377  0.3487
    9RES   H415 3791   3.943   3.002   6.987 -1.5511  0.9529 -0.0691
    9RES   H416 3792   3.913   2.940   6.818  1.0893 -0.8486 -0.1784
    9RES   H417 3793   4.161   2.882   6.987  0.6487 -2.8634  0.2717
    9RES   H418 3794   4.009   2.785   6.969 -0.0476 -0.6629 -1.7622
    9RES   H419 3795   4.215   2.848   6.757 -0.3613 -0.3338 -0.8062
    9RES   H420 3796   4.062   2.763   6.724  0.4275  0.9770 -1.6485
    9RES   H421 3797   4.170   2.689   6.828 -0.5213 -0.4561 -1.0792
    9RES   H422 3798   4.108   3.355   6.729  0.3661 -0.8867 -0.1302
   10RES     C1 3799   4.071   3.890   6.678  0.2411  0.0107 -0.7367
   10RES     C2 3800   4.198   3.828   6.738 -0.5739 -0.5545  0.0287
   10RES     C3 3801   4.313   3.801   6.637 -0.4126 -0.1134  0.6375
   10RES     C4 3802   4.378   3.918   6.568 -0.1904  0.3913 -0.0846
   10RES     C5 3803   4.486   3.876   6.470 -0.6859  0.0338  0.5082
   10RES     C6 3804   4.575   3.988   6.425  0.0036  0.5387 -0.2442
   10RES     C7 3805   4.663   3.946   6.305  0.3193 -0.7992  0.7034
   10RES     H8 3806   4.085   3.995   6.651 -1.5310 -0.1138 -2.2297
   10RES     H9 3807   3.990   3.884   6.752 -0.8557 -1.9786 -2.0528
   10RES    H10 3808   4.242   3.905   6.801  0.3484  0.4411 -1.7823
   10RES    H11 3809   4.389   3.747   6.693  0.2744 -0.1143 -0.2907
   10RES    H12 3810   4.279   3.728   6.563  0.2523  0.8292 -0.6106
   10RES    H13 3811   4.300   3.975   6.517 -0.6579 -0.5208 -0.3942
   10RES    H14 3812   4.413   3.979   6.652 -1.3769  1.0402 -0.0370
   10RES    H15 3813   4.432   3.830   6.387 -1.5202  3.4433 -0.9413
   10RES    H16 3814   4.549   3.794   6.505 -0.4915 -0.0786 -0.0980
   10RES    H17 3815   4.643   4.031   6.499 -0.6341  0.6015  0.3021
   10RES    H18 3816   4.518   4.077   6.400  0.7946  1.3000  0.6182
   10RES    H19 3817   4.743   3.881   6.341  2.4707 -1.1366 -4.2589
   10RES    H20 3818   4.720   4.032   6.269  1.7372 -2.0822 -0.1448
   10RES    H21 3819   4.610   3.899   6.223 -0.9292  1.7054  0.0095
   10RES    H22 3820   4.028   3.844   6.589 -0.3006 -0.6366 -0.1508
   10RES    C23 3821   4.167   3.698   6.827 -0.7441  0.3487  0.2306
   10RES    C24 3822   4.262   3.648   6.937  0.5273  0.4847  0.8441
   10RES    C25 3823   4.215   3.511   6.986  0.2861 -0.9640  0.0280
   10RES    C26 3824   4.309   3.449   7.096 -0.0168 -0.1622  0.1742
   10RES    C27 3825   4.282   3.297   7.118 -1.4308 -0.2777  0.6497
   10RES    C28 3826   4.370   3.237   7.234  0.5952  0.2818  0.2978
   10RES    C29 3827   4.332   3.091   7.264 -0.5077 -0.1069  0.0193
   10RES    H30 3828   4.063   3.696   6.860 -1.0232  2.2067 -0.4491
   10RES    H31 3829   4.173   3.609   6.765 -0.7851 -0.2604  1.0970
   10RES    H32 3830   4.360   3.634   6.893  0.4531  1.3661  0.3797
   10RES    H33 3831   4.209   3.451   6.895  0.4652  0.7018 -1.0843
   10RES    H34 3832   4.110   3.513   7.015  0.0842 -1.4638 -0.6495
   10RES    H35 3833   4.278   3.498   7.188 -2.7464 -0.5791 -0.4698
   10RES    H36 3834   4.415   3.466   7.083 -0.1855  1.7671  1.1922
   10RES    H37 3835   4.318   3.251   7.026 -4.0647 -0.6159 -0.2444
   10RES    H38 3836   4.175   3.283   7.128 -1.2785 -1.3790  0.8562
   10RES    H39 3837   4.353   3.300   7.321 -0.1483  2.5003 -1.4006
   10RES    H40 3838   4.474   3.258   7.206 -0.1536  1.7012 -1.5241
   10RES    H41 3839   4.335   3.042   7.167 -1.7844  1.8921 -1.0875
   10RES    H42 3840   4.408   3.048   7.329  1.1843 -0.8508 -2.4005
   10RES    H43 3841   4.234   3.063   7.304  0.2998 -0.3295  1.9132
   10RES    C44 3842   4.278   3.750   7.051  0.4346 -0.5631  0.0177
   10RES    C45 3843   4.146   3.774   7.137 -0.2983 -0.0024  0.6369
   10RES    C46 3844   4.169   3.760   7.291 -0.0398 -0.2019 -0.4064
   10RES    C47 3845   4.218   3.880   7.360 -0.2642 -0.0811 -0.2162
   10RES    C48 3846   4.246   3.860   7.510  0.6094  0.1309 -0.3382
   10RES    C49 3847   4.344   3.751   7.555 -0.3454  0.0555 -0.0595
   10RES    C50 3848   4.350   3.722   7.708 -0.2540 -0.1982 -0.6320
   10RES    H51 3849   4.318   3.836   6.996 -0.9301 -1.2351 -2.1189
   10RES    H52 3850   4.360   3.725   7.118  2.6151  0.6689 -2.1035
   10RES    H53 3851   4.084   3.694   7.095 -0.5161  0.7463 -0.4907
   10RES    H54 3852   4.240   3.680   7.315  2.3893  0.7151 -4.0776
   10RES    H55 3853   4.073   3.718   7.319 -1.1466  1.7397 -1.2062
   10RES    H56 3854   4.305   3.904   7.299 -1.7770 -0.1048 -2.4353
   10RES    H57 3855   4.148   3.963   7.345  0.4107  0.2189 -1.8064
   10RES    H58 3856   4.153   3.859   7.567  0.5514  1.5042 -0.3732
   10RES    H59 3857   4.274   3.960   7.544  0.1513  0.5591 -1.2191
   10RES    H60 3858   4.444   3.757   7.512  0.4536 -0.2091  1.6741
   10RES    H61 3859   4.297   3.660   7.517 -0.8179 -0.5975  1.9895
   10RES    H62 3860   4.255   3.729   0.033 -0.4964  0.7105 -1.1926
   10RES    H63 3861   4.428   3.770   0.040 -0.5581 -0.9718  0.4182
   10RES    H64 3862   4.375   3.616   7.716 -1.7413 -0.6322 -1.4769
   10RES    C65 3863   4.071   3.907   7.097 -0.4452  0.3361 -0.5132
   10RES    C66 3864   3.920   3.914   7.143 -0.5405 -0.6694  0.1622
   10RES    C67 3865   3.827   3.833   7.050 -0.2766 -0.0639  0.3563
   10RES    C68 3866   3.782   3.699   7.116  0.3437  0.0329 -0.3387
   10RES    C69 3867   3.713   3.600   7.012 -0.7186 -0.3461 -0.6364
   10RES    C70 3868   3.670   3.475   7.081 -0.2466 -0.1873  0.4303
   10RES    C71 3869   3.622   3.368   6.989  0.8495 -0.4532  0.3644
   10RES    H72 3870   4.131   3.992   7.129  2.3774 -1.6969 -0.1841
   10RES    H73 3871   4.076   3.921   6.989  0.9446 -1.8365 -0.7500
   10RES    H74 3872   3.905   3.873   7.242 -2.0182 -2.3575 -0.7265
   10RES    H75 3873   3.741   3.892   7.021  0.7692  2.0665  1.4726
   10RES    H76 3874   3.872   3.809   6.954 -1.8630  0.4539 -0.5116
   10RES    H77 3875   3.867   3.653   7.165 -1.8046 -1.9453  1.6756
   10RES    H78 3876   3.712   3.723   7.196 -0.4157  0.1781 -1.0264
   10RES    H79 3877   3.623   3.643   6.970 -2.0176  0.4764  2.8721
   10RES    H80 3878   3.791   3.574   6.940  0.0150 -1.5222  0.5466
   10RES    H81 3879   3.599   3.505   7.158 -2.3485  1.6010 -2.1503
   10RES    H82 3880   3.757   3.441   7.138 -0.0169  1.1296  0.8885
   10RES    H83 3881   3.705   3.336   6.926  0.4168  0.8364 -0.8860
   10RES    H84 3882   3.579   3.281   7.039  1.5578 -0.8508  0.2894
   10RES    H85 3883   3.547   3.420   6.929  1.3122  1.3967  1.3265
   10RES    C86 3884   3.884   4.061   7.141 -0.7047  0.7996 -0.4395
   10RES    C87 3885   3.750   4.102   7.206 -0.6085  0.3426  0.0529
   10RES    C88 3886   3.762   4.094   7.366 -0.3804 -0.0493  0.2604
   10RES    C89 3887   3.869   4.180   7.434  0.6912 -0.4497 -0.5926
   10RES    C90 3888   3.855   4.184   7.581 -0.3066 -0.5638 -0.4655
   10RES    C91 3889   3.731   4.258   7.637 -0.2088  0.1817  0.4259
   10RES    C92 3890   3.703   4.239   0.064  0.4372 -0.1327  0.0449
   10RES    H93 3891   3.962   4.116   7.193 -1.4981  1.7084 -0.2041
   10RES    H94 3892   3.891   4.096   7.038 -0.8722 -4.1775 -2.2879
   10RES    H95 3893   3.676   4.026   7.183  0.3702  0.3968 -3.5650
   10RES    H96 3894   3.667   4.107   7.417 -0.2397  0.6499  0.3542
   10RES    H97 3895   3.792   3.996   7.401 -1.1565 -0.8481 -1.2783
   10RES    H98 3896   3.971   4.147   7.414  1.6947  0.6470  2.5149
   10RES    H99 3897   3.867   4.286   7.409 -1.3558  0.4176  2.9100
   10RES   H100 3898   3.947   4.219   7.628  0.2418  1.3790 -2.8212
   10RES   H101 3899   3.855   4.084   7.624  0.6183 -0.6620 -0.6650
   10RES   H102 3900   3.731   4.361   7.600  0.8176 -0.1887 -0.6236
   10RES   H103 3901   3.644   4.211   7.592 -0.2781  1.0296 -0.3421
   10RES   H104 3902   3.687   4.135   0.091  0.5153 -0.6808 -2.0018
   10RES   H105 3903   3.613   4.289   0.098 -0.6688 -0.4238 -2.3704
   10RES   H106 3904   3.790   4.281   0.115  0.4755 -2.5331  2.0533
   10RES   C107 3905   3.697   4.237   7.145  0.4987 -0.1371  0.3297
   10RES   C108 3906   3.550   4.277   7.184  0.3569  0.7020  0.2529
   10RES   C109 3907   3.522   4.419   7.132  0.2796 -0.2356  0.4194
   10RES   C110 3908   3.543   4.449   6.976 -0.0560 -0.0823  0.4010
   10RES   C111 3909   3.519   4.589   6.936  0.4757 -0.0873 -0.0367
   10RES   C112 3910   3.531   4.618   6.786  0.2202 -0.1321 -0.0953
   10RES   C113 3911   3.560   4.760   6.736 -0.3121  0.6993  0.5282
   10RES   H114 3912   3.700   4.239   7.036  1.8375 -2.2308  0.3015
   10RES   H115 3913   3.779   4.300   7.176  1.2277 -0.9065 -0.0104
   10RES   H116 3914   3.535   4.290   7.291  0.4983 -0.5045  0.4235
   10RES   H117 3915   3.581   4.490   7.189  0.7408  1.5736 -2.2307
   10RES   H118 3916   3.421   4.447   7.163 -0.1565 -1.4320  0.1419
   10RES   H119 3917   3.645   4.433   6.941 -0.1037  0.8721 -0.2033
   10RES   H120 3918   3.489   4.373   6.920  1.7465  0.2040 -1.8427
   10RES   H121 3919   3.583   4.659   6.991  0.6097  0.6197 -1.0820
   10RES   H122 3920   3.420   4.614   6.975  0.2801 -1.8314  0.6453
   10RES   H123 3921   3.597   4.545   6.738 -0.1429 -0.4908 -0.0568
   10RES   H124 3922   3.435   4.591   6.741  1.3082 -1.1448 -1.8497
   10RES   H125 3923   3.668   4.769   6.740  0.0551 -1.8823 -1.9742
   10RES   H126 3924   3.537   4.775   6.631 -0.3155 -1.0419  0.2598
   10RES   H127 3925   3.505   4.831   6.799  2.2003  0.3099  3.2965
   10RES   C128 3926   3.439   4.174   7.136 -0.1649  0.0716  0.3209
   10RES   C129 3927   3.402   4.055   7.224  0.2443  0.0490  0.1131
   10RES   C130 3928   3.293   3.972   7.152 -0.5459 -0.2016  0.1099
   10RES   C131 3929   3.342   3.841   7.089 -0.1833  0.2635 -1.0626
   10RES   C132 3930   3.231   3.766   7.007  0.2576 -0.4479 -0.3837
   10RES   C133 3931   3.254   3.617   6.972  0.0349 -1.4316  0.3008
   10RES   C134 3932   3.126   3.548   6.929 -0.3976 -0.6050 -0.4341
   10RES   H135 3933   3.343   4.225   7.131  0.8744  1.8438 -2.6028
   10RES   H136 3934   3.455   4.138   7.034  1.3156 -2.4648  1.4009
   10RES   H137 3935   3.489   3.994   7.250  0.0096 -0.0776  0.6111
   10RES   H138 3936   3.250   4.030   7.071  2.1860 -0.4477 -1.5656
   10RES   H139 3937   3.216   3.961   7.229 -1.4582  1.3245 -0.5733
   10RES   H140 3938   3.393   3.781   7.165  1.8534  1.0142 -1.8135
   10RES   H141 3939   3.422   3.859   7.016 -0.3384 -0.1870 -1.3490
   10RES   H142 3940   3.192   3.829   6.927  1.5171 -1.0837 -1.5149
   10RES   H143 3941   3.158   3.756   7.087  0.4004  1.9524  0.0822
   10RES   H144 3942   3.311   3.566   7.050  0.5206 -0.1917  0.7670
   10RES   H145 3943   3.323   3.623   6.888  0.9782 -3.5136  0.8903
   10RES   H146 3944   3.057   3.522   7.009  0.0220 -0.5197 -0.0467
   10RES   H147 3945   3.146   3.459   6.868 -1.3808  1.0582 -3.2664
   10RES   H148 3946   3.065   3.616   6.870 -2.0252 -0.1825  1.6796
   10RES   C149 3947   3.332   4.109   7.353 -0.5781 -0.4299  0.3265
   10RES   C150 3948   3.294   4.014   7.468 -0.5220 -0.4733 -0.3613
   10RES   C151 3949   3.176   4.074   7.546 -0.3819  0.3843  0.2829
   10RES   C152 3950   3.041   4.077   7.474 -0.2889  0.0990  0.1497
   10RES   C153 3951   2.938   4.168   7.547  0.1156 -0.4403 -0.0794
   10RES   C154 3952   2.785   4.141   7.516 -0.2108 -0.1897  0.7625
   10RES   C155 3953   2.670   4.230   7.577  0.0304 -0.2703 -0.4054
   10RES   H156 3954   3.399   4.184   7.394 -1.3023  1.1513 -1.3277
   10RES   H157 3955   3.240   4.159   7.322 -0.3941 -0.5661 -0.4306
   10RES   H158 3956   3.249   3.921   7.433 -1.4155 -0.4296  0.6309
   10RES   H159 3957   3.174   4.034   7.648 -0.6510  0.1020  0.1673
   10RES   H160 3958   3.204   4.178   7.567  3.1435 -0.2457 -0.9206
   10RES   H161 3959   3.010   3.974   7.457 -3.4681  1.4449 -2.6736
   10RES   H162 3960   3.040   4.115   7.372 -2.9120  1.7758  0.7682
   10RES   H163 3961   2.974   4.268   7.523  1.5030 -1.4252 -2.2439
   10RES   H164 3962   2.951   4.153   7.655  2.7892  0.6940 -0.1841
   10RES   H165 3963   2.774   4.039   7.552  0.2892 -0.4386  0.2208
   10RES   H166 3964   2.760   4.129   7.410  1.5947  1.1825  0.1568
   10RES   H167 3965   2.681   4.326   7.526  1.0424  1.3917  2.7798
   10RES   H168 3966   2.688   4.242   7.684 -0.2168  0.8694 -0.4809
   10RES   H169 3967   2.573   4.183   7.562  0.5365 -1.2129 -0.7213
   10RES   C170 3968   3.410   3.970   7.563  0.0495  0.3543  0.7467
   10RES   C171 3969   3.501   3.842   7.526  0.0065 -0.2531  0.0063
   10RES   C172 3970   3.632   3.836   7.608  0.1733  0.0224  0.3246
   10RES   C173 3971   3.738   3.747   7.547 -0.0663 -0.2184 -0.3195
   10RES   C174 3972   3.869   3.738   7.638 -0.0853 -0.0290  0.3767
   10RES   C175 3973   3.852   3.670   0.047 -0.5662 -0.4533 -0.5925
   10RES   C176 3974   3.984   3.641   0.122  0.4265  0.4588 -0.5636
   10RES   H177 3975   3.376   3.958   7.665  3.3381  0.4435  1.9154
   10RES   H178 3976   3.473   4.057   7.582  0.8603 -0.3250  1.2022
   10RES   H179 3977   3.531   3.864   7.423 -2.2446  1.0504 -0.4083
   10RES   H180 3978   3.618   3.819   7.715  1.0692  2.8080  0.9250
   10RES   H181 3979   3.667   3.939   7.603  0.5979 -0.2053 -1.7392
   10RES   H182 3980   3.761   3.782   7.446  1.7618  1.2833  0.5807
   10RES   H183 3981   3.697   3.646   7.542  0.2526 -0.2598 -2.8066
   10RES   H184 3982   3.922   3.833   7.639  0.4283 -0.3028 -0.4583
   10RES   H185 3983   3.933   3.674   7.577 -1.6556  0.2144 -1.5599
   10RES   H186 3984   3.786   3.584   0.033 -1.0280  0.2090 -2.6171
   10RES   H187 3985   3.793   3.741   0.105 -1.2070 -0.2533 -1.4800
   10RES   H188 3986   3.962   3.590   0.216  2.5657 -0.7336 -0.6699
   10RES   H189 3987   4.036   3.731   0.152  0.9430 -0.3159  0.9480
   10RES   H190 3988   4.042   3.576   0.056 -0.4692  1.1723 -2.0792
   10RES   C191 3989   3.424   3.706   7.510 -0.6272  0.1917  0.2208
   10RES   C192 3990   3.407   3.599   7.628 -0.5163 -1.0805 -0.6403
   10RES   C193 3991   3.323   3.673   0.010 -0.4934 -0.5766  0.4468
   10RES   C194 3992   3.171   3.688   7.708 -1.1412 -0.4467  0.3406
   10RES   C195 3993   3.098   3.776   0.081 -0.3902 -1.2099  0.4121
   10RES   C196 3994   2.938   3.777   0.068 -0.5027 -0.8070 -0.9481
   10RES   C197 3995   2.856   3.880   0.144 -0.3222  0.4267  0.7761
   10RES   H198 3996   3.484   3.650   7.438 -1.7930 -2.4290  1.2181
   10RES   H199 3997   3.338   3.721   7.445  0.5571  4.4384 -0.5462
   10RES   H200 3998   3.500   3.581   7.683 -0.8139 -0.6385  0.0002
   10RES   H201 3999   3.363   3.772   0.029 -2.1807  0.1174  0.5203
   10RES   H202 4000   3.332   3.614   0.101 -0.2757 -0.8241  0.2645
   10RES   H203 4001   3.130   3.587   7.709  0.2175 -1.0267 -1.3145
   10RES   H204 4002   3.161   3.723   7.606 -1.0859  1.6680  1.0255
   10RES   H205 4003   3.116   3.737   0.181 -3.2405 -0.1001  1.4144
   10RES   H206 4004   3.133   3.879   0.071 -1.1272 -1.2668 -3.6752
   10RES   H207 4005   2.909   3.672   0.073  0.0482 -0.9419 -0.5255
   10RES   H208 4006   2.909   3.798   7.692  1.1890 -1.0609 -1.4797
   10RES   H209 4007   2.916   3.971   0.141 -1.4267  1.2406  2.5034
   10RES   H210 4008   2.844   3.836   0.243  1.1321 -1.2419  0.2228
   10RES   H211 4009   2.766   3.896   0.083  2.5287  1.6382 -3.3306
   10RES   C212 4010   3.324   3.472   7.576  0.5482 -0.5468  0.0171
   10RES   C213 4011   3.394   3.370   7.482 -0.3470  0.1598 -0.3241
   10RES   C214 4012   3.375   3.406   7.332  0.9390  0.7319 -0.8644
   10RES   C215 4013   3.257   3.329   7.267 -0.7586  0.4988  0.1122
   10RES   C216 4014   3.302   3.193   7.206 -0.5474  0.8931  0.4474
   10RES   C217 4015   3.237   3.159   7.074  0.1111  0.4269 -0.0623
   10RES   C218 4016   3.307   3.045   7.007  0.4542  0.0084 -0.5076
   10RES   H219 4017   3.243   3.517   7.519  0.3809  0.4983  1.0836
   10RES   H220 4018   3.278   3.419   7.659 -2.1835 -0.5300 -1.4542
   10RES   H221 4019   3.346   3.272   7.491 -3.0294  1.5499  1.1881
   10RES   H222 4020   3.353   3.512   7.321 -0.6344  0.4292 -0.7448
   10RES   H223 4021   3.468   3.397   7.275  1.9233  2.3926  0.4601
   10RES   H224 4022   3.226   3.394   7.184 -1.0866  0.4195  0.1731
   10RES   H225 4023   3.171   3.305   7.329 -1.3288 -0.1110 -0.9009
   10RES   H226 4024   3.410   3.184   7.199 -0.5794  0.9262 -0.1392
   10RES   H227 4025   3.280   3.116   7.281 -1.1233 -1.2620 -1.8610
   10RES   H228 4026   3.130   3.145   7.087 -0.0100 -0.0694 -1.5062
   10RES   H229 4027   3.230   3.247   7.010 -2.2294 -0.3412 -0.9326
   10RES   H230 4028   3.321   2.959   7.073 -0.4638  1.1265  1.1854
   10RES   H231 4029   3.398   3.077   6.957 -0.3268  1.3485 -1.0875
   10RES   H232 4030   3.235   3.012   6.932  0.3386 -1.2196  0.1140
   10RES   C233 4031   3.541   3.338   7.528  0.3602 -0.2253 -0.8789
   10RES   C234 4032   3.605   3.200   7.482 -0.6444  0.0742  0.1280
   10RES   C235 4033   3.756   3.194   7.516  0.4262  0.0979  0.1989
   10RES   C236 4034   3.848   3.276   7.413 -0.9086  0.3781  0.1082
   10RES   C237 4035   4.002   3.262   7.433 -0.4601 -0.1641 -0.4515
   10RES   C238 4036   4.040   3.325   7.568  0.0464 -0.2026 -0.2913
   10RES   C239 4037   4.184   3.364   7.571  0.0858  0.6941 -1.0230
   10RES   H240 4038   3.535   3.342   7.636  2.6433  2.9569 -0.7872
   10RES   H241 4039   3.612   3.416   7.498 -1.8892  2.7776  1.3275
   10RES   H242 4040   3.598   3.205   7.373  0.4778 -0.1237  0.0490
   10RES   H243 4041   3.788   3.090   7.519 -1.1764 -0.4089  0.4159
   10RES   H244 4042   3.781   3.223   7.618  1.6941 -1.1655  0.2541
   10RES   H245 4043   3.833   3.384   7.418  1.1746  0.6223  1.5773
   10RES   H246 4044   3.825   3.249   7.310 -0.4037  2.7585 -0.6820
   10RES   H247 4045   4.054   3.306   7.348  0.6817 -0.3227  0.1463
   10RES   H248 4046   4.038   3.161   7.416 -0.6717 -0.4051  0.5153
   10RES   H249 4047   3.994   3.422   7.588  0.2780  0.3752 -2.4230
   10RES   H250 4048   4.013   3.260   7.651  2.8882  1.2212  1.8408
   10RES   H251 4049   4.242   3.274   7.553 -2.3558 -0.9117 -1.0623
   10RES   H252 4050   4.222   3.434   7.496 -0.1819 -0.0226 -1.8341
   10RES   H253 4051   4.206   3.407   7.669 -0.4177 -2.4314  0.5191
   10RES   C254 4052   3.526   3.071   7.510 -0.7767 -0.8688 -0.6793
   10RES   C255 4053   3.481   3.048   7.663  0.2746  0.2344  0.3568
   10RES   C256 4054   3.591   3.017   0.036 -0.5456 -0.1402  0.7395
   10RES   C257 4055   3.666   2.886   0.013  0.0718  0.0566  0.0274
   10RES   C258 4056   3.738   2.847   0.141  0.0008  0.0852  0.6882
   10RES   C259 4057   3.765   2.696   0.131 -0.2458 -0.4450  0.1140
   10RES   C260 4058   3.873   2.658   0.226  0.4390 -0.1979  0.3796
   10RES   H261 4059   3.590   2.987   7.481  1.4558  0.6715 -0.2723
   10RES   H262 4060   3.437   3.076   7.447 -0.5686 -1.6624 -1.0493
   10RES   H263 4061   3.431   3.137   7.700  0.6218 -0.2873  2.1447
   10RES   H264 4062   3.556   3.035   0.137  3.0944  0.0334  2.0309
   10RES   H265 4063   3.667   3.095   0.030  0.3790 -1.1474 -1.2782
   10RES   H266 4064   3.596   2.808   7.711  0.4219 -0.1034 -0.3895
   10RES   H267 4065   3.743   2.904   7.665  2.0501  1.7482  2.3886
   10RES   H268 4066   3.673   2.875   0.224 -1.6946 -3.5528  0.7015
   10RES   H269 4067   3.826   2.911   0.143 -0.0660  0.1672  0.9946
   10RES   H270 4068   3.678   2.642   0.167 -0.4326 -1.2245 -1.4706
   10RES   H271 4069   3.796   2.663   0.032 -0.0647 -1.3757  0.4739
   10RES   H272 4070   3.967   2.699   0.188 -0.4355 -0.9194 -2.7005
   10RES   H273 4071   3.857   2.698   0.326  0.4345  0.1407  0.2449
   10RES   H274 4072   3.888   2.551   0.237  0.0060 -0.5261 -2.1217
   10RES   C275 4073   3.362   2.951   7.669  0.1196  0.0644 -0.1167
   10RES   C276 4074   3.223   3.006   7.628 -0.1775 -0.0736  0.3913
   10RES   C277 4075   3.154   3.074   0.022 -0.4868 -0.3966  0.3476
   10RES   C278 4076   3.013   3.131   7.715  0.3208 -0.1327  0.5058
   10RES   C279 4077   2.938   3.201   0.105 -0.0854  0.2390 -0.3623
   10RES   C280 4078   2.841   3.307   0.053 -0.7646  0.3429  0.4241
   10RES   C281 4079   2.775   3.384   0.161 -0.1759  0.0544  0.0684
   10RES   H282 4080   3.355   2.912   0.044  2.5834 -2.1137 -0.7525
   10RES   H283 4081   3.388   2.868   7.604  1.4206 -1.6144  2.4662
   10RES   H284 4082   3.238   3.083   7.553  0.8351 -1.4985 -0.8997
   10RES   H285 4083   3.139   3.012   0.110  2.8030  1.4597  2.3395
   10RES   H286 4084   3.219   3.154   0.059  1.0944 -1.0342 -0.9920
   10RES   H287 4085   2.951   3.057   7.665 -0.1315 -0.1222  1.0391
   10RES   H288 4086   3.034   3.200   7.633  3.0460 -0.7026  0.6653
   10RES   H289 4087   3.009   3.255   0.169  0.6305 -2.7719  1.4806
   10RES   H290 4088   2.890   3.134   0.176 -0.5451  2.7999  1.8450
   10RES   H291 4089   2.894   3.382   7.721 -3.6662  2.1206 -0.0186
   10RES   H292 4090   2.760   3.274   7.715  0.0450  0.7913 -0.8159
   10RES   H293 4091   2.695   3.452   0.133  2.5028  2.2577 -2.4978
   10RES   H294 4092   2.845   3.455   0.204  1.1834  0.3438 -2.5068
   10RES   H295 4093   2.742   3.329   0.249 -0.7798  0.4893  0.1147
   10RES   C296 4094   3.138   2.887   7.573  0.1371 -0.2783  0.4815
   10RES   C297 4095   3.109   2.881   7.422 -0.5411  0.7944  0.6695
   10RES   C298 4096   3.027   3.006   7.374 -0.5407 -0.2701  0.1918
   10RES   C299 4097   2.872   3.016   7.397  0.1249 -0.4313 -0.0731
   10RES   C300 4098   2.829   3.165   7.363  0.2423  0.2069  0.4984
   10RES   C301 4099   2.679   3.179   7.340 -0.3276 -0.1797 -0.5187
   10RES   C302 4100   2.597   3.234   7.463 -0.1625  0.2265  0.1715
   10RES   H303 4101   3.183   2.791   7.599  2.2463  0.1263 -1.4873
   10RES   H304 4102   3.044   2.876   7.626  0.4256 -0.5374  0.9490
   10RES   H305 4103   3.204   2.876   7.369 -0.4449 -1.2254  0.9675
   10RES   H306 4104   3.090   3.088   7.408 -2.4405  0.2958  2.4653
   10RES   H307 4105   3.042   3.010   7.266  2.0209  0.9174  0.5629
   10RES   H308 4106   2.851   3.009   7.504  0.1845 -0.3087 -0.0529
   10RES   H309 4107   2.809   2.936   7.357  0.3865 -1.2220  1.0742
   10RES   H310 4108   2.879   3.208   7.276 -0.5973 -2.4937 -1.3697
   10RES   H311 4109   2.868   3.229   7.442  2.8412 -0.3766 -0.2596
   10RES   H312 4110   2.656   3.245   7.256  1.4854  2.7325  1.1958
   10RES   H313 4111   2.643   3.084   7.302  2.0240 -0.9011 -0.9893
   10RES   H314 4112   2.488   3.235   7.452 -0.0729  1.6214 -0.6193
   10RES   H315 4113   2.629   3.175   7.550  1.6140 -0.9230 -1.2309
   10RES   H316 4114   2.623   3.338   7.482 -2.4196  0.6443  1.0959
   10RES   C317 4115   3.033   2.753   7.369 -0.2191  0.4592 -0.0017
   10RES   C318 4116   3.104   2.614   7.396 -0.4771  0.2821  0.7186
   10RES   C319 4117   3.015   2.488   7.371  0.5104  0.2051 -0.1146
   10RES   C320 4118   2.893   2.479   7.471  0.0818  0.3417 -0.6633
   10RES   C321 4119   2.838   2.332   7.464 -0.1409 -0.2323  0.0490
   10RES   C322 4120   2.743   2.305   7.584  0.3325  0.5426 -0.5056
   10RES   C323 4121   2.627   2.210   7.543  0.2625 -0.3908 -0.8845
   10RES   H324 4122   3.015   2.768   7.263  0.3946  1.2018 -0.0024
   10RES   H325 4123   2.930   2.754   7.407 -0.6872  0.9332 -1.2435
   10RES   H326 4124   3.145   2.613   7.497  0.6002 -0.9604  0.2854
   10RES   H327 4125   3.075   2.398   7.384 -1.6199 -1.1026  0.9753
   10RES   H328 4126   2.971   2.468   7.273  1.0973 -0.3538 -0.2619
   10RES   H329 4127   2.829   2.563   7.446  1.6722  1.7350 -0.1751
   10RES   H330 4128   2.937   2.489   7.571  1.0047 -0.0659 -1.0171
   10RES   H331 4129   2.922   2.264   7.475  1.8188  1.7415 -2.1344
   10RES   H332 4130   2.785   2.324   7.368 -0.3974 -0.6521  0.2212
   10RES   H333 4131   2.697   2.398   7.616  0.2836  0.7105 -1.0486
   10RES   H334 4132   2.794   2.274   7.674  0.5126  0.1419 -0.7439
   10RES   H335 4133   2.567   2.196   7.633  1.1140  2.9562  0.2783
   10RES   H336 4134   2.667   2.119   7.500  2.4935 -0.4100  1.1593
   10RES   H337 4135   2.562   2.243   7.462  1.2260  0.5844 -1.2797
   10RES   C338 4136   3.239   2.605   7.310 -0.4130  0.3423  0.5880
   10RES   C339 4137   3.375   2.576   7.375 -0.1686  0.3229  0.3390
   10RES   C340 4138   3.502   2.618   7.300  0.3117 -0.3917  0.4087
   10RES   C341 4139   3.516   2.756   7.234  0.4854  0.2886  0.5361
   10RES   C342 4140   3.636   2.762   7.135 -0.0351 -0.5491  0.3018
   10RES   C343 4141   3.654   2.902   7.081  0.4067  0.1342  0.2230
   10RES   C344 4142   3.718   2.993   7.177  0.4664  0.2208  0.9125
   10RES   H345 4143   3.254   2.700   7.259 -0.2777  0.5773  1.0619
   10RES   H346 4144   3.229   2.529   7.232 -1.6130 -0.8316  1.8685
   10RES   H347 4145   3.373   2.638   7.465  0.8200 -1.5197  1.6390
   10RES   H348 4146   3.589   2.605   7.366  0.3362  1.0264  0.6665
   10RES   H349 4147   3.518   2.544   7.221 -0.5590  1.6474 -1.7136
   10RES   H350 4148   3.531   2.833   7.310  0.3033  0.7324  0.1319
   10RES   H351 4149   3.428   2.780   7.174  0.2562 -0.1100  0.7154
   10RES   H352 4150   3.731   2.732   7.179  2.0275  3.3296 -1.3247
   10RES   H353 4151   3.607   2.699   7.052  0.7189 -1.5621  0.8000
   10RES   H354 4152   3.692   2.903   6.979  1.8138 -2.5754  0.6619
   10RES   H355 4153   3.555   2.947   7.075  0.3631  0.3238  1.9577
   10RES   H356 4154   3.814   2.951   7.206  0.7119  0.0487 -0.1129
   10RES   H357 4155   3.665   3.008   7.271 -0.8612 -1.9081  0.5198
   10RES   H358 4156   3.739   3.088   7.127  0.2476 -0.0857  0.2342
   10RES   C359 4157   3.395   2.435   7.435  0.5735  0.2238 -0.2603
   10RES   C360 4158   3.504   2.403   7.539 -0.0807  0.2401  0.1504
   10RES   C361 4159   3.487   2.476   7.671  0.2953 -0.1836  0.8917
   10RES   C362 4160   3.353   2.470   0.008  0.0296  0.0160 -0.0979
   10RES   C363 4161   3.314   2.598   0.092 -0.8542  0.0929 -0.8519
   10RES   C364 4162   3.178   2.570   0.165  0.1074 -0.3973 -0.1173
   10RES   C365 4163   3.143   2.687   0.255 -0.9557 -0.8972 -0.3863
   10RES   H366 4164   3.414   2.364   7.353 -1.0884  0.1788 -0.6165
   10RES   H367 4165   3.299   2.402   7.475 -0.4014  1.8685 -1.1941
   10RES   H368 4166   3.599   2.441   7.500 -0.5258 -0.4089 -1.5522
   10RES   H369 4167   3.559   2.437   0.016  0.4621  0.4483  1.0721
   10RES   H370 4168   3.505   2.581   7.650 -1.4556  0.1401  0.8705
   10RES   H371 4169   3.273   2.464   7.661 -0.1689  2.1222 -0.0715
   10RES   H372 4170   3.353   2.371   0.054 -1.6296  0.0847  0.0788
   10RES   H373 4171   3.388   2.633   0.165 -0.5832 -0.0222 -1.0727
   10RES   H374 4172   3.298   2.690   0.035 -1.5108 -0.5898 -1.7690
   10RES   H375 4173   3.102   2.571   0.087  0.7587  1.5441 -0.7597
   10RES   H376 4174   3.185   2.476   0.221 -1.9749  0.4765  1.7172
   10RES   H377 4175   3.048   2.670   0.305 -1.7172  1.6285 -0.9247
   10RES   H378 4176   3.212   2.698   0.339 -1.0154 -0.3623 -0.4031
   10RES   H379 4177   3.124   2.769   0.186 -1.1669 -1.2833 -0.7894
   10RES   C380 4178   3.521   2.251   7.550  0.7155  0.1691  0.4619
   10RES   C381 4179   3.606   2.191   7.666  0.4762 -0.2759 -0.2449
   10RES   C382 4180   3.603   2.040   7.655 -0.3280  0.3972  0.5698
   10RES   C383 4181   3.478   1.974   7.715 -0.4246  0.2687  0.1985
   10RES   C384 4182   3.477   1.822   0.003 -0.2804 -0.2827 -0.5049
   10RES   C385 4183   3.344   1.775   0.071 -0.6698  0.0822 -0.1091
   10RES   C386 4184   3.338   1.808   0.220  0.5888  0.1941 -0.3719
   10RES   H387 4185   3.417   2.221   7.551  0.5861  0.5959 -0.1694
   10RES   H388 4186   3.567   2.211   7.459  0.3042 -2.5498  1.4012
   10RES   H389 4187   3.553   2.224   0.028 -0.3700  0.1031 -0.8789
   10RES   H390 4188   3.693   1.997   7.699  0.0972  0.4612 -0.2456
   10RES   H391 4189   3.607   2.015   7.549 -0.8587 -0.2841  0.7070
   10RES   H392 4190   3.457   2.011   0.089 -0.7259 -1.3553  0.7448
   10RES   H393 4191   3.398   2.001   7.647  1.3754  1.2778 -1.5555
   10RES   H394 4192   3.492   1.773   7.633 -0.7722  0.3565 -0.9048
   10RES   H395 4193   3.561   1.800   0.069 -1.2218 -0.6008  0.6101
   10RES   H396 4194   3.332   1.668   0.053  0.0373 -0.4415  2.3797
   10RES   H397 4195   3.263   1.821   0.014 -0.7287  0.6897  0.4632
   10RES   H398 4196   3.361   1.911   0.248 -1.4810  1.1472 -2.0153
   10RES   H399 4197   3.409   1.741   0.268  0.1192 -1.0157 -1.3500
   10RES   H400 4198   3.248   1.774   0.270  0.2794  1.1000 -0.3108
   10RES   C401 4199   3.752   2.244   7.664  0.3201  0.5176 -0.1260
   10RES   C402 4200   3.820   2.233   0.070  0.7478  0.1433  0.4894
   10RES   C403 4201   3.964   2.291   0.084 -0.8678 -0.0404  0.5046
   10RES   C404 4202   4.039   2.253   0.211  0.1607  0.3565  0.4653
   10RES   C405 4203   4.069   2.100   0.217  0.3398  0.3441 -0.0136
   10RES   C406 4204   4.180   2.062   0.312 -0.1575 -0.2369 -0.6234
   10RES   C407 4205   4.222   1.914   0.308  0.5921  0.7824 -0.3448
   10RES   H408 4206   3.746   2.352   7.650  2.0097  0.3946 -1.9956
   10RES   H409 4207   3.808   2.211   7.576  0.7318  3.1430 -0.8870
   10RES   H410 4208   3.842   2.129   0.093  0.7516 -0.2830 -1.4030
   10RES   H411 4209   3.959   2.400   0.076  0.3174 -0.0501 -0.3859
   10RES   H412 4210   4.018   2.270   7.718 -0.5124  3.5988 -0.2159
   10RES   H413 4211   3.993   2.286   0.304  0.5981  2.5410 -0.0683
   10RES   H414 4212   4.131   2.312   0.203 -0.1358  0.7774  0.1612
   10RES   H415 4213   3.985   2.040   0.250 -0.0015  0.5386 -0.5213
   10RES   H416 4214   4.102   2.048   0.127  1.2856 -0.1061  0.5891
   10RES   H417 4215   4.269   2.114   0.275  0.5866 -2.0842 -1.5063
   10RES   H418 4216   4.154   2.097   0.412  2.3169  0.0327 -0.0453
   10RES   H419 4217   4.301   1.886   0.377  0.1356 -0.6404 -0.3958
   10RES   H420 4218   4.232   1.890   0.202 -0.7157  1.0901 -0.5496
   10RES   H421 4219   4.139   1.856   0.347  0.4592  0.8497 -0.5274
   10RES   H422 4220   3.752   2.285   0.138 -0.1197 -1.0618  0.5576
   11RES     C1 4221   3.469   4.986   1.114  0.9488 -0.1855 -0.8854
   11RES     C2 4222   3.482   4.884   1.224 -0.2150  0.9527  0.3854
   11RES     C3 4223   3.377   4.768   1.216 -0.1713  0.1694  0.5292
   11RES     C4 4224   3.418   4.639   1.295 -0.6187 -0.1788 -0.2667
   11RES     C5 4225   3.315   4.530   1.308  0.8025 -0.6251 -0.1199
   11RES     C6 4226   3.296   4.451   1.174 -0.2969 -0.0328  0.2910
   11RES     C7 4227   3.186   4.353   1.183 -0.6600 -0.0081 -0.1255
   11RES     H8 4228   3.367   5.025   1.126  1.2229  0.2640  0.0459
   11RES     H9 4229   3.486   4.935   1.019  0.7859  1.7239 -1.9826
   11RES    H10 4230   3.580   4.840   1.210 -2.4135 -4.0936 -0.2740
   11RES    H11 4231   3.280   4.807   1.248 -1.9508 -2.4560 -1.4752
   11RES    H12 4232   3.368   4.747   1.110 -1.3982  1.2998  0.4112
   11RES    H13 4233   3.507   4.598   1.248  0.5179  1.8132  0.0561
   11RES    H14 4234   3.449   4.662   1.397 -0.1424  2.7505 -1.0184
   11RES    H15 4235   3.220   4.560   1.352  1.1438  0.6597 -0.2187
   11RES    H16 4236   3.362   4.456   1.372  1.1025  0.3759  0.8364
   11RES    H17 4237   3.382   4.404   1.126 -0.0240  1.8656 -1.1470
   11RES    H18 4238   3.276   4.529   1.100 -0.9606  2.2935  2.8326
   11RES    H19 4239   3.172   4.313   1.283 -0.4377  1.5049  0.5348
   11RES    H20 4240   3.198   4.277   1.106  0.4660  1.5654 -1.5366
   11RES    H21 4241   3.088   4.391   1.154 -0.6656 -1.0082 -1.4279
   11RES    H22 4242   3.546   5.064   1.117  1.1719 -0.4631  2.7839
   11RES    C23 4243   3.476   4.956   1.363  0.3050 -0.0611 -0.2663
   11RES    C24 4244   3.343   5.020   1.409 -0.3543 -0.4875 -0.5287
   11RES    C25 4245   3.358   5.165   1.464  0.7003 -0.3763  0.4175
   11RES    C26 4246   3.430   5.272   1.388  0.6272 -0.3383 -0.0823
   11RES    C27 4247   3.340   5.324   1.276 -0.1016 -0.4380  0.7948
   11RES    C28 4248   3.416   5.385   1.163  0.0660  0.2471  0.3785
   11RES    C29 4249   3.340   5.445   1.044 -0.5035 -0.3008  0.0599
   11RES    H30 4250   3.510   4.876   1.428  2.0082  1.0048  0.1650
   11RES    H31 4251   3.552   5.032   1.382  0.3352  0.2335 -1.5086
   11RES    H32 4252   3.279   5.023   1.321  1.4725 -0.5211 -1.8888
   11RES    H33 4253   3.411   5.170   1.559 -0.3794  1.1106  0.9558
   11RES    H34 4254   3.258   5.200   1.491  0.7974 -0.4199  0.8344
   11RES    H35 4255   3.527   5.241   1.348  1.0742  0.7829  0.1177
   11RES    H36 4256   3.454   5.356   1.454  0.7942  1.1049 -1.9132
   11RES    H37 4257   3.277   5.406   1.310  2.4217  2.9734 -2.4139
   11RES    H38 4258   3.276   5.255   1.222  0.6160  0.9006 -1.8563
   11RES    H39 4259   3.472   5.306   1.112 -0.1366  0.7731 -0.6619
   11RES    H40 4260   3.473   5.472   1.197 -1.4860  1.4040  0.0646
   11RES    H41 4261   3.304   5.543   1.075  1.2914  0.8232 -1.3254
   11RES    H42 4262   3.397   5.456   0.952 -1.5565  0.4291 -0.5164
   11RES    H43 4263   3.250   5.387   1.023 -1.2963  1.2641 -0.9343
   11RES    C44 4264   3.269   4.928   1.521 -0.2183  0.0273 -0.2558
   11RES    C45 4265   3.118   4.969   1.544  0.3606  0.3231 -0.7693
   11RES    C46 4266   3.026   4.948   1.420 -0.5148 -0.5091 -0.0833
   11RES    C47 4267   2.974   4.807   1.407  0.3142  0.5502 -0.4684
   11RES    C48 4268   2.921   4.768   1.268 -0.3797  0.0070  0.3335
   11RES    C49 4269   2.876   4.622   1.254  0.1855 -0.5114 -1.2740
   11RES    C50 4270   2.834   4.579   1.119 -0.2335  0.0177  0.2590
   11RES    H51 4271   3.327   4.938   1.613  2.6094  1.7033 -2.1474
   11RES    H52 4272   3.280   4.821   1.506 -1.8347 -0.4271  1.5263
   11RES    H53 4273   3.115   5.075   1.568 -0.0204  0.2928 -0.6727
   11RES    H54 4274   3.070   4.992   1.331  0.2955 -2.1219 -0.5039
   11RES    H55 4275   2.941   5.014   1.436 -0.8943 -1.1669  0.6753
   11RES    H56 4276   3.061   4.741   1.412  1.5702  2.1953 -0.1044
   11RES    H57 4277   2.893   4.795   1.478 -0.2786 -0.7280 -1.3401
   11RES    H58 4278   2.996   4.784   1.191 -1.3110 -0.1861 -0.6341
   11RES    H59 4279   2.836   4.828   1.234 -0.0044  0.1174 -0.4355
   11RES    H60 4280   2.797   4.607   1.327  0.8258 -0.7696 -0.6237
   11RES    H61 4281   2.959   4.557   1.280  0.4735  0.9974  1.7774
   11RES    H62 4282   2.769   4.491   1.114 -0.4241  0.1464  0.4520
   11RES    H63 4283   2.914   4.557   1.048 -0.3027 -0.4239  0.3154
   11RES    H64 4284   2.772   4.656   1.072 -1.4182 -1.5578 -0.8032
   11RES    C65 4285   3.059   4.906   1.674  0.1667  0.2257 -0.0999
   11RES    C66 4286   3.067   4.991   1.806 -0.0291 -0.3259 -0.0762
   11RES    C67 4287   3.052   4.890   1.921  0.4459  0.1827  0.4338
   11RES    C68 4288   2.925   4.807   1.910  0.6193  0.6029  0.8242
   11RES    C69 4289   2.890   4.720   2.037  0.4461 -0.1199  0.2546
   11RES    C70 4290   2.754   4.646   2.013 -0.3403  0.5019 -0.0840
   11RES    C71 4291   2.748   4.527   2.111 -0.2992  0.6305 -0.3233
   11RES    H72 4292   2.952   4.887   1.667  0.1774  0.4716 -0.9745
   11RES    H73 4293   3.093   4.803   1.685  1.6909  0.7789  0.5433
   11RES    H74 4294   3.168   5.032   1.806  0.3769 -1.1918  3.1142
   11RES    H75 4295   3.147   4.836   1.922  0.0256 -0.5721  0.1308
   11RES    H76 4296   3.056   4.936   2.019 -2.7216  0.8339  0.3040
   11RES    H77 4297   2.834   4.859   1.882  0.8736  0.4642 -0.2623
   11RES    H78 4298   2.939   4.731   1.833 -1.1579 -0.0630  1.1383
   11RES    H79 4299   2.971   4.654   2.068 -0.9458 -1.6580  0.7228
   11RES    H80 4300   2.878   4.779   2.128 -0.2129 -1.1249  0.8464
   11RES    H81 4301   2.740   4.597   1.917 -1.2068 -0.0771  0.3286
   11RES    H82 4302   2.673   4.715   2.034 -0.6427 -0.5930  2.5453
   11RES    H83 4303   2.671   4.452   2.090 -1.5680  1.2422  1.9251
   11RES    H84 4304   2.842   4.472   2.117 -0.4753  0.4800  1.1732
   11RES    H85 4305   2.726   4.563   2.212 -0.5139 -0.6349  0.0929
   11RES    C86 4306   2.953   5.098   1.811 -0.0880  0.3804 -0.3981
   11RES    C87 4307   2.968   5.193   1.930  0.2288  0.0999  0.5670
   11RES    C88 4308   3.097   5.273   1.929 -1.3302 -0.3193 -0.3736
   11RES    C89 4309   3.111   5.375   1.823 -0.2832  0.1023  0.7211
   11RES    C90 4310   3.231   5.461   1.833 -0.1111  0.1370  0.5650
   11RES    C91 4311   3.250   5.527   1.697 -0.0864 -0.0884  0.3831
   11RES    C92 4312   3.369   5.619   1.698 -0.7196 -0.1291 -0.7379
   11RES    H93 4313   2.961   5.160   1.722 -1.1806 -1.8573 -2.1113
   11RES    H94 4314   2.856   5.048   1.815 -0.1397  0.4602 -0.6844
   11RES    H95 4315   2.966   5.133   2.021  2.4206 -1.0257 -0.0838
   11RES    H96 4316   3.108   5.324   2.025  0.7044 -2.0104  0.3406
   11RES    H97 4317   3.185   5.208   1.930  0.0757  1.5311 -0.3154
   11RES    H98 4318   3.109   5.312   1.734 -0.7533  1.1461 -0.0101
   11RES    H99 4319   3.025   5.440   1.806 -0.7604 -0.5620  0.5592
   11RES   H100 4320   3.318   5.399   1.857  0.1901  0.1627 -0.4162
   11RES   H101 4321   3.224   5.526   1.920  0.6899  1.4531 -0.3340
   11RES   H102 4322   3.260   5.454   1.617  0.9394  0.2809  0.1774
   11RES   H103 4323   3.160   5.589   1.691 -0.5681 -0.6703  1.4386
   11RES   H104 4324   3.382   5.658   1.597  1.0427  0.7912 -0.1753
   11RES   H105 4325   3.455   5.554   1.718 -1.5534 -1.4133 -1.2422
   11RES   H106 4326   3.377   5.698   1.773  1.2334  2.1398 -3.2483
   11RES   C107 4327   2.846   5.284   1.929  0.3451  0.6093 -0.5145
   11RES   C108 4328   2.738   5.221   2.020  0.2809 -0.5429  0.8522
   11RES   C109 4329   2.769   5.246   2.164  0.3023 -0.7312  0.0415
   11RES   C110 4330   2.686   5.158   2.257 -0.0315  0.2155  0.0225
   11RES   C111 4331   2.712   5.006   2.230  1.0444 -0.4088  0.1578
   11RES   C112 4332   2.664   4.913   2.342  0.0814 -0.1923  1.0992
   11RES   C113 4333   2.521   4.879   2.331  0.0076  1.3729  0.0719
   11RES   H114 4334   2.826   5.316   1.827  4.0293  1.5305 -1.0360
   11RES   H115 4335   2.868   5.369   1.994  2.7907 -0.8618  0.6523
   11RES   H116 4336   2.739   5.114   1.997  2.3237 -0.4110  0.2734
   11RES   H117 4337   2.749   5.351   2.189  1.7026 -0.2731 -0.6970
   11RES   H118 4338   2.872   5.227   2.191  0.6147 -0.1146 -0.6911
   11RES   H119 4339   2.721   5.190   2.356  0.1363 -0.0531  0.0498
   11RES   H120 4340   2.583   5.193   2.244 -0.6780 -1.2836  0.9621
   11RES   H121 4341   2.816   4.978   2.211  0.4172 -2.2506 -0.6606
   11RES   H122 4342   2.661   4.973   2.140 -0.6886  0.9803  0.6025
   11RES   H123 4343   2.716   4.818   2.331  0.3797 -0.1906  2.4304
   11RES   H124 4344   2.699   4.952   2.437  0.8423 -1.4951  1.3695
   11RES   H125 4345   2.451   4.960   2.352  0.8446  1.1737  3.8119
   11RES   H126 4346   2.506   4.848   2.227  1.6418  1.5747 -0.2392
   11RES   H127 4347   2.496   4.794   2.394  1.9361  0.9521  0.2804
   11RES   C128 4348   2.602   5.282   1.982 -0.3729  0.2755 -0.4437
   11RES   C129 4349   2.558   5.263   1.834  0.0166  0.4615 -0.1299
   11RES   C130 4350   2.417   5.322   1.812 -0.1734 -0.4171  0.1975
   11RES   C131 4351   2.421   5.481   1.814 -0.2039 -0.5312 -0.0678
   11RES   C132 4352   2.275   5.530   1.796  0.1210  0.3189 -0.4758
   11RES   C133 4353   2.259   5.683   1.792 -0.6501 -0.3394  0.4444
   11RES   C134 4354   2.333   5.741   1.662  0.4709 -0.5587 -0.5173
   11RES   H135 4355   2.523   5.254   2.052 -1.2421  3.1498 -0.2191
   11RES   H136 4356   2.623   5.388   1.994 -2.2013  0.5667  0.4371
   11RES   H137 4357   2.624   5.321   1.771  1.0381  2.0011  2.2917
   11RES   H138 4358   2.354   5.290   1.894 -0.4065  0.0061  0.1837
   11RES   H139 4359   2.369   5.297   1.718 -1.5971  4.0225 -0.3942
   11RES   H140 4360   2.480   5.512   1.728  0.2372 -0.5209  0.2337
   11RES   H141 4361   2.472   5.511   1.905  0.1655 -4.4427  1.1153
   11RES   H142 4362   2.215   5.507   1.884  0.4657  1.4697  0.0745
   11RES   H143 4363   2.223   5.481   1.714  0.5411 -2.3390  0.7772
   11RES   H144 4364   2.298   5.729   1.883  2.8622 -0.6475 -0.8657
   11RES   H145 4365   2.153   5.711   1.794 -0.8357 -0.9916 -0.1254
   11RES   H146 4366   2.303   5.843   1.638 -1.8901 -0.9272  0.7198
   11RES   H147 4367   2.326   5.683   1.570 -1.3486  1.1289 -1.4879
   11RES   H148 4368   2.441   5.751   1.677  0.1796 -0.9944  2.1701
   11RES   C149 4369   2.545   5.117   1.786 -0.5222  0.3022  0.3647
   11RES   C150 4370   2.535   5.084   1.631  0.1616 -1.0697  0.6310
   11RES   C151 4371   2.527   4.933   1.602  0.6761  0.5627 -0.3672
   11RES   C152 4372   2.639   4.835   1.651 -0.1616  0.3283  0.1164
   11RES   C153 4373   2.625   4.695   1.588 -0.5324  0.7119  0.1108
   11RES   C154 4374   2.497   4.622   1.635  0.1466  0.1772 -0.4238
   11RES   C155 4375   2.521   4.537   1.758  0.5062 -0.1157  0.6642
   11RES   H156 4376   2.622   5.054   1.828 -0.5700 -0.7320 -1.0788
   11RES   H157 4377   2.463   5.070   1.841  1.3961 -2.4542  0.9389
   11RES   H158 4378   2.439   5.118   1.593  1.6197  3.6796  0.8494
   11RES   H159 4379   2.427   4.908   1.637  1.1295 -2.1552 -0.8994
   11RES   H160 4380   2.507   4.923   1.495 -0.1000 -0.8216 -0.1021
   11RES   H161 4381   2.646   4.834   1.760  0.4723 -1.9626  0.0649
   11RES   H162 4382   2.728   4.886   1.614  0.4306 -0.2191  0.7897
   11RES   H163 4383   2.707   4.635   1.626 -1.3535 -0.3707  0.2205
   11RES   H164 4384   2.632   4.697   1.479  0.6697  0.5210  0.1795
   11RES   H165 4385   2.461   4.555   1.557  1.7691 -1.2309  0.0168
   11RES   H166 4386   2.425   4.698   1.664  0.2795 -0.6529  2.1658
   11RES   H167 4387   2.594   4.461   1.730  0.4552  0.5684 -1.3714
   11RES   H168 4388   2.426   4.495   1.795 -0.0994  0.9010  0.2664
   11RES   H169 4389   2.561   4.598   1.839 -0.1922 -0.8161  1.5634
   11RES   C170 4390   2.651   5.150   1.549 -0.6724  0.2732  0.3895
   11RES   C171 4391   2.621   5.291   1.479 -0.1769  0.0613  1.1216
   11RES   C172 4392   2.746   5.382   1.453 -0.6099 -0.4362 -0.3099
   11RES   C173 4393   2.873   5.309   1.403  0.9745  0.7308 -0.4115
   11RES   C174 4394   2.968   5.405   1.336  0.3192  0.3010  0.0755
   11RES   C175 4395   2.924   5.453   1.198  1.0089 -0.1956  0.2195
   11RES   C176 4396   3.004   5.581   1.152 -0.1857  0.7692  0.0631
   11RES   H177 4397   2.675   5.078   1.470  0.6098 -0.8708  1.7996
   11RES   H178 4398   2.739   5.148   1.614  1.6108 -1.8578 -2.6061
   11RES   H179 4399   2.561   5.344   1.553  0.6786  1.9037  0.5302
   11RES   H180 4400   2.780   5.430   1.545 -3.4279  0.4951  0.2781
   11RES   H181 4401   2.713   5.465   1.390 -2.1513 -0.7520  0.0844
   11RES   H182 4402   2.831   5.248   1.323  0.6335  0.7008 -0.2160
   11RES   H183 4403   2.918   5.248   1.482  1.5433  1.1320 -0.4243
   11RES   H184 4404   3.059   5.350   1.312  1.0157  0.5892  1.9455
   11RES   H185 4405   2.998   5.490   1.397  3.6654 -0.3174 -0.6400
   11RES   H186 4406   2.818   5.480   1.196  1.0724  0.0393 -0.4972
   11RES   H187 4407   2.927   5.365   1.133 -1.9621  1.8682 -2.8754
   11RES   H188 4408   2.998   5.656   1.231 -1.0649  0.0134  0.7241
   11RES   H189 4409   2.980   5.621   1.054 -1.5940 -0.2487 -0.0294
   11RES   H190 4410   3.104   5.538   1.152 -0.8169 -0.7604  0.6859
   11RES   C191 4411   2.537   5.270   1.349 -1.1209 -0.0447 -0.4133
   11RES   C192 4412   2.381   5.264   1.345 -0.3782  0.4009  0.0121
   11RES   C193 4413   2.315   5.396   1.359  0.3561  0.6909 -0.0695
   11RES   C194 4414   2.329   5.488   1.236 -0.0772 -0.7320  0.0340
   11RES   C195 4415   2.300   5.634   1.284 -0.0137 -0.2398 -0.3933
   11RES   C196 4416   2.256   5.727   1.165 -0.5191 -0.0220  0.9630
   11RES   C197 4417   2.237   5.879   1.189 -0.2120  0.0348 -0.1523
   11RES   H198 4418   2.578   5.181   1.301 -1.7026 -0.8594  0.5990
   11RES   H199 4419   2.568   5.347   1.279  0.8788 -0.9018 -0.4972
   11RES   H200 4420   2.342   5.208   1.430 -2.2840  2.1143  0.3348
   11RES   H201 4421   2.359   5.453   1.441  0.1127 -0.6912  1.0546
   11RES   H202 4422   2.210   5.387   1.388 -0.4776  0.3227 -3.0383
   11RES   H203 4423   2.258   5.454   1.161  1.2668 -1.4738 -0.9390
   11RES   H204 4424   2.420   5.462   1.182  0.3243  0.5211  0.0885
   11RES   H205 4425   2.215   5.630   1.353  1.1446  0.1887  1.0855
   11RES   H206 4426   2.386   5.677   1.336 -1.2294  2.5160 -0.5523
   11RES   H207 4427   2.166   5.679   1.126  1.0975 -2.5444  0.2113
   11RES   H208 4428   2.328   5.713   1.084 -1.6482 -1.9667  0.2616
   11RES   H209 4429   2.164   5.882   1.270 -1.7896  1.5605 -1.5972
   11RES   H210 4430   2.182   5.910   1.100 -1.4992  0.7583  0.8805
   11RES   H211 4431   2.330   5.932   1.212  0.2020 -1.0351  0.7002
   11RES   C212 4432   2.330   5.205   1.218 -0.3762  0.8023  0.0787
   11RES   C213 4433   2.342   5.046   1.223 -0.4917  0.2318 -0.6237
   11RES   C214 4434   2.240   4.984   1.311  0.8292  0.0075 -0.1369
   11RES   C215 4435   2.257   4.832   1.347 -0.8118 -0.1172 -0.2875
   11RES   C216 4436   2.168   4.791   1.459 -0.1951 -0.1536  0.1490
   11RES   C217 4437   2.174   4.640   1.473 -0.3511  0.0570 -0.1962
   11RES   C218 4438   2.120   4.572   1.604  0.0091 -0.1032 -0.1669
   11RES   H219 4439   2.376   5.249   1.129 -1.9418  0.2408 -1.0105
   11RES   H220 4440   2.226   5.233   1.202 -0.9829 -0.2610  2.0425
   11RES   H221 4441   2.437   5.036   1.276 -0.0898  0.3863 -1.3107
   11RES   H222 4442   2.226   5.040   1.404  1.1157 -1.9842  1.1340
   11RES   H223 4443   2.144   4.996   1.260  0.3876  2.0038  1.1135
   11RES   H224 4444   2.365   4.830   1.367 -1.2914  0.1402  2.4866
   11RES   H225 4445   2.242   4.761   1.265 -0.0572 -0.7663  0.1222
   11RES   H226 4446   2.194   4.834   1.555  1.7141  0.1258 -0.4865
   11RES   H227 4447   2.069   4.826   1.430 -0.0895 -0.5116 -0.6893
   11RES   H228 4448   2.113   4.603   1.390 -0.6078 -0.8075  0.3725
   11RES   H229 4449   2.269   4.598   1.440 -1.1922 -2.0803  0.0259
   11RES   H230 4450   2.108   4.464   1.596 -0.6366 -0.0737  0.2884
   11RES   H231 4451   2.023   4.611   1.636  0.1491  0.6781 -0.7098
   11RES   H232 4452   2.185   4.602   1.686 -0.5506 -2.3634  1.1802
   11RES   C233 4453   2.354   4.969   1.094 -0.3610  0.0401  0.2090
   11RES   C234 4454   2.462   5.007   0.991 -0.3121  0.2700  0.1836
   11RES   C235 4455   2.609   4.991   1.036 -0.1195 -0.5420  0.0154
   11RES   C236 4456   2.714   5.081   0.956  0.0404  0.6695 -0.5371
   11RES   C237 4457   2.850   5.060   1.014 -0.5971  0.3856 -0.0568
   11RES   C238 4458   2.963   5.131   0.933  0.0154  0.2457 -0.7932
   11RES   C239 4459   3.088   5.125   1.018 -0.3945 -0.5534 -0.2724
   11RES   H240 4460   2.254   4.980   1.052  0.1477  1.5870 -0.6521
   11RES   H241 4461   2.375   4.865   1.118 -1.4647 -0.1521  0.3671
   11RES   H242 4462   2.444   5.114   0.981 -1.5875 -0.0093 -0.5281
   11RES   H243 4463   2.632   4.884   1.033  2.9055  0.0907 -2.1813
   11RES   H244 4464   2.610   5.014   1.143  1.5127 -1.6525  0.2580
   11RES   H245 4465   2.691   5.187   0.967  0.5797  0.8246 -0.9355
   11RES   H246 4466   2.713   5.060   0.849  1.9347 -1.4798 -0.1797
   11RES   H247 4467   2.873   4.955   1.030  0.4143  0.5515 -0.4041
   11RES   H248 4468   2.853   5.118   1.106  2.3287  0.8052 -0.3680
   11RES   H249 4469   2.973   5.079   0.838  1.4919  1.5191 -1.3534
   11RES   H250 4470   2.930   5.234   0.916 -2.0653 -0.0876  0.9732
   11RES   H251 4471   3.175   5.151   0.959 -2.2318 -2.7223 -4.1358
   11RES   H252 4472   3.079   5.192   1.104  1.8048 -0.8732  0.2243
   11RES   H253 4473   3.103   5.026   1.062  0.5765 -0.1139  0.4148
   11RES   C254 4474   2.434   4.944   0.858  0.1802  0.1940  0.3383
   11RES   C255 4475   2.416   5.041   0.737 -0.4999  0.0919 -0.0822
   11RES   C256 4476   2.266   5.090   0.721 -0.5657  0.3130 -0.2011
   11RES   C257 4477   2.228   5.196   0.825 -0.3333 -0.1795  0.2020
   11RES   C258 4478   2.107   5.282   0.797  0.4447 -0.5842  0.3218
   11RES   C259 4479   2.044   5.331   0.925 -0.0036 -0.4212  0.0092
   11RES   C260 4480   1.940   5.449   0.917 -0.6944  0.1301  0.1408
   11RES   H261 4481   2.341   4.888   0.868 -1.0959  1.8354 -1.6919
   11RES   H262 4482   2.511   4.869   0.844 -0.5407 -0.8481  1.8230
   11RES   H263 4483   2.470   5.133   0.759 -1.9401  0.3940  2.4114
   11RES   H264 4484   2.196   5.007   0.735 -0.3150  0.6035  3.1152
   11RES   H265 4485   2.260   5.132   0.621 -1.6599 -0.7360 -0.5877
   11RES   H266 4486   2.216   5.142   0.919  0.9422 -0.1034  0.4197
   11RES   H267 4487   2.321   5.254   0.830  0.6466 -1.8722  2.8098
   11RES   H268 4488   2.035   5.225   0.738 -1.0541 -1.3619  2.8141
   11RES   H269 4489   2.137   5.366   0.733 -1.9933  0.9934  1.1413
   11RES   H270 4490   2.015   5.240   0.978  1.1658 -1.7264 -1.5275
   11RES   H271 4491   2.132   5.376   0.970  0.0957  1.2808 -1.7775
   11RES   H272 4492   1.847   5.410   0.874 -0.2088 -0.8137 -0.0534
   11RES   H273 4493   1.914   5.479   1.018 -1.6713  0.4602 -0.1989
   11RES   H274 4494   1.967   5.542   0.867 -2.3900 -0.0874 -1.2451
   11RES   C275 4495   2.448   4.976   0.600  0.0640 -0.4630  0.4189
   11RES   C276 4496   2.590   4.918   0.575 -0.0635  0.0224 -0.1742
   11RES   C277 4497   2.690   5.035   0.557 -1.1436  0.0523  0.0342
   11RES   C278 4498   2.838   5.000   0.559  0.0190 -0.1662 -0.2196
   11RES   C279 4499   2.920   5.131   0.525  0.1196 -0.0314  0.1369
   11RES   C280 4500   3.068   5.100   0.508  0.5704  0.0139 -0.0573
   11RES   C281 4501   3.159   5.213   0.473  0.1323 -0.9902  0.2212
   11RES   H282 4502   2.431   5.044   0.518 -1.8046 -0.7147  0.5720
   11RES   H283 4503   2.374   4.895   0.596 -0.0335 -0.3703  0.3640
   11RES   H284 4504   2.623   4.863   0.664  1.6739 -0.9888 -1.4240
   11RES   H285 4505   2.668   5.086   0.463  0.9876  2.3705  0.7269
   11RES   H286 4506   2.670   5.116   0.628  0.9221 -1.4843  2.4295
   11RES   H287 4507   2.865   4.933   0.478  2.5516 -0.4087  0.7642
   11RES   H288 4508   2.866   4.961   0.657  3.1210  1.2384 -0.4689
   11RES   H289 4509   2.901   5.201   0.607 -0.6972 -1.1831  0.9461
   11RES   H290 4510   2.899   5.173   0.427  1.6890 -1.4011 -0.8146
   11RES   H291 4511   3.116   5.059   0.597 -1.2259  1.3295  1.5372
   11RES   H292 4512   3.077   5.030   0.425 -1.3056 -1.3645  0.8873
   11RES   H293 4513   3.122   5.256   0.380 -0.2119 -1.2781  0.2255
   11RES   H294 4514   3.261   5.185   0.448  0.4244 -0.3289  0.6796
   11RES   H295 4515   3.165   5.286   0.553  0.7500  2.2865 -2.6713
   11RES   C296 4516   2.582   4.828   0.451 -0.2753  0.0084 -0.5792
   11RES   C297 4517   2.668   4.693   0.452  0.0236 -0.4164  0.0096
   11RES   C298 4518   2.649   4.625   0.315 -0.5713 -0.6312 -0.3263
   11RES   C299 4519   2.682   4.711   0.190 -0.2485 -0.0319 -0.6149
   11RES   C300 4520   2.700   4.624   0.065 -0.3466 -0.0609  0.9964
   11RES   C301 4521   2.744   4.716   7.676  0.3009 -0.3073  0.1417
   11RES   C302 4522   2.775   4.627   7.556 -0.5476 -0.1516  0.3646
   11RES   H303 4523   2.477   4.810   0.425 -0.4939  0.2995  0.0754
   11RES   H304 4524   2.619   4.893   0.371 -1.5023 -1.3801 -2.3152
   11RES   H305 4525   2.772   4.715   0.476  0.4044 -2.2319  0.0563
   11RES   H306 4526   2.683   4.522   0.308  1.2861 -0.0257 -0.7332
   11RES   H307 4527   2.545   4.596   0.307 -0.3540 -2.9241  3.8950
   11RES   H308 4528   2.780   4.757   0.203 -0.4191  0.1899 -0.0989
   11RES   H309 4529   2.601   4.783   0.183 -0.3936 -0.0687  0.5555
   11RES   H310 4530   2.611   4.566   0.042 -0.3524  1.1218 -2.2871
   11RES   H311 4531   2.780   4.553   0.088  2.0515  1.4431 -2.1828
   11RES   H312 4532   2.665   4.787   7.650 -1.3153 -2.3559 -0.5829
   11RES   H313 4533   2.838   4.770   7.694  0.9827 -1.0589 -1.1070
   11RES   H314 4534   2.698   4.550   7.546  0.5806 -1.1532 -0.7356
   11RES   H315 4535   2.787   4.687   7.466 -0.6891 -1.3010 -0.4289
   11RES   H316 4536   2.861   4.564   7.578 -0.4779  0.4219  1.8161
   11RES   C317 4537   2.610   4.606   0.565  0.1933  0.4126  0.3343
   11RES   C318 4538   2.710   4.561   0.670 -0.4630 -0.1758  0.4027
   11RES   C319 4539   2.628   4.472   0.775  0.1251 -0.1771  0.1804
   11RES   C320 4540   2.525   4.548   0.871  0.5706 -0.0171  0.4116
   11RES   C321 4541   2.431   4.459   0.958  0.3672 -0.2287  0.1693
   11RES   C322 4542   2.361   4.541   1.070 -1.2059 -0.0748 -0.4642
   11RES   C323 4543   2.465   4.573   1.181 -0.0123 -0.2141 -0.0750
   11RES   H324 4544   2.564   4.518   0.520  2.0201 -1.1845  1.5099
   11RES   H325 4545   2.521   4.647   0.612 -1.3881 -2.7366  0.2346
   11RES   H326 4546   2.753   4.652   0.713  0.8723 -0.3877 -0.4409
   11RES   H327 4547   2.697   4.418   0.840 -1.4400 -1.3908  0.8729
   11RES   H328 4548   2.578   4.386   0.731 -1.3365  1.1583 -0.7966
   11RES   H329 4549   2.460   4.610   0.810  2.0528  0.7167 -0.4605
   11RES   H330 4550   2.588   4.607   0.938 -1.0477  0.8222  1.2339
   11RES   H331 4551   2.484   4.378   1.009 -0.7736 -1.2312 -0.2181
   11RES   H332 4552   2.356   4.418   0.891 -0.5128  1.0363  0.3760
   11RES   H333 4553   2.284   4.485   1.122  0.3561 -1.0271  0.8659
   11RES   H334 4554   2.319   4.634   1.032  0.7418  0.7767 -0.5864
   11RES   H335 4555   2.525   4.660   1.155 -1.1286  0.3070 -0.9908
   11RES   H336 4556   2.533   4.498   1.220  2.4161  0.6364 -2.5162
   11RES   H337 4557   2.418   4.620   1.268 -2.0840  1.0736 -1.8370
   11RES   C338 4558   2.830   4.471   0.617 -0.6699  0.0075 -0.1978
   11RES   C339 4559   2.939   4.423   0.717 -0.2545  0.1644 -0.2178
   11RES   C340 4560   3.018   4.545   0.765  0.2174  0.2428  0.4297
   11RES   C341 4561   3.122   4.606   0.663  0.4776  0.1653  0.2633
   11RES   C342 4562   3.184   4.746   0.702  0.0055  0.2654 -0.6049
   11RES   C343 4563   3.260   4.730   0.831 -0.1731 -0.4726 -0.0459
   11RES   C344 4564   3.385   4.645   0.810 -0.3358  0.3323  0.1454
   11RES   H345 4565   2.866   4.525   0.529  0.0152 -2.4910 -1.4958
   11RES   H346 4566   2.783   4.379   0.582  0.5324 -0.6998  0.0328
   11RES   H347 4567   2.882   4.380   0.799 -2.7824 -1.1285 -2.5769
   11RES   H348 4568   2.948   4.625   0.789  1.0652  0.7565  1.2826
   11RES   H349 4569   3.071   4.516   0.856 -1.0171 -1.1032  0.7166
   11RES   H350 4570   3.069   4.620   0.568 -0.8899 -0.8063  0.8725
   11RES   H351 4571   3.204   4.538   0.643 -0.3977 -1.0274  0.7028
   11RES   H352 4572   3.244   4.783   0.619 -2.0568  3.3617 -0.8227
   11RES   H353 4573   3.105   4.820   0.714 -1.1094 -1.1014  0.6652
   11RES   H354 4574   3.290   4.824   0.876  0.1650 -1.8521  2.7442
   11RES   H355 4575   3.191   4.686   0.903 -1.5208 -2.6110 -2.5836
   11RES   H356 4576   3.451   4.701   0.744 -0.5937 -0.6324 -0.9544
   11RES   H357 4577   3.368   4.547   0.765 -1.7487  0.7318 -0.2061
   11RES   H358 4578   3.436   4.630   0.906 -0.0420  0.9651  0.0845
   11RES   C359 4579   3.025   4.311   0.656 -0.4046  0.4112 -0.0989
   11RES   C360 4580   3.120   4.227   0.747  0.1094  0.8422 -0.0704
   11RES   C361 4581   3.246   4.295   0.790 -0.2026  0.4775 -0.0112
   11RES   C362 4582   3.370   4.204   0.822  0.0398  0.5758 -0.4860
   11RES   C363 4583   3.491   4.272   0.877  0.2177  0.5059  0.7557
   11RES   C364 4584   3.579   4.177   0.962  0.5017 -0.3323  0.2274
   11RES   C365 4585   3.675   4.266   1.048  0.5173 -0.7437 -0.4781
   11RES   H366 4586   3.076   4.348   0.568 -0.7608 -2.5726 -1.6242
   11RES   H367 4587   2.968   4.229   0.612  1.5150 -1.8477  1.4860
   11RES   H368 4588   3.164   4.160   0.672  0.3031  0.1438  0.6566
   11RES   H369 4589   3.288   4.352   0.708  2.9996  0.4247  1.5233
   11RES   H370 4590   3.226   4.364   0.872  0.7301  2.2103 -1.2027
   11RES   H371 4591   3.346   4.121   0.888  0.2708  0.8550 -0.0432
   11RES   H372 4592   3.385   4.152   0.727 -0.3635  1.3874 -0.9986
   11RES   H373 4593   3.553   4.315   0.799  1.3450 -1.2995  0.6388
   11RES   H374 4594   3.466   4.354   0.945  1.5233  0.1896  1.6266
   11RES   H375 4595   3.522   4.109   1.025  0.1858 -0.1945  0.0955
   11RES   H376 4596   3.645   4.106   0.912  2.9715  2.0927 -0.0740
   11RES   H377 4597   3.720   4.351   0.996 -1.1579  1.2257  1.2056
   11RES   H378 4598   3.617   4.297   1.134 -3.3029 -1.1458 -2.7754
   11RES   H379 4599   3.763   4.209   1.078 -0.8129 -1.9215  1.2358
   11RES   C380 4600   3.039   4.141   0.842 -1.0085  0.1131 -0.7733
   11RES   C381 4601   2.969   4.016   0.770 -0.5126  0.9652  0.5431
   11RES   C382 4602   3.066   3.898   0.729  0.5139  0.1127  0.3359
   11RES   C383 4603   3.020   3.809   0.616 -0.2829 -1.0031 -0.2040
   11RES   C384 4604   3.117   3.696   0.595 -0.1417 -0.0338  0.3520
   11RES   C385 4605   3.078   3.616   0.466 -0.7104  0.5671  1.1539
   11RES   C386 4606   3.205   3.544   0.413  0.0296  0.5325 -0.1700
   11RES   H387 4607   3.100   4.109   0.927 -1.4213  2.5474  0.4657
   11RES   H388 4608   2.973   4.213   0.890  0.9955 -0.3724  2.9086
   11RES   H389 4609   2.926   4.040   0.673 -0.4309  3.3605  1.0681
   11RES   H390 4610   3.087   3.832   0.813 -1.3012 -0.2691  0.4910
   11RES   H391 4611   3.166   3.929   0.698 -0.0312 -0.9756 -2.6632
   11RES   H392 4612   2.922   3.765   0.637 -0.7086 -0.2281 -0.5828
   11RES   H393 4613   3.012   3.865   0.523  1.0143  0.2100  0.4078
   11RES   H394 4614   3.219   3.732   0.583 -0.0710  0.4646  2.2796
   11RES   H395 4615   3.105   3.626   0.678 -2.4057  0.9102  0.8396
   11RES   H396 4616   3.037   3.684   0.391 -0.5518  1.1371  1.5797
   11RES   H397 4617   2.996   3.546   0.479 -0.2069 -0.7991 -2.2243
   11RES   H398 4618   3.287   3.613   0.391 -1.5975  1.9755 -1.8744
   11RES   H399 4619   3.183   3.506   0.313 -1.2390  4.2505 -1.3558
   11RES   H400 4620   3.240   3.458   0.470 -0.6475  1.1724  1.2138
   11RES   C401 4621   2.864   3.956   0.865  0.0772 -0.2472 -0.2997
   11RES   C402 4622   2.732   4.020   0.838  0.5111  0.6151  0.0958
   11RES   C403 4623   2.644   3.985   0.956  0.1235  0.1549 -0.2363
   11RES   C404 4624   2.500   4.046   0.942 -0.7701  0.2846  0.2681
   11RES   C405 4625   2.397   4.002   1.049 -0.1006 -0.0104  0.3776
   11RES   C406 4626   2.285   4.105   1.070  0.6573  0.6072  0.0044
   11RES   C407 4627   2.176   4.049   1.172 -0.6355  0.7301  0.9222
   11RES   H408 4628   2.900   3.974   0.967 -2.3912 -0.2114  0.5920
   11RES   H409 4629   2.860   3.848   0.856 -1.5959 -0.1876 -0.4422
   11RES   H410 4630   2.699   3.993   0.738 -1.0960  0.8680  0.5354
   11RES   H411 4631   2.679   4.031   1.048  1.6895 -0.1878 -0.6437
   11RES   H412 4632   2.641   3.877   0.972  0.4137  0.3091  0.8594
   11RES   H413 4633   2.455   4.018   0.847  0.9265 -2.0868  0.1245
   11RES   H414 4634   2.515   4.153   0.930 -0.3530  0.3674  1.4903
   11RES   H415 4635   2.356   3.903   1.034  0.3023 -0.2406  0.7663
   11RES   H416 4636   2.444   3.996   1.147 -0.0405  2.1006  0.5052
   11RES   H417 4637   2.322   4.202   1.104 -1.3267  0.5543  2.5206
   11RES   H418 4638   2.231   4.121   0.977 -2.1042  1.5917  1.7087
   11RES   H419 4639   2.106   4.125   1.207  1.5020  2.5297  1.4641
   11RES   H420 4640   2.215   4.000   1.261  1.2680  0.4437 -0.0309
   11RES   H421 4641   2.122   3.969   1.123  0.4990  0.4222  0.1490
   11RES   H422 4642   2.747   4.128   0.844  0.8179  0.6245 -0.7955
   12RES     C1 4643   6.118   0.565   1.574 -1.0871  0.0948 -0.2420
   12RES     C2 4644   6.245   0.574   1.485  0.3288 -0.5129 -0.3127
   12RES     C3 4645   6.240   0.469   1.370 -0.0504  0.6200  0.2660
   12RES     C4 4646   6.114   0.488   1.279  0.8419  0.2003 -0.1983
   12RES     C5 4647   6.103   0.396   1.163  0.0110 -0.5331 -0.0863
   12RES     C6 4648   5.976   0.426   1.078  0.5230  0.0003  0.0590
   12RES     C7 4649   5.956   0.318   0.965  0.0509 -0.2364  0.1965
   12RES     H8 4650   6.032   0.609   1.523 -0.5301  0.9647 -0.4368
   12RES     H9 4651   6.129   0.618   1.669 -1.0691  1.9456 -1.2609
   12RES    H10 4652   6.240   0.677   1.449  0.1889  0.0757  1.3230
   12RES    H11 4653   6.328   0.467   1.306  1.2672  0.0222  2.0388
   12RES    H12 4654   6.238   0.371   1.418 -0.6991  0.2343 -0.5337
   12RES    H13 4655   6.025   0.476   1.340  1.2411  0.7300  0.4926
   12RES    H14 4656   6.102   0.593   1.254 -1.3015  0.3060  1.1526
   12RES    H15 4657   6.098   0.288   1.181 -0.9430 -0.2251  1.5738
   12RES    H16 4658   6.181   0.407   1.088 -0.2024 -2.8261 -0.7080
   12RES    H17 4659   5.974   0.529   1.041  0.3441  0.1073  0.3596
   12RES    H18 4660   5.895   0.444   1.149  1.4996 -0.3069  1.2655
   12RES    H19 4661   6.048   0.308   0.909  1.2217 -1.2389  2.2447
   12RES    H20 4662   5.883   0.353   0.892  0.4843 -0.8085 -0.5159
   12RES    H21 4663   5.929   0.221   1.008 -0.7185 -0.4441 -0.7559
   12RES    H22 4664   6.092   0.462   1.598  0.7949 -0.4218 -0.3706
   12RES    C23 4665   6.366   0.548   1.577 -0.6279  0.1134 -0.0111
   12RES    C24 4666   6.509   0.538   1.511  0.8435  0.5325  0.1708
   12RES    C25 4667   6.606   0.480   1.619  0.1303  0.3515  0.0157
   12RES    C26 4668   6.589   0.334   1.655  0.0962 -0.1370  0.2443
   12RES    C27 4669   6.668   0.242   1.569  0.0268 -0.6758 -0.1209
   12RES    C28 4670   6.679   0.098   1.636  0.0093 -0.9302 -0.8646
   12RES    C29 4671   6.536   0.049   1.653 -0.1637 -0.3147 -0.4089
   12RES    H30 4672   6.371   0.603   1.671 -1.1758  0.6831 -0.3175
   12RES    H31 4673   6.343   0.457   1.632 -0.7622  0.7836  1.0584
   12RES    H32 4674   6.503   0.457   1.438 -0.5333  0.4495  0.3749
   12RES    H33 4675   6.603   0.532   1.715  1.6247  0.3829  0.0539
   12RES    H34 4676   6.713   0.495   1.607  0.4083 -1.9714 -0.6121
   12RES    H35 4677   6.483   0.312   1.645 -0.1788  1.4910 -0.7923
   12RES    H36 4678   6.603   0.327   1.763  1.2632 -0.4711  0.0741
   12RES    H37 4679   6.763   0.286   1.542 -1.2398  0.9204 -2.0691
   12RES    H38 4680   6.636   0.242   1.465 -0.5212 -0.4440  0.0424
   12RES    H39 4681   6.730   0.103   1.732 -2.9861 -0.6894  0.7827
   12RES    H40 4682   6.712   0.028   1.560 -1.1418  1.0876 -3.3036
   12RES    H41 4683   6.468   0.076   1.572  0.5450  0.1440 -0.8532
   12RES    H42 4684   6.517   7.669   1.655 -0.5843 -0.2457 -0.7687
   12RES    H43 4685   6.495   0.073   1.751  0.5601 -1.3302  0.1513
   12RES    C44 4686   6.552   0.666   1.446  0.0951 -0.1299 -0.0012
   12RES    C45 4687   6.678   0.651   1.352 -0.0419 -0.1408 -0.6055
   12RES    C46 4688   6.646   0.605   1.212  0.6253 -0.1555  0.1056
   12RES    C47 4689   6.766   0.536   1.135  0.7404  0.1797 -0.3597
   12RES    C48 4690   6.712   0.478   0.999 -0.1624 -0.0934 -0.4542
   12RES    C49 4691   6.806   0.405   0.904  0.2493  0.7138 -0.5583
   12RES    C50 4692   6.855   0.265   0.954  0.2174  0.2347 -0.7737
   12RES    H51 4693   6.584   0.739   1.521  2.2424 -0.4466 -0.5706
   12RES    H52 4694   6.475   0.719   1.390  0.7015  1.1885  0.3884
   12RES    H53 4695   6.753   0.579   1.386  1.1424  0.9610 -0.8042
   12RES    H54 4696   6.612   0.681   1.141  2.7059 -0.4476 -1.2415
   12RES    H55 4697   6.556   0.544   1.226  0.4804 -0.7810 -3.1192
   12RES    H56 4698   6.852   0.602   1.123  1.0687 -0.0640  0.5990
   12RES    H57 4699   6.800   0.450   1.193 -0.9571 -0.4569 -0.2767
   12RES    H58 4700   6.656   0.556   0.948 -0.4335  0.1514  0.2139
   12RES    H59 4701   6.644   0.398   1.029  0.0317 -0.2212 -0.3600
   12RES    H60 4702   6.894   0.467   0.891  1.3122 -0.4522  0.9264
   12RES    H61 4703   6.766   0.410   0.803  0.0471 -1.0271 -0.5771
   12RES    H62 4704   6.914   0.260   1.045  0.8641 -3.0437 -1.2804
   12RES    H63 4705   6.926   0.225   0.881  0.9217  0.0795 -0.0106
   12RES    H64 4706   6.774   0.193   0.964 -1.0598  1.2573 -3.2490
   12RES    C65 4707   6.753   0.789   1.344 -0.0736  0.2056 -0.3358
   12RES    C66 4708   6.850   0.824   1.461 -0.0552 -0.3691 -0.6113
   12RES    C67 4709   6.888   0.974   1.442 -0.2057  0.3174 -0.1502
   12RES    C68 4710   6.808   1.059   1.541 -0.1304  0.3481  0.4481
   12RES    C69 4711   6.850   1.209   1.547 -0.4847 -0.1988 -0.8665
   12RES    C70 4712   6.987   1.243   1.610  0.0212 -0.3002  0.2318
   12RES    C71 4713   7.029   1.391   1.628 -0.3710 -0.0559  0.1148
   12RES    H72 4714   6.812   0.787   1.252  1.9758  1.2975  0.9335
   12RES    H73 4715   6.683   0.870   1.328 -0.7497 -0.3215 -0.0618
   12RES    H74 4716   6.802   0.805   1.556 -0.7221  0.0439 -0.8663
   12RES    H75 4717   6.995   0.975   1.464 -0.0886  0.8311 -0.7324
   12RES    H76 4718   6.889   1.000   1.336 -1.4495  0.8187 -0.0438
   12RES    H77 4719   6.701   1.040   1.531  0.3977 -2.1293 -0.9664
   12RES    H78 4720   6.829   1.014   1.638  0.8221 -3.2339 -1.3321
   12RES    H79 4721   6.847   1.250   1.446  1.5841  2.8754  0.2473
   12RES    H80 4722   6.770   1.256   1.603  0.3374  1.0929 -0.7664
   12RES    H81 4723   7.067   1.201   1.549  1.5400  1.2017  1.1601
   12RES    H82 4724   7.004   1.183   1.699  1.5684  0.6978  0.6096
   12RES    H83 4725   6.996   1.421   1.728  0.2753 -1.1108  0.6533
   12RES    H84 4726   7.137   1.399   1.627 -0.4090  0.3847 -1.3010
   12RES    H85 4727   6.979   1.452   1.553 -0.2708  0.6947  0.6595
   12RES    C86 4728   6.984   0.742   1.466  0.1235 -0.0481  0.3664
   12RES    C87 4729   7.057   0.743   1.599 -0.1332 -0.3628 -0.3374
   12RES    C88 4730   6.971   0.661   1.705  0.0510  0.0455 -0.5286
   12RES    C89 4731   6.976   0.713   1.849 -0.4164  0.4011  0.0764
   12RES    C90 4732   6.885   0.832   1.888 -0.6456  0.3245 -0.2502
   12RES    C91 4733   6.897   0.875   2.037 -0.3131 -0.5763  0.4442
   12RES    C92 4734   6.784   0.828   2.127  0.1090  0.0950  0.4403
   12RES    H93 4735   6.962   0.640   1.432  0.2760 -0.7766  2.3949
   12RES    H94 4736   7.041   0.782   1.383  0.4036  0.5432  0.8448
   12RES    H95 4737   7.071   0.845   1.634 -1.9596 -0.0284 -0.5613
   12RES    H96 4738   6.865   0.654   1.681  0.5542 -0.5056 -2.6712
   12RES    H97 4739   7.005   0.558   1.710 -1.2643 -0.3499  0.7818
   12RES    H98 4740   6.967   0.635   1.924  1.3831 -0.3715 -0.4943
   12RES    H99 4741   7.082   0.732   1.866  0.1573 -1.2381 -1.4437
   12RES   H100 4742   6.783   0.805   1.865 -1.1979  2.5089 -0.5112
   12RES   H101 4743   6.919   0.917   1.829  0.4382  0.2157  0.2067
   12RES   H102 4744   6.983   0.828   2.084 -1.2812 -0.7986  2.0216
   12RES   H103 4745   6.910   0.983   2.040 -3.2061 -0.1234 -1.4122
   12RES   H104 4746   6.808   0.838   2.233 -0.6080  2.3484  0.4077
   12RES   H105 4747   6.749   0.726   2.108 -3.9683  1.2693  1.1189
   12RES   H106 4748   6.701   0.895   2.106  0.8590  0.7661 -0.4471
   12RES   C107 4749   7.193   0.679   1.585  0.3563  0.7741  0.3296
   12RES   C108 4750   7.302   0.740   1.494 -0.7830  0.0298  0.7284
   12RES   C109 4751   7.337   0.885   1.527  0.0539 -0.3500 -0.0738
   12RES   C110 4752   7.402   0.908   1.670 -0.1849  0.2609 -0.4462
   12RES   C111 4753   7.405   1.060   1.700  0.4340 -0.2068 -1.1226
   12RES   C112 4754   7.434   1.109   1.847 -0.1561  0.2351  0.7064
   12RES   C113 4755   7.331   1.064   1.950 -0.8916  0.2150 -0.0854
   12RES   H114 4756   7.181   0.571   1.571 -0.9127  0.6660  2.0052
   12RES   H115 4757   7.234   0.672   1.686 -2.5660 -2.5447  1.4178
   12RES   H116 4758   7.257   0.749   1.395  1.5242  0.6158 -0.3030
   12RES   H117 4759   7.242   0.938   1.524 -0.7491 -1.7542 -0.1329
   12RES   H118 4760   7.391   0.943   1.452  0.8651 -0.2373  0.5858
   12RES   H119 4761   7.340   0.858   1.744  1.7212 -1.3701  0.1054
   12RES   H120 4762   7.501   0.863   1.680  0.6793  2.2175  0.0868
   12RES   H121 4763   7.317   1.111   1.660 -1.0809 -2.0642 -0.2339
   12RES   H122 4764   7.478   1.107   1.634  0.9873  0.2735 -0.1962
   12RES   H123 4765   7.530   1.075   1.884 -0.1697  0.6974  1.1728
   12RES   H124 4766   7.450   1.217   1.845  1.5582 -0.0282 -0.8060
   12RES   H125 4767   7.338   1.093   2.055  0.6175  0.6082 -0.2889
   12RES   H126 4768   7.237   1.108   1.917 -2.5767  0.0226  4.1360
   12RES   H127 4769   7.320   0.955   1.953 -0.6233  0.2118  0.8458
   12RES   C128 4770   7.424   0.650   1.492  0.3626 -0.4138  0.5131
   12RES   C129 4771   7.513   0.673   1.369 -0.5873 -0.0492 -0.5820
   12RES   C130 4772   7.470   0.589   1.248 -0.5690 -0.4518  0.1086
   12RES   C131 4773   7.532   0.623   1.107 -0.4054  0.2705 -0.1767
   12RES   C132 4774   7.481   0.534   0.989 -0.3355  0.1465  0.2155
   12RES   C133 4775   7.581   0.533   0.875  0.6892 -0.6949 -0.4256
   12RES   C134 4776   7.709   0.463   0.927 -0.4528 -1.1013  0.0203
   12RES   H135 4777   7.487   0.662   1.580 -0.7367 -3.1210  1.7572
   12RES   H136 4778   7.397   0.545   1.507 -1.8985 -0.0907 -1.0114
   12RES   H137 4779   7.496   0.776   1.335 -1.8353  0.0942  0.4431
   12RES   H138 4780   7.365   0.615   1.240 -0.2404  0.2229 -2.2940
   12RES   H139 4781   7.472   0.483   1.274  2.7518 -0.3956  0.2540
   12RES   H140 4782   7.641   0.630   1.112 -0.3403 -1.0987  0.6747
   12RES   H141 4783   7.519   0.728   1.081  3.0804  0.8189  0.0524
   12RES   H142 4784   7.385   0.577   0.959 -0.3925  0.8905  1.4534
   12RES   H143 4785   7.470   0.432   1.025  0.5022  0.8066  2.4432
   12RES   H144 4786   7.593   0.638   0.847 -3.1879 -0.0388  0.1633
   12RES   H145 4787   7.535   0.497   0.783 -1.3154  1.1814 -0.1675
   12RES   H146 4788   0.031   0.425   0.837 -0.5467 -0.6059 -0.2366
   12RES   H147 4789   7.693   0.372   0.986 -0.2270 -0.5048  1.0173
   12RES   H148 4790   0.051   0.528   0.982 -1.2137 -0.4747  0.2391
   12RES   C149 4791   7.664   0.649   1.398  0.3627  0.2955  0.2475
   12RES   C150 4792   0.011   0.762   1.483 -0.5643 -0.3351  0.3024
   12RES   C151 4793   0.041   0.890   1.396  0.5482  0.3739  0.2535
   12RES   C152 4794   0.145   0.875   1.287 -0.0540  0.2857  0.7559
   12RES   C153 4795   0.167   1.015   1.231 -0.5013  0.8141  0.6858
   12RES   C154 4796   0.288   1.015   1.133 -0.2623 -0.7027  0.7516
   12RES   C155 4797   0.264   0.935   1.004 -0.3791 -0.4006  0.6851
   12RES   H156 4798   7.670   0.548   1.439 -2.8942  1.1679  3.0674
   12RES   H157 4799   7.714   0.633   1.302  0.0376 -0.5111  0.2101
   12RES   H158 4800   7.672   0.800   1.561 -0.0106 -0.0838  0.6464
   12RES   H159 4801   7.674   0.909   1.344  0.3824 -2.0656 -0.3904
   12RES   H160 4802   0.056   0.978   1.458 -0.5637  1.2405 -0.6779
   12RES   H161 4803   0.106   0.800   1.218 -1.3392  0.0685  1.7016
   12RES   H162 4804   0.242   0.852   1.332 -0.1300  1.1330  1.3626
   12RES   H163 4805   0.182   1.091   1.307  0.7012  2.8507 -1.5338
   12RES   H164 4806   0.075   1.051   1.183 -0.1854 -0.2543 -0.7493
   12RES   H165 4807   0.383   0.989   1.180  0.1959 -0.4708 -0.0373
   12RES   H166 4808   0.306   1.117   1.098 -0.5966 -1.3574 -1.4115
   12RES   H167 4809   0.169   0.959   0.957 -1.0365 -1.4223  1.4594
   12RES   H168 4810   0.278   0.828   1.023 -0.1020 -0.2872  1.1455
   12RES   H169 4811   0.335   0.962   0.926 -2.8324  1.0720 -1.0744
   12RES   C170 4812   0.139   0.707   1.561 -0.0527  0.5791 -0.2778
   12RES   C171 4813   0.105   0.642   1.700  0.0188  0.7114  0.0286
   12RES   C172 4814   0.017   0.716   1.802 -0.0277  0.8037 -0.5967
   12RES   C173 4815   0.083   0.849   1.848  0.2670 -0.4652  0.4254
   12RES   C174 4816   0.209   0.833   1.927 -0.2820  0.6334  0.2574
   12RES   C175 4817   0.248   0.961   2.006 -0.0222 -0.0831 -0.0270
   12RES   C176 4818   0.359   0.942   2.106  0.8485 -0.4864  0.4340
   12RES   H177 4819   0.211   0.788   1.574  0.1911  0.4225 -0.6517
   12RES   H178 4820   0.203   0.641   1.503 -2.0686 -1.2009 -0.5342
   12RES   H179 4821   0.203   0.642   1.748 -0.1185 -0.2001  0.3200
   12RES   H180 4822   7.719   0.660   1.892 -0.3006  0.1587 -1.0678
   12RES   H181 4823   7.648   0.737   1.754 -0.9318  1.4252  1.4601
   12RES   H182 4824   0.001   0.915   1.879 -0.5530 -0.8710 -0.8232
   12RES   H183 4825   0.100   0.900   1.753 -2.9640 -0.1740 -0.0773
   12RES   H184 4826   0.292   0.799   1.865  1.2143  2.0725  1.3954
   12RES   H185 4827   0.197   0.745   1.990 -0.0611 -0.6706 -1.4847
   12RES   H186 4828   0.155   1.001   2.045  0.8495  0.5425  1.4805
   12RES   H187 4829   0.275   1.036   1.931 -1.6238  0.3365 -0.2062
   12RES   H188 4830   0.311   0.899   2.193  0.8010  1.1414  1.2183
   12RES   H189 4831   0.400   1.040   2.131 -1.3478  0.1013  1.9030
   12RES   H190 4832   0.436   0.875   2.068  0.0944 -2.6719  2.6911
   12RES   C191 4833   0.055   0.493   1.688 -0.1076  0.5501  0.2460
   12RES   C192 4834   0.169   0.395   1.641 -0.4017 -0.3975 -0.7261
   12RES   C193 4835   0.217   0.311   1.752  0.3049 -0.5780 -0.1609
   12RES   C194 4836   0.276   0.388   1.866 -0.0089  0.0205 -0.2485
   12RES   C195 4837   0.313   0.291   1.983 -0.5836 -0.4417 -0.0727
   12RES   C196 4838   0.362   0.374   2.105 -0.5100 -0.5446  1.1372
   12RES   C197 4839   0.357   0.293   2.242 -0.2286 -0.3407  0.2847
   12RES   H198 4840   7.692   0.477   1.628  1.3266  0.7869 -2.0168
   12RES   H199 4841   0.017   0.455   1.783  1.7997  1.0692  1.2430
   12RES   H200 4842   0.257   0.452   1.610 -0.0355  0.3607  1.6123
   12RES   H201 4843   0.292   0.237   1.724  0.9098 -0.5602  1.3072
   12RES   H202 4844   0.138   0.253   1.799  0.3256  0.1767  0.8373
   12RES   H203 4845   0.199   0.455   1.906 -1.2876 -0.8519 -1.2314
   12RES   H204 4846   0.360   0.451   1.835 -1.0472  0.7347 -1.6483
   12RES   H205 4847   0.232   0.223   2.008 -0.8249 -0.2772 -0.4110
   12RES   H206 4848   0.399   0.235   1.946 -0.2016  0.4843 -0.6129
   12RES   H207 4849   0.295   0.459   2.117 -1.4294 -1.0016 -0.6296
   12RES   H208 4850   0.462   0.415   2.093 -1.7414  1.6199 -2.3621
   12RES   H209 4851   0.252   0.277   2.266 -0.8905 -0.1278 -2.3599
   12RES   H210 4852   0.415   0.325   2.328 -0.9297 -2.4805  1.6041
   12RES   H211 4853   0.412   0.201   2.220 -0.3138 -0.3366  0.0535
   12RES   C212 4854   0.119   0.309   1.517  0.6188 -0.1777 -0.2260
   12RES   C213 4855   0.231   0.246   1.434 -0.2860  0.3416  0.7423
   12RES   C214 4856   0.196   0.104   1.388 -0.2047 -0.4798 -0.9623
   12RES   C215 4857   0.080   0.107   1.286 -0.6112  0.0017  0.1526
   12RES   C216 4858   0.033   7.694   1.241  0.7906  0.7998  0.2084
   12RES   C217 4859   7.622   7.681   1.171  0.5846  0.0891 -0.3848
   12RES   C218 4860   7.511   0.033   1.235 -0.0764  0.3224 -0.1883
   12RES   H219 4861   0.062   0.378   1.455  2.0159  0.3116 -1.0100
   12RES   H220 4862   0.057   0.229   1.555 -0.0534  1.0471  1.2992
   12RES   H221 4863   0.317   0.232   1.499  0.1168 -3.2196 -0.4852
   12RES   H222 4864   0.280   0.064   1.331  0.7972 -0.1878  0.2833
   12RES   H223 4865   0.186   0.032   1.468  0.7087 -0.9989 -1.3066
   12RES   H224 4866   0.105   0.164   1.197 -1.0349 -0.7330 -0.4487
   12RES   H225 4867   7.717   0.149   1.331 -0.2302  1.1418 -0.1518
   12RES   H226 4868   0.097   7.657   1.161 -0.4470 -1.0807  0.0480
   12RES   H227 4869   0.040   7.619   1.320 -2.7393  1.0379  0.8413
   12RES   H228 4870   7.633   7.704   1.065  0.4286 -3.1872 -1.1648
   12RES   H229 4871   7.603   7.574   1.172 -1.3336  0.4010 -1.1671
   12RES   H230 4872   7.504   0.019   1.343  0.9392 -2.9240 -0.5082
   12RES   H231 4873   7.415   0.008   1.191 -0.2999  0.0875  0.4235
   12RES   H232 4874   7.522   0.141   1.224  0.2768  0.2664 -0.3788
   12RES   C233 4875   0.288   0.336   1.328  0.1335  0.8392  0.2370
   12RES   C234 4876   0.422   0.291   1.250  0.7945 -0.5743  0.1003
   12RES   C235 4877   0.454   0.395   1.140  0.9746 -0.7243  0.9492
   12RES   C236 4878   0.363   0.405   1.018  0.1125 -0.0885  0.3605
   12RES   C237 4879   0.369   0.544   0.955 -0.6622 -0.1978  0.3280
   12RES   C238 4880   0.300   0.573   0.816 -0.5623  0.2265 -0.4087
   12RES   C239 4881   0.352   0.688   0.729 -0.3606 -0.1144 -0.1961
   12RES   H240 4882   0.304   0.426   1.388 -1.6778  1.1828  0.2501
   12RES   H241 4883   0.211   0.366   1.256  1.2897 -0.6629 -1.6594
   12RES   H242 4884   0.393   0.200   1.198 -1.2727 -0.3252  0.7952
   12RES   H243 4885   0.558   0.394   1.109  1.2168 -1.6449  1.7516
   12RES   H244 4886   0.443   0.487   1.197 -0.4439 -1.7639  2.4092
   12RES   H245 4887   0.259   0.386   1.044 -0.5215  0.4790 -1.6179
   12RES   H246 4888   0.380   0.326   0.945  3.1141  0.1543  0.7256
   12RES   H247 4889   0.475   0.568   0.948 -0.8515  1.4650  2.3520
   12RES   H248 4890   0.334   0.618   1.028  0.6317 -0.4211  1.1830
   12RES   H249 4891   0.295   0.481   0.757  1.1035  0.4969 -0.9892
   12RES   H250 4892   0.197   0.591   0.847 -0.0298  0.5585  1.2099
   12RES   H251 4893   0.458   0.671   0.709 -0.8642 -1.0191 -2.2173
   12RES   H252 4894   0.300   0.687   0.634 -0.1107  1.6271 -0.3643
   12RES   H253 4895   0.332   0.786   0.773 -0.6880 -0.2143 -0.1203
   12RES   C254 4896   0.544   0.257   1.341 -0.8485  0.7579  0.5942
   12RES   C255 4897   0.672   0.196   1.273 -1.0416 -0.1355 -0.0424
   12RES   C256 4898   0.639   0.076   1.185 -0.6707 -0.6870  0.6853
   12RES   C257 4899   0.573   7.680   1.249  0.3409 -0.1858  0.3437
   12RES   C258 4900   0.531   7.562   1.159  0.2026  0.2310  0.4248
   12RES   C259 4901   0.401   7.485   1.200  0.4011  0.5376 -0.4413
   12RES   C260 4902   0.398   7.430   1.341  0.5267 -0.6729  0.2227
   12RES   H261 4903   0.514   0.179   1.412  1.9706 -1.3633 -0.4618
   12RES   H262 4904   0.556   0.337   1.414 -2.5281  1.1783  0.4332
   12RES   H263 4905   0.699   0.275   1.203  0.1306 -0.0628  0.4829
   12RES   H264 4906   0.724   0.037   1.130 -0.0969 -0.1881  1.2173
   12RES   H265 4907   0.556   0.110   1.122  1.1718  0.1428 -1.3498
   12RES   H266 4908   0.626   7.634   1.333 -2.1415  0.6792  2.4645
   12RES   H267 4909   0.476   7.705   1.292  0.0426  1.8612 -1.4318
   12RES   H268 4910   0.617   7.495   1.164 -0.3509 -0.5379 -0.1936
   12RES   H269 4911   0.525   7.595   1.055  1.4166 -1.9001 -0.3647
   12RES   H270 4912   0.310   7.541   1.176  0.8454  0.9434 -1.1832
   12RES   H271 4913   0.387   7.396   1.140  1.0058  1.6048 -2.1945
   12RES   H272 4914   0.309   7.369   1.360 -0.0646  0.2216  0.3554
   12RES   H273 4915   0.493   7.382   1.364  0.8572  0.5730  1.5476
   12RES   H274 4916   0.388   7.510   1.414 -0.8176  0.8825 -1.6007
   12RES   C275 4917   0.776   0.149   1.375 -0.4024 -0.1972 -0.0351
   12RES   C276 4918   0.851   0.259   1.457 -0.5593 -0.2952  0.6081
   12RES   C277 4919   0.905   0.378   1.371  0.5177 -0.5984  0.3654
   12RES   C278 4920   1.018   0.348   1.277 -0.0721  0.0175 -0.2662
   12RES   C279 4921   1.069   0.475   1.208  0.2462 -0.2271  0.4150
   12RES   C280 4922   1.181   0.436   1.104  0.9259 -0.0070  0.3811
   12RES   C281 4923   1.267   0.558   1.069 -0.3472  0.4500  0.1974
   12RES   H282 4924   0.848   0.084   1.324  2.9685  2.1880  1.5621
   12RES   H283 4925   0.740   0.076   1.448 -1.8386 -0.2532 -0.7681
   12RES   H284 4926   0.783   0.307   1.528  0.6541  2.0608  0.2145
   12RES   H285 4927   0.825   0.426   1.315  1.8731  0.4150 -0.7552
   12RES   H286 4928   0.933   0.464   1.433  0.4302 -1.6102  1.8234
   12RES   H287 4929   0.986   0.272   1.205  2.0700  0.6696 -1.9597
   12RES   H288 4930   1.100   0.314   1.341 -0.0288  0.3569 -0.1382
   12RES   H289 4931   1.108   0.548   1.278 -0.7421  2.2395 -1.5539
   12RES   H290 4932   0.981   0.518   1.159 -1.0952 -0.9056  2.1788
   12RES   H291 4933   1.249   0.360   1.145  1.9635  0.6255 -0.1456
   12RES   H292 4934   1.129   0.406   1.014  2.0828 -0.3495 -0.1876
   12RES   H293 4935   1.204   0.639   1.034  0.8579  2.4280  2.4481
   12RES   H294 4936   1.328   0.517   0.989  0.6839 -0.5049  1.4486
   12RES   H295 4937   1.330   0.587   1.153  0.3006  0.1482 -0.1846
   12RES   C296 4938   0.970   0.200   1.541 -0.2652 -0.4757  0.6837
   12RES   C297 4939   1.033   0.292   1.654 -0.4007  0.9372  0.1789
   12RES   C298 4940   1.183   0.270   1.678 -0.5850 -0.2115  0.7575
   12RES   C299 4941   1.284   0.349   1.583  0.1457  0.0801  0.0924
   12RES   C300 4942   1.432   0.313   1.613 -0.5778  0.0018 -0.1567
   12RES   C301 4943   1.530   0.394   1.530  0.8301 -0.6143 -0.2212
   12RES   C302 4944   1.531   0.546   1.556 -0.2147 -0.1358 -0.2193
   12RES   H303 4945   0.931   0.106   1.580 -0.2945  0.3353  2.6648
   12RES   H304 4946   1.051   0.157   1.481 -0.0862  1.8402 -0.8040
   12RES   H305 4947   1.022   0.392   1.611 -0.8427 -0.1464 -2.3214
   12RES   H306 4948   1.203   0.324   1.771 -2.0636  0.6744  0.5863
   12RES   H307 4949   1.203   0.163   1.680  3.1442  0.4432  1.4983
   12RES   H308 4950   1.283   0.457   1.598 -0.7547 -0.0636  1.1162
   12RES   H309 4951   1.262   0.324   1.479 -1.0916  1.4064  0.0190
   12RES   H310 4952   1.450   0.210   1.583  2.5298  0.7160 -0.8271
   12RES   H311 4953   1.471   0.321   1.714  1.4328 -0.4424 -0.8823
   12RES   H312 4954   1.637   0.380   1.545  0.8578 -0.2453 -0.0730
   12RES   H313 4955   1.511   0.368   1.426 -2.2004 -2.6224  0.7679
   12RES   H314 4956   1.431   0.587   1.547 -0.7072 -0.8767  1.6723
   12RES   H315 4957   1.555   0.540   1.662  2.2267  0.4577 -0.7070
   12RES   H316 4958   1.603   0.601   1.495  0.8938  0.0877  1.2370
   12RES   C317 4959   0.953   0.268   1.786 -0.2981 -0.2441 -0.2773
   12RES   C318 4960   0.916   0.401   1.865  0.3493  0.1868  0.4940
   12RES   C319 4961   0.839   0.494   1.771  0.1434  0.4975  0.3202
   12RES   C320 4962   0.687   0.487   1.755 -0.0314 -0.2088  0.3153
   12RES   C321 4963   0.625   0.584   1.658  0.3012 -0.1131 -0.0912
   12RES   C322 4964   0.633   0.734   1.695 -0.2398  1.1402  0.0372
   12RES   C323 4965   0.554   0.806   1.588  0.1036 -0.8317  0.1165
   12RES   H324 4966   1.009   0.191   1.839 -2.6874 -2.1346 -0.3896
   12RES   H325 4967   0.860   0.212   1.776 -1.5317  1.1951  2.6411
   12RES   H326 4968   1.008   0.453   1.891  0.3968 -0.0251  0.7488
   12RES   H327 4969   0.899   0.509   1.682 -2.2242  0.1962 -1.3960
   12RES   H328 4970   0.847   0.592   1.818  1.0500  0.5673  0.0060
   12RES   H329 4971   0.638   0.499   1.851 -1.3401 -1.3445 -0.1866
   12RES   H330 4972   0.661   0.388   1.717  0.7007 -0.2862 -0.0048
   12RES   H331 4973   0.521   0.553   1.648  0.0723  0.5119  0.3598
   12RES   H332 4974   0.668   0.559   1.561 -0.6170  1.2042 -0.8574
   12RES   H333 4975   0.731   0.778   1.712  0.0259  1.3932 -2.0716
   12RES   H334 4976   0.576   0.746   1.787 -0.1186  0.4969  0.1983
   12RES   H335 4977   0.560   0.915   1.588 -1.0358 -0.7476 -1.4098
   12RES   H336 4978   0.450   0.780   1.572  0.0374 -0.8105  0.5131
   12RES   H337 4979   0.607   0.780   1.496  1.0705 -1.5391  0.8611
   12RES   C338 4980   0.834   0.363   1.991 -0.6743 -0.2286 -0.3794
   12RES   C339 4981   0.912   0.312   2.125  0.1398 -0.4192  0.8430
   12RES   C340 4982   0.993   0.182   2.105  0.5000 -0.7616  0.3695
   12RES   C341 4983   0.906   0.062   2.057 -0.3771  0.0376 -0.1568
   12RES   C342 4984   0.983   7.659   2.046 -0.1548 -0.3180 -0.0978
   12RES   C343 4985   1.031   7.629   1.911  0.6767  0.4175 -0.3504
   12RES   C344 4986   1.070   7.488   1.881 -0.2159  0.4356 -0.1933
   12RES   H345 4987   0.755   0.293   1.964  0.7183 -1.4396 -1.4236
   12RES   H346 4988   0.771   0.448   2.015 -1.6634 -0.5729 -1.7175
   12RES   H347 4989   0.983   0.390   2.150  1.0613 -0.7287 -0.7174
   12RES   H348 4990   1.078   0.199   2.038 -1.0671  0.0882 -1.4403
   12RES   H349 4991   1.028   0.154   2.205 -0.4612  0.4083  1.0367
   12RES   H350 4992   0.838   0.082   1.974  0.4947  3.1851 -0.1744
   12RES   H351 4993   0.838   0.041   2.140 -0.8963  0.6047 -0.4364
   12RES   H352 4994   1.056   7.655   2.127 -0.9776  1.6424  0.7698
   12RES   H353 4995   0.929   7.574   2.089  1.1429 -0.6066  0.9948
   12RES   H354 4996   0.944   7.650   1.848 -0.3339 -1.2739  0.4417
   12RES   H355 4997   1.096   7.710   1.877 -0.0514  1.5415  0.8820
   12RES   H356 4998   1.096   7.467   1.778 -0.8266 -0.4549 -0.1757
   12RES   H357 4999   1.003   7.409   1.917  0.3374 -0.9636 -2.1629
   12RES   H358 5000   1.165   7.477   1.933  0.5781  4.6449 -0.6334
   12RES   C359 5001   0.808   0.295   2.239 -0.5122  0.2800 -0.6950
   12RES   C360 5002   0.800   0.420   2.334 -0.2804 -0.5079  0.5686
   12RES   C361 5003   0.669   0.435   2.405 -0.2426 -0.3393  0.3552
   12RES   C362 5004   0.641   0.572   2.477  0.5175  0.7389  0.2500
   12RES   C363 5005   0.518   0.560   2.574 -0.2437  0.2837  0.2065
   12RES   C364 5006   0.521   0.659   2.699 -0.3201 -0.4193  0.3072
   12RES   C365 5007   0.631   0.606   2.795  0.2909 -0.2139 -0.6773
   12RES   H366 5008   0.830   0.211   2.304  0.3021  0.1965 -1.0705
   12RES   H367 5009   0.710   0.260   2.206 -0.2859  2.3200 -3.7420
   12RES   H368 5010   0.792   0.503   2.263  2.2043  0.1762  1.0415
   12RES   H369 5011   0.602   0.420   2.320 -0.1333 -1.4225  0.4496
   12RES   H370 5012   0.653   0.349   2.471 -2.4012  0.3466  0.7744
   12RES   H371 5013   0.731   0.598   2.533  1.4562  3.4187 -2.3377
   12RES   H372 5014   0.607   0.646   2.405 -0.3941 -0.5106 -0.6251
   12RES   H373 5015   0.420   0.571   2.528 -0.7517 -1.2968  0.8523
   12RES   H374 5016   0.502   0.456   2.605 -0.5756  0.6327  1.2495
   12RES   H375 5017   0.558   0.757   2.673 -0.2350 -0.9012 -1.4089
   12RES   H376 5018   0.421   0.677   2.738 -0.8550 -0.3023 -1.1219
   12RES   H377 5019   0.607   0.504   2.825 -0.2871 -0.7239 -2.7813
   12RES   H378 5020   0.730   0.621   2.751 -0.3449  1.7817 -1.4639
   12RES   H379 5021   0.628   0.680   2.875  1.0473  1.6630 -2.3336
   12RES   C380 5022   0.934   0.442   2.420  1.4544 -0.4289  0.5621
   12RES   C381 5023   0.952   0.335   2.527 -0.4803  0.3599  0.5464
   12RES   C382 5024   1.064   0.233   2.497 -0.1634 -0.1260  0.2740
   12RES   C383 5025   1.201   0.305   2.492 -0.4936 -0.0297  0.5950
   12RES   C384 5026   1.319   0.214   2.514 -0.1349 -0.7433 -0.0371
   12RES   C385 5027   1.443   0.299   2.559 -0.6614 -0.4907 -0.3977
   12RES   C386 5028   1.579   0.224   2.536  0.6227 -0.8192 -0.1444
   12RES   H387 5029   1.015   0.455   2.348 -0.2431 -0.8281 -1.4644
   12RES   H388 5030   0.922   0.540   2.467  0.9755 -0.5631  0.7273
   12RES   H389 5031   0.866   0.268   2.523 -0.4840  0.3901  0.0481
   12RES   H390 5032   1.033   0.184   2.405 -0.2629  2.1009 -0.9294
   12RES   H391 5033   1.064   0.155   2.572  0.5983  0.4557  0.8907
   12RES   H392 5034   1.208   0.366   2.402  0.9480  0.4343  1.0054
   12RES   H393 5035   1.202   0.378   2.574  1.2819  0.0457  0.5191
   12RES   H394 5036   1.302   0.141   2.593  0.4906  0.8647  1.6003
   12RES   H395 5037   1.352   0.150   2.432 -0.8309 -0.5908 -0.4393
   12RES   H396 5038   1.439   0.362   2.648  0.2564 -2.0652  0.7763
   12RES   H397 5039   1.459   0.377   2.484 -0.6158  0.9246  1.0539
   12RES   H398 5040   1.576   0.179   2.437  1.3760  0.4510 -0.7509
   12RES   H399 5041   1.604   0.143   2.605 -0.6610 -0.1259  1.1681
   12RES   H400 5042   1.658   0.299   2.536 -1.9006  1.9301  0.3982
   12RES   C401 5043   0.953   0.390   2.672 -0.3599 -0.1156 -0.3567
   12RES   C402 5044   0.980   0.289   2.785  0.1205  0.0069  0.0717
   12RES   C403 5045   0.960   0.339   2.930 -0.5406  0.2678  0.0599
   12RES   C404 5046   0.984   0.231   3.032  0.5612  0.4279  0.9925
   12RES   C405 5047   0.963   0.280   3.178 -0.1144  0.0927 -0.1761
   12RES   C406 5048   0.971   0.154   3.270  0.1986 -0.2832  0.1334
   12RES   C407 5049   0.999   0.194   3.417  0.4186  0.1290  1.3727
   12RES   H408 5050   0.851   0.428   2.684 -0.2033  0.1417  0.1869
   12RES   H409 5051   1.019   0.474   2.690  0.2121 -0.6019 -0.1905
   12RES   H410 5052   1.082   0.252   2.777 -0.3565 -1.7351  1.6380
   12RES   H411 5053   0.857   0.374   2.926  0.1095  2.3855  0.9659
   12RES   H412 5054   1.023   0.428   2.935 -0.3456  0.1211  0.1964
   12RES   H413 5055   1.088   0.200   3.018  1.0059  2.1131  0.4247
   12RES   H414 5056   0.913   0.151   3.012 -0.2869  1.9142 -2.3388
   12RES   H415 5057   1.038   0.354   3.207  1.6292 -1.7852  0.2223
   12RES   H416 5058   0.868   0.333   3.180  1.1470  2.5288 -1.7486
   12RES   H417 5059   0.875   0.103   3.261 -1.4781  2.9893 -1.8397
   12RES   H418 5060   1.039   0.083   3.224 -1.4712 -1.3872 -0.7009
   12RES   H419 5061   1.098   0.234   3.438  1.4155 -1.6461  0.1625
   12RES   H420 5062   0.982   0.109   3.483 -1.7490 -0.0849  0.5745
   12RES   H421 5063   0.929   0.275   3.436 -1.1131 -1.0006  0.6424
   12RES   H422 5064   0.937   0.191   2.765 -0.2628  0.0080  0.8554
   13RES     C1 5065   5.122   4.925   3.232 -1.2118  0.0287 -0.4614
   13RES     C2 5066   5.038   4.870   3.357 -0.3472  0.0715  0.0115
   13RES     C3 5067   4.891   4.817   3.318 -0.4156 -0.2780 -0.1555
   13RES     C4 5068   4.885   4.714   3.211 -0.1725 -0.0121 -1.1777
   13RES     C5 5069   4.919   4.567   3.246  0.0980 -0.2709 -0.5588
   13RES     C6 5070   5.060   4.524   3.219  0.9078  0.1981 -0.6934
   13RES     C7 5071   5.057   4.368   3.232  0.0702 -0.2324 -0.9213
   13RES     H8 5072   5.216   4.969   3.266 -1.4974  1.2178 -1.2095
   13RES     H9 5073   5.069   5.005   3.182 -1.0165 -0.0604 -0.8172
   13RES    H10 5074   5.099   4.795   3.406  0.8014  1.0086  0.0507
   13RES    H11 5075   4.834   4.799   3.409 -1.1824  0.4626 -0.4817
   13RES    H12 5076   4.841   4.901   3.271  1.8417  0.6296 -1.0313
   13RES    H13 5077   4.781   4.708   3.176  0.7433 -0.5597 -3.9569
   13RES    H14 5078   4.943   4.752   3.127  1.3073  2.4256  0.8997
   13RES    H15 5079   4.850   4.508   3.186 -0.2561 -0.3285 -0.1009
   13RES    H16 5080   4.891   4.537   3.347  1.3491  1.6517  0.3818
   13RES    H17 5081   5.128   4.569   3.291  0.4206 -0.6220  0.2932
   13RES    H18 5082   5.087   4.540   3.115 -0.7475  0.0943 -1.1534
   13RES    H19 5083   5.007   4.331   3.142 -2.4001  1.7716 -0.4210
   13RES    H20 5084   4.997   4.327   3.314  1.9014 -2.1448 -0.4814
   13RES    H21 5085   5.156   4.324   3.247 -0.7070 -0.8981  2.6932
   13RES    H22 5086   5.156   4.855   3.155  0.0749 -1.2141  1.1970
   13RES    C23 5087   5.019   4.981   3.462  0.6515 -0.0239 -0.3472
   13RES    C24 5088   5.025   4.927   3.601 -1.1300  0.3147 -0.1574
   13RES    C25 5089   4.955   5.019   3.698  0.0916  0.6772  0.3246
   13RES    C26 5090   5.008   5.162   3.717 -0.4974 -0.5724  0.7343
   13RES    C27 5091   4.922   5.239   3.820 -0.1845 -0.2352 -0.2996
   13RES    C28 5092   4.978   5.382   3.842  0.0655  0.2410 -0.6851
   13RES    C29 5093   4.920   5.465   3.956 -0.6822  0.3476  0.5487
   13RES    H30 5094   5.102   5.051   3.446  0.0624  0.6172 -0.6314
   13RES    H31 5095   4.926   5.036   3.446  0.9428  0.7882  0.6698
   13RES    H32 5096   4.979   4.829   3.590  0.4666 -0.4677 -0.0347
   13RES    H33 5097   4.951   4.972   3.796  1.6083  1.4183  0.7494
   13RES    H34 5098   4.850   5.016   3.671  0.1480 -4.0053  0.1900
   13RES    H35 5099   5.000   5.213   3.621 -3.1571 -3.0395 -0.4252
   13RES    H36 5100   5.115   5.165   3.736  0.5724 -2.5712 -4.2356
   13RES    H37 5101   4.913   5.173   3.906  1.4186 -0.1202 -0.0373
   13RES    H38 5102   4.816   5.249   3.793  0.2872 -1.3813 -2.6018
   13RES    H39 5103   4.970   5.431   3.746  3.7037  0.1429 -1.0879
   13RES    H40 5104   5.083   5.382   3.872 -0.0308  0.8676 -0.3422
   13RES    H41 5105   4.822   5.498   3.922  0.4211  1.9674 -1.1952
   13RES    H42 5106   4.900   5.420   4.053  0.5810  2.3074  1.7747
   13RES    H43 5107   4.971   5.552   3.999 -0.5588 -0.6312  2.4236
   13RES    C44 5108   5.177   4.889   3.643  0.6704  0.0935  0.5003
   13RES    C45 5109   5.200   4.866   3.793 -0.0568 -0.0117  0.0025
   13RES    C46 5110   5.113   4.747   3.838 -0.5955  0.6233 -0.2882
   13RES    C47 5111   5.078   4.756   3.988 -0.2274 -0.1138  0.0309
   13RES    C48 5112   4.975   4.654   4.034  0.3771  0.1709 -0.5022
   13RES    C49 5113   4.942   4.665   4.186  1.1885 -0.2728  0.2589
   13RES    C50 5114   4.817   4.589   4.234 -1.2235 -0.0263 -0.9987
   13RES    H51 5115   5.242   4.972   3.617  0.0996  0.2082 -0.6056
   13RES    H52 5116   5.217   4.812   3.577  1.0341  1.8352 -1.3717
   13RES    H53 5117   5.170   4.959   3.843  0.1760  1.6375 -2.7931
   13RES    H54 5118   5.177   4.660   3.826 -1.4326 -0.1910  1.1434
   13RES    H55 5119   5.026   4.733   3.773 -1.7615  0.4488  1.3021
   13RES    H56 5120   5.165   4.744   4.053 -0.7448 -0.1562  0.7210
   13RES    H57 5121   5.033   4.852   4.011  2.2537  0.9535  0.6490
   13RES    H58 5122   4.999   4.548   4.020 -3.0705 -0.5322 -1.6934
   13RES    H59 5123   4.879   4.665   3.984 -1.1899 -2.0724  1.8893
   13RES    H60 5124   4.934   4.771   4.211 -1.2061 -0.1735 -0.8638
   13RES    H61 5125   5.031   4.629   4.239  0.7041 -2.0640 -0.1199
   13RES    H62 5126   4.795   4.629   4.333  0.1663  2.2913 -1.5805
   13RES    H63 5127   4.833   4.481   4.237  3.1621  0.4313 -3.3008
   13RES    H64 5128   4.735   4.622   4.170 -1.8646  3.1506  1.3089
   13RES    C65 5129   5.346   4.846   3.833  0.2976 -0.6291  0.4359
   13RES    C66 5130   5.435   4.976   3.831  0.0458 -0.1108 -0.2037
   13RES    C67 5131   5.582   4.944   3.787  0.1207  0.1874 -0.1335
   13RES    C68 5132   5.615   4.992   3.641  0.3568 -0.1119  0.6442
   13RES    C69 5133   5.763   4.969   3.607 -0.5865 -0.3638  0.6420
   13RES    C70 5134   5.818   5.016   3.471  0.2835  0.2063 -0.0951
   13RES    C71 5135   5.966   5.000   3.459 -0.4340 -0.2947  0.1136
   13RES    H72 5136   5.351   4.810   3.935 -3.0311 -1.3126  0.4072
   13RES    H73 5137   5.387   4.760   3.780  0.3332 -1.1659  1.3174
   13RES    H74 5138   5.382   5.045   3.767  2.4933  1.1651 -0.9326
   13RES    H75 5139   5.662   4.976   3.853  0.2869 -0.9511  0.2263
   13RES    H76 5140   5.600   4.837   3.791  2.5289  0.5333 -0.9513
   13RES    H77 5141   5.552   4.940   3.569  2.5719  1.4492 -2.5313
   13RES    H78 5142   5.593   5.099   3.633  0.3243 -0.2695 -1.6836
   13RES    H79 5143   5.825   5.027   3.675  0.6011 -0.2830 -0.5008
   13RES    H80 5144   5.792   4.864   3.608 -0.3103 -0.3114 -1.2915
   13RES    H81 5145   5.791   5.120   3.452  1.3776  0.6495  0.7313
   13RES    H82 5146   5.782   4.952   3.390  0.8414 -0.2456  0.0154
   13RES    H83 5147   6.008   5.009   3.358  1.3767  0.6303  0.9328
   13RES    H84 5148   6.018   5.074   3.519 -0.9946 -0.4127  0.7474
   13RES    H85 5149   6.006   4.904   3.492  0.0265  0.4182  1.6434
   13RES    C86 5150   5.442   5.040   3.972  0.1848  0.2927  0.7273
   13RES    C87 5151   5.514   5.179   3.988  0.5611 -0.0927  0.4577
   13RES    C88 5152   5.407   5.287   4.012 -0.7321 -0.0452 -0.2892
   13RES    C89 5153   5.340   5.288   4.150  0.6331 -0.0295  0.2388
   13RES    C90 5154   5.233   5.399   4.163 -0.2393  0.2612 -0.0485
   13RES    C91 5155   5.193   5.443   4.304  0.3233 -0.7341  0.1266
   13RES    C92 5156   5.063   5.540   4.303 -0.0166 -0.9750 -0.0683
   13RES    H93 5157   5.341   5.049   4.013 -0.7804  4.0438 -2.1838
   13RES    H94 5158   5.490   4.966   4.035 -0.2725 -0.4733  0.1885
   13RES    H95 5159   5.556   5.200   3.890 -0.2729 -0.5889 -0.0138
   13RES    H96 5160   5.439   5.391   3.999 -1.3207  0.4873  2.1682
   13RES    H97 5161   5.330   5.280   3.936 -1.3336 -3.2122  0.5730
   13RES    H98 5162   5.296   5.192   4.176  0.2675  0.1412  0.2412
   13RES    H99 5163   5.415   5.287   4.230  1.5285 -1.0789 -0.5902
   13RES   H100 5164   5.142   5.353   4.124 -1.3013 -0.2500  2.8970
   13RES   H101 5165   5.262   5.482   4.100 -2.5165  0.5857 -0.6971
   13RES   H102 5166   5.176   5.357   4.369 -2.1791  0.2584  0.8566
   13RES   H103 5167   5.266   5.506   4.354 -1.1850 -1.9235  4.0414
   13RES   H104 5168   5.025   5.556   4.403  0.2689 -1.9383  0.1966
   13RES   H105 5169   4.978   5.505   4.244 -0.6955  0.8718 -0.2276
   13RES   H106 5170   5.080   5.636   4.254  3.5866 -1.8695 -0.6852
   13RES   C107 5171   5.613   5.170   4.105 -0.0914 -0.2337  0.7206
   13RES   C108 5172   5.696   5.297   4.130 -0.0283 -0.4390  0.3410
   13RES   C109 5173   5.748   5.302   4.275  0.3234  0.0854  0.0288
   13RES   C110 5174   5.636   5.310   4.379 -0.1313  0.4662  0.6221
   13RES   C111 5175   5.687   5.351   4.518 -0.1163 -0.4996  0.6079
   13RES   C112 5176   5.791   5.250   4.567  0.0088 -0.0553  0.1583
   13RES   C113 5177   5.849   5.273   4.709  0.3988 -0.2188  0.0721
   13RES   H114 5178   5.677   5.087   4.075 -0.7141  0.0884 -1.6463
   13RES   H115 5179   5.570   5.130   4.197 -1.4353  2.4836  1.3422
   13RES   H116 5180   5.635   5.386   4.115  1.5106  0.4516 -0.8946
   13RES   H117 5181   5.802   5.397   4.284 -1.1052  0.7941  1.4645
   13RES   H118 5182   5.815   5.223   4.308 -0.0829 -0.2970 -0.0671
   13RES   H119 5183   5.571   5.391   4.346 -1.1947 -1.7858 -3.0087
   13RES   H120 5184   5.576   5.220   4.381 -0.0614  0.3673 -1.2310
   13RES   H121 5185   5.608   5.351   4.593 -1.2176 -0.0307 -0.5397
   13RES   H122 5186   5.735   5.449   4.511  1.0218 -1.1035 -0.1451
   13RES   H123 5187   5.740   5.154   4.574 -0.4109  0.0039 -1.6903
   13RES   H124 5188   5.873   5.248   4.496  0.7702  1.3198  0.9634
   13RES   H125 5189   5.906   5.366   4.702  1.5023 -0.9425 -0.8401
   13RES   H126 5190   5.771   5.282   4.785 -0.9584  1.4127 -1.4715
   13RES   H127 5191   5.908   5.186   4.737  0.4307 -0.3551 -0.4069
   13RES   C128 5192   5.813   5.317   4.024 -0.1817  0.4251 -0.4521
   13RES   C129 5193   5.859   5.465   4.016 -0.1914  0.1024  0.9192
   13RES   C130 5194   5.772   5.564   3.934  0.4806 -0.1012  0.1161
   13RES   C131 5195   5.809   5.566   3.786 -0.3495 -0.0470  0.0689
   13RES   C132 5196   5.722   5.663   3.698 -0.1795  0.3911  0.4692
   13RES   C133 5197   5.793   5.708   3.565  0.0420 -0.5647  0.0455
   13RES   C134 5198   5.711   5.797   3.479 -0.3492 -0.2206  0.1052
   13RES   H135 5199   5.887   5.241   4.050  0.2883  1.7053  1.9753
   13RES   H136 5200   5.802   5.287   3.919 -0.4713  1.5935 -0.7624
   13RES   H137 5201   5.846   5.505   4.116 -2.6998 -1.5623  1.2831
   13RES   H138 5202   5.786   5.662   3.981 -2.2612 -0.4036  1.6898
   13RES   H139 5203   5.665   5.548   3.949  0.2432  1.9540  0.8428
   13RES   H140 5204   5.818   5.466   3.744  4.8284  0.0065  0.7347
   13RES   H141 5205   5.905   5.617   3.779 -0.1595 -0.4145 -0.0199
   13RES   H142 5206   5.710   5.751   3.762 -4.0598  0.6764 -0.5382
   13RES   H143 5207   5.626   5.614   3.683 -1.0750  1.7800  1.4666
   13RES   H144 5208   5.829   5.622   3.509 -0.9114 -0.0918 -1.3143
   13RES   H145 5209   5.881   5.765   3.593 -0.4082 -0.6927  1.7432
   13RES   H146 5210   5.780   5.831   3.402 -2.7459  0.6041 -1.7592
   13RES   H147 5211   5.682   5.882   3.540  0.6493 -0.3247  0.7384
   13RES   H148 5212   5.623   5.742   3.446 -0.0145  0.1418 -1.4640
   13RES   C149 5213   6.009   5.483   3.979  0.4620 -0.1657 -0.7468
   13RES   C150 5214   6.122   5.442   4.083  0.1452  0.3141  0.6219
   13RES   C151 5215   6.117   5.522   4.215 -0.3327 -0.2847 -0.5623
   13RES   C152 5216   6.108   5.441   4.345 -0.0495 -0.1191  0.3496
   13RES   C153 5217   6.233   5.365   4.385 -0.4212 -0.3753 -0.2747
   13RES   C154 5218   6.218   5.277   4.512 -0.4849 -0.6707 -0.7090
   13RES   C155 5219   6.345   5.199   4.548 -0.2411  0.0537  0.2779
   13RES   H156 5220   6.028   5.429   3.887  0.0124 -0.8136 -0.4579
   13RES   H157 5221   6.020   5.587   3.948 -3.7618  0.2915 -0.9107
   13RES   H158 5222   6.099   5.338   4.104 -0.5498  0.5928  1.2847
   13RES   H159 5223   6.183   5.608   4.212  2.4195 -2.3170 -0.2323
   13RES   H160 5224   6.014   5.559   4.223 -0.6197 -0.8355 -1.6124
   13RES   H161 5225   6.022   5.374   4.341  1.2302 -1.7046 -2.5499
   13RES   H162 5226   6.086   5.518   4.419  0.3101 -0.5840  0.9446
   13RES   H163 5227   6.313   5.438   4.397 -0.0299 -0.8187 -0.1642
   13RES   H164 5228   6.255   5.297   4.303 -2.6782  1.0835 -2.1701
   13RES   H165 5229   6.125   5.221   4.518 -0.1271 -1.0911  1.1733
   13RES   H166 5230   6.204   5.347   4.595  2.2689  1.6254 -2.1057
   13RES   H167 5231   6.379   5.139   4.463 -1.2673  1.3973 -1.1301
   13RES   H168 5232   6.342   5.136   4.637  1.4486 -0.4896 -0.0363
   13RES   H169 5233   6.420   5.275   4.571  0.7191 -1.1585  1.1931
   13RES   C170 5234   6.266   5.458   4.027 -0.2726  0.5615  0.0508
   13RES   C171 5235   6.304   5.345   3.926 -0.2934  0.1852 -0.2794
   13RES   C172 5236   6.417   5.396   3.829  0.6024  0.6491 -0.7730
   13RES   C173 5237   6.362   5.454   3.700 -0.1442 -0.1764 -0.0907
   13RES   C174 5238   6.310   5.355   3.592  0.2719 -0.6041 -0.3166
   13RES   C175 5239   6.256   5.426   3.466 -0.6966 -0.5944  0.1834
   13RES   C176 5240   6.116   5.483   3.484  0.0976  0.9033  0.0814
   13RES   H177 5241   6.342   5.467   4.105 -0.7649  0.4104  0.5429
   13RES   H178 5242   6.279   5.557   3.982  1.8556  0.6681  0.8326
   13RES   H179 5243   6.213   5.342   3.867 -0.2133 -2.3361 -0.3315
   13RES   H180 5244   6.490   5.318   3.808 -0.9536 -0.8577 -0.6222
   13RES   H181 5245   6.478   5.478   3.869  1.4118  0.3486 -1.3573
   13RES   H182 5246   6.433   5.527   3.660 -0.0372 -0.3496 -0.2220
   13RES   H183 5247   6.276   5.515   3.725 -1.2652 -1.5985 -0.4346
   13RES   H184 5248   6.222   5.297   3.621 -2.6556  3.8385  0.1157
   13RES   H185 5249   6.389   5.287   3.560  2.1186 -0.1021  2.9061
   13RES   H186 5250   6.249   5.361   3.379 -0.8974  0.5861 -0.6950
   13RES   H187 5251   6.327   5.504   3.438 -0.7613 -0.1920  1.1133
   13RES   H188 5252   6.068   5.512   3.390 -0.0364 -1.6607 -0.6860
   13RES   H189 5253   6.128   5.570   3.548 -0.9775  0.8407  0.3787
   13RES   H190 5254   6.051   5.410   3.531  1.4409 -0.0241  0.5271
   13RES   C191 5255   6.342   5.218   4.004 -0.1260 -0.3624  0.0549
   13RES   C192 5256   6.358   5.087   3.919 -0.3706 -0.2003  0.7144
   13RES   C193 5257   6.462   4.988   3.979  0.6083  0.5950 -0.2327
   13RES   C194 5258   6.398   4.908   4.098  0.0337  0.4015  0.1683
   13RES   C195 5259   6.497   4.841   4.184 -0.2177 -0.8664 -0.6333
   13RES   C196 5260   6.432   4.731   4.280  0.3888 -0.0832 -1.0916
   13RES   C197 5261   6.538   4.662   4.374  0.8325 -0.1728  0.1984
   13RES   H198 5262   6.268   5.201   4.081 -1.2535  0.6816 -0.7762
   13RES   H199 5263   6.434   5.232   4.060  1.0796 -1.4345 -1.6181
   13RES   H200 5264   6.420   5.115   3.834  0.0121  1.2889  1.4533
   13RES   H201 5265   6.548   5.043   4.016  0.8903  0.9808 -1.4403
   13RES   H202 5266   6.501   4.921   3.902  1.5429 -1.8032  2.2583
   13RES   H203 5267   6.336   4.834   4.050  0.8364  0.6783 -1.3170
   13RES   H204 5268   6.339   4.973   4.163 -0.1295  0.8454 -0.4183
   13RES   H205 5269   6.570   4.784   4.126 -1.1396 -0.1704 -2.5293
   13RES   H206 5270   6.531   4.926   4.243 -3.1147 -0.9204  1.1955
   13RES   H207 5271   6.369   4.659   4.228  1.5454 -0.6899 -1.6509
   13RES   H208 5272   6.360   4.787   4.341 -1.0943  0.4223 -3.2631
   13RES   H209 5273   6.500   4.573   4.424 -1.5068  0.4833 -0.3639
   13RES   H210 5274   6.577   4.739   4.440  0.6711  0.7666 -0.7824
   13RES   H211 5275   6.617   4.629   4.305  1.3443  1.4345  0.0035
   13RES   C212 5276   6.223   5.017   3.869  0.5143  0.2545  0.4308
   13RES   C213 5277   6.236   4.888   3.781 -0.9266  0.0492  0.3620
   13RES   C214 5278   6.100   4.817   3.784 -0.4503 -0.4145  0.2464
   13RES   C215 5279   6.069   4.714   3.900 -0.3463 -0.2102 -0.2595
   13RES   C216 5280   5.937   4.634   3.877 -0.9191 -0.2958  0.2726
   13RES   C217 5281   5.885   4.554   4.001  0.1437 -0.1938 -0.1079
   13RES   C218 5282   5.751   4.494   3.965 -0.0608 -0.4106  0.3871
   13RES   H219 5283   6.160   5.092   3.821 -1.6734 -1.2317  0.9072
   13RES   H220 5284   6.157   4.997   3.953  0.9753 -1.2024  0.4546
   13RES   H221 5285   6.318   4.834   3.827 -0.6876  0.0671 -0.0352
   13RES   H222 5286   6.022   4.893   3.779  3.0587  3.4104  1.4525
   13RES   H223 5287   6.094   4.765   3.688 -0.8947  1.2079 -0.6238
   13RES   H224 5288   6.065   4.765   3.995 -0.8846  0.3662 -0.5901
   13RES   H225 5289   6.157   4.650   3.913 -0.2379 -0.2150 -0.9690
   13RES   H226 5290   5.866   4.714   3.855  1.2024  1.1197 -1.6923
   13RES   H227 5291   5.945   4.568   3.790 -1.0585  0.7896 -0.5712
   13RES   H228 5292   5.959   4.480   4.032 -0.2790 -0.2080  0.8929
   13RES   H229 5293   5.881   4.624   4.084  1.8550 -1.1239  0.7898
   13RES   H230 5294   5.671   4.568   3.959 -0.3629 -0.6637  1.2534
   13RES   H231 5295   5.708   4.426   4.038  0.9066  0.1052  1.4558
   13RES   H232 5296   5.748   4.445   3.868  0.7135  3.0167 -1.4662
   13RES   C233 5297   6.292   4.925   3.641 -0.2980 -0.0905 -0.5270
   13RES   C234 5298   6.348   4.807   3.557  0.3195  0.7812  0.6659
   13RES   C235 5299   6.313   4.816   3.408 -0.2965 -0.0311  0.2972
   13RES   C236 5300   6.376   4.947   3.340  0.2273  0.3552 -0.2781
   13RES   C237 5301   6.327   4.960   3.194 -0.7044 -0.7485  0.3832
   13RES   C238 5302   6.447   4.943   3.097 -0.1622  0.1791 -0.2720
   13RES   C239 5303   6.419   4.964   2.956  0.2007 -0.2219  0.3592
   13RES   H240 5304   6.361   5.010   3.641  2.3458 -2.2025  0.6526
   13RES   H241 5305   6.204   4.961   3.588 -1.3437  1.9856  2.5077
   13RES   H242 5306   6.292   4.717   3.582  0.4941  0.2124 -0.9235
   13RES   H243 5307   6.207   4.803   3.389 -0.0684 -2.2852  0.4681
   13RES   H244 5308   6.360   4.729   3.363 -0.8859  0.7241 -1.8371
   13RES   H245 5309   6.484   4.945   3.354  0.0342  0.3144  1.2902
   13RES   H246 5310   6.339   5.040   3.384  0.6532  0.8923 -1.0506
   13RES   H247 5311   6.276   5.056   3.182  0.5115 -0.2267 -0.7209
   13RES   H248 5312   6.250   4.885   3.178 -1.2218 -0.0742 -0.3136
   13RES   H249 5313   6.528   5.010   3.125  0.7817 -0.6558 -0.9395
   13RES   H250 5314   6.483   4.840   3.103 -0.5651  0.0716  0.4479
   13RES   H251 5315   6.416   5.067   2.921 -3.7714 -0.9024 -1.5578
   13RES   H252 5316   6.483   4.907   2.890 -0.4664  2.0928 -2.3766
   13RES   H253 5317   6.321   4.926   2.929  1.1505 -2.2490 -0.3144
   13RES   C254 5318   6.499   4.781   3.588 -0.0538  0.6201 -0.4453
   13RES   C255 5319   6.546   4.641   3.560  0.7896  0.3733 -0.3517
   13RES   C256 5320   6.481   4.528   3.653 -0.0841  0.4647  0.3896
   13RES   C257 5321   6.530   4.546   3.797  0.3530 -0.3316 -0.3035
   13RES   C258 5322   6.473   4.446   3.900  0.8269  0.0412  0.0563
   13RES   C259 5323   6.540   4.454   4.034 -0.3682  0.3808 -0.4694
   13RES   C260 5324   6.502   4.332   4.120  0.1480  0.4892 -0.4342
   13RES   H261 5325   6.525   4.792   3.693  1.2004  0.3796 -0.7262
   13RES   H262 5326   6.568   4.854   3.546  0.8779  0.0935  0.1562
   13RES   H263 5327   6.502   4.609   3.465  1.5733  0.3999 -0.7231
   13RES   H264 5328   6.501   4.428   3.615 -1.9604  0.0477  0.4383
   13RES   H265 5329   6.372   4.529   3.650 -0.0466  0.9974 -0.8954
   13RES   H266 5330   6.638   4.535   3.799  0.1814 -2.1936  0.4516
   13RES   H267 5331   6.512   4.642   3.847  1.4358 -0.5488  0.5176
   13RES   H268 5332   6.468   4.345   3.858 -0.8990  0.2878 -0.3627
   13RES   H269 5333   6.367   4.464   3.916 -0.3986 -4.1561 -2.3971
   13RES   H270 5334   6.648   4.463   4.022 -0.1284  0.3688  1.5303
   13RES   H271 5335   6.502   4.538   4.093 -1.5542  0.1076 -0.8314
   13RES   H272 5336   6.531   4.240   4.069  1.4605 -0.6779  2.3015
   13RES   H273 5337   6.546   4.333   4.219 -0.2389  2.0029 -0.2565
   13RES   H274 5338   6.395   4.311   4.127  0.8258 -2.3437  2.3109
   13RES   C275 5339   6.699   4.615   3.562  0.0698  0.0876  0.4090
   13RES   C276 5340   6.769   4.664   3.437 -0.1541  0.4966 -0.0072
   13RES   C277 5341   6.738   4.578   3.309 -0.7820 -0.6469  0.2845
   13RES   C278 5342   6.785   4.433   3.320 -0.2324 -0.0372  0.2628
   13RES   C279 5343   6.758   4.342   3.197  0.1083 -0.0099 -0.3888
   13RES   C280 5344   6.798   4.194   3.211 -0.2456  0.9349 -1.2113
   13RES   C281 5345   6.748   4.130   3.342  0.2725 -0.1357 -0.0696
   13RES   H282 5346   6.730   4.512   3.578 -0.1475 -0.2474 -1.2080
   13RES   H283 5347   6.740   4.671   3.646 -2.4219 -1.1450  2.5213
   13RES   H284 5348   6.724   4.759   3.410 -0.4468  0.6585  1.0294
   13RES   H285 5349   6.631   4.593   3.295 -0.8723  0.7254  2.2455
   13RES   H286 5350   6.788   4.615   3.220 -0.8518  1.3318  1.0327
   13RES   H287 5351   6.746   4.385   3.409  0.9837 -0.3229  0.6482
   13RES   H288 5352   6.894   4.434   3.330 -0.4316 -1.4716  2.8295
   13RES   H289 5353   6.802   4.381   3.106  0.8939 -0.9538 -0.4178
   13RES   H290 5354   6.651   4.343   3.178 -0.2502  0.0067  1.4938
   13RES   H291 5355   6.763   4.147   3.119 -1.4201  1.8543 -1.2492
   13RES   H292 5356   6.903   4.167   3.200 -0.1138  1.2832 -0.8317
   13RES   H293 5357   6.650   4.159   3.379  0.1569 -0.3797 -0.1838
   13RES   H294 5358   6.822   4.141   3.421  0.3618  2.1284 -0.4350
   13RES   H295 5359   6.744   4.024   3.317 -1.8262  0.1554 -1.0453
   13RES   C296 5360   6.925   4.687   3.450 -1.2124 -0.3408  0.1672
   13RES   C297 5361   7.002   4.725   3.322  0.1984  0.5537 -0.1305
   13RES   C298 5362   7.159   4.723   3.355  0.4055 -0.4639 -0.2690
   13RES   C299 5363   7.222   4.585   3.386  0.4437 -0.0240 -0.9515
   13RES   C300 5364   7.377   4.585   3.415 -1.1038 -0.0355  0.8277
   13RES   C301 5365   7.416   4.447   3.457  0.0748 -0.3066  1.0366
   13RES   C302 5366   7.568   4.422   3.468  0.0220  0.3936  0.0362
   13RES   H303 5367   6.956   4.756   3.528 -0.2534  0.0517 -0.5487
   13RES   H304 5368   6.955   4.586   3.478 -2.3649 -1.2494 -1.7610
   13RES   H305 5369   6.987   4.647   3.247 -1.3195 -0.0930  0.8340
   13RES   H306 5370   7.210   4.768   3.270  2.5540  2.4234  2.4445
   13RES   H307 5371   7.179   4.799   3.431 -1.8389 -1.2272  1.1126
   13RES   H308 5372   7.206   4.525   3.297  2.6966 -1.3760 -0.4832
   13RES   H309 5373   7.164   4.542   3.468  0.1536  0.8771 -0.6754
   13RES   H310 5374   7.415   4.662   3.483  2.9507 -2.1788  1.1865
   13RES   H311 5375   7.427   4.605   3.320 -2.6319 -0.2123 -0.0246
   13RES   H312 5376   7.362   4.439   3.552 -0.7490  1.1687  0.7118
   13RES   H313 5377   7.365   4.373   3.396  0.4865 -1.1886  1.7415
   13RES   H314 5378   7.596   4.318   3.478 -0.3796  0.0634 -2.1185
   13RES   H315 5379   7.612   4.452   3.373  1.0815  0.4201  0.5363
   13RES   H316 5380   7.609   4.485   3.547  0.0454  2.0828 -1.2945
   13RES   C317 5381   6.962   4.864   3.254 -0.1965 -0.0095  0.3722
   13RES   C318 5382   7.026   4.896   3.115 -0.7884 -0.5176 -0.3194
   13RES   C319 5383   6.996   4.792   3.010  0.5249 -0.3381 -0.3140
   13RES   C320 5384   6.846   4.774   2.983  0.6931 -0.2812 -0.2177
   13RES   C321 5385   6.813   4.645   2.896 -0.1529 -0.6706 -0.0401
   13RES   C322 5386   6.670   4.631   2.880 -0.3088 -0.4235  0.1390
   13RES   C323 5387   6.622   4.499   2.807 -0.3144 -0.6354 -0.1233
   13RES   H324 5388   6.995   4.942   3.323  1.8580 -1.1009  0.6829
   13RES   H325 5389   6.855   4.871   3.239 -0.2035  0.3983  0.6085
   13RES   H326 5390   7.134   4.898   3.132 -0.7715 -1.1806 -0.3541
   13RES   H327 5391   7.045   4.702   3.048  0.9878  0.5093  1.1392
   13RES   H328 5392   7.051   4.812   2.918  0.1260  0.6107 -0.3444
   13RES   H329 5393   6.815   4.866   2.932 -0.0316 -0.0428  0.6371
   13RES   H330 5394   6.769   4.780   3.060 -0.8907 -0.5402 -1.7334
   13RES   H331 5395   6.859   4.561   2.947 -1.5205 -1.3545  0.1006
   13RES   H332 5396   6.859   4.647   2.797  0.2796 -2.6202  0.1128
   13RES   H333 5397   6.632   4.716   2.823 -0.1483  0.4018  1.2483
   13RES   H334 5398   6.636   4.629   2.984  2.6504 -0.1565  1.1452
   13RES   H335 5399   6.513   4.502   2.805 -0.3717 -0.9989  1.5461
   13RES   H336 5400   6.660   4.411   2.861 -0.8749 -0.7763  0.0424
   13RES   H337 5401   6.665   4.485   2.708  1.0858  0.6298  0.2831
   13RES   C338 5402   6.972   5.042   3.079  0.0454  0.3689  0.1358
   13RES   C339 5403   7.044   5.104   2.950  0.2247 -0.3750 -0.4369
   13RES   C340 5404   7.202   5.131   2.971  0.2861  0.8370  0.1059
   13RES   C341 5405   7.280   5.134   2.844  0.2032 -0.3583 -0.2832
   13RES   C342 5406   7.419   5.189   2.846 -0.4706 -0.0383 -0.8678
   13RES   C343 5407   7.497   5.212   2.711  0.0617 -0.4394 -0.0075
   13RES   C344 5408   7.608   5.315   2.722  0.2677  0.1182 -0.1676
   13RES   H345 5409   6.987   5.104   3.167 -0.6100 -0.1271  0.5995
   13RES   H346 5410   6.864   5.026   3.072 -0.0758  0.2352  2.1572
   13RES   H347 5411   7.034   5.029   2.871  0.6595  0.5075 -1.3421
   13RES   H348 5412   7.198   5.229   3.018  0.8404  1.5264 -1.2666
   13RES   H349 5413   7.254   5.063   3.039 -3.4868 -0.5475  1.7763
   13RES   H350 5414   7.233   5.208   2.779  0.1781 -0.8062 -0.7882
   13RES   H351 5415   7.282   5.042   2.785  1.9213 -2.1296  2.4144
   13RES   H352 5416   7.423   5.279   2.907 -0.0405 -1.1199  0.7649
   13RES   H353 5417   7.473   5.130   2.921  0.0864  2.3154  0.6626
   13RES   H354 5418   7.543   5.117   2.682 -3.6704 -2.3705  0.2038
   13RES   H355 5419   7.439   5.243   2.625  2.7656  1.9238 -1.0795
   13RES   H356 5420   7.672   5.322   2.634  1.2176  1.0554  0.5851
   13RES   H357 5421   7.675   5.293   2.805  0.2086 -0.5670 -0.2960
   13RES   H358 5422   7.557   5.410   2.740 -1.1160 -0.9246  1.5782
   13RES   C359 5423   6.969   5.229   2.900 -0.1959  0.1232  0.4200
   13RES   C360 5424   6.839   5.199   2.821  0.4954  0.1672  0.1027
   13RES   C361 5425   6.739   5.318   2.819 -0.2927 -0.2618 -0.5350
   13RES   C362 5426   6.662   5.315   2.956 -0.1790 -0.0636  0.6982
   13RES   C363 5427   6.516   5.372   2.931  0.0746  0.5392 -0.2724
   13RES   C364 5428   6.422   5.393   3.056 -0.0859  0.5495 -0.4420
   13RES   C365 5429   6.279   5.417   3.014 -0.0415  0.0576 -0.0957
   13RES   H366 5430   7.037   5.297   2.850  3.9769 -2.2071  2.6058
   13RES   H367 5431   6.932   5.287   2.985  2.4720  2.2525  0.1864
   13RES   H368 5432   6.793   5.107   2.858  0.2258  0.3880  0.3272
   13RES   H369 5433   6.789   5.414   2.804 -0.2151 -0.0264  1.1499
   13RES   H370 5434   6.661   5.300   2.746 -1.5342 -0.0140  0.7129
   13RES   H371 5435   6.659   5.216   3.000 -0.0650 -1.0486 -1.4550
   13RES   H372 5436   6.703   5.383   3.031 -0.5480 -0.6404  1.4201
   13RES   H373 5437   6.531   5.469   2.882 -3.3745  1.1720 -0.1914
   13RES   H374 5438   6.466   5.312   2.855  0.7636  0.1503 -0.4229
   13RES   H375 5439   6.421   5.301   3.115 -0.2796  0.8108 -0.0309
   13RES   H376 5440   6.472   5.478   3.103  1.1315 -0.5030  0.1943
   13RES   H377 5441   6.235   5.321   2.987  1.2442 -0.3585 -0.7403
   13RES   H378 5442   6.220   5.457   3.097 -0.2921  1.6507 -1.0270
   13RES   H379 5443   6.260   5.484   2.930 -1.6823 -0.8919 -0.4995
   13RES   C380 5444   6.876   5.183   2.674  0.2917 -0.3749  0.1396
   13RES   C381 5445   6.772   5.102   2.589  0.5199 -0.4922 -0.5581
   13RES   C382 5446   6.760   5.165   2.446  0.6995 -1.0799 -0.2265
   13RES   C383 5447   6.678   5.292   2.440 -0.4928  0.2027 -0.2074
   13RES   C384 5448   6.727   5.394   2.334  0.3703  0.3619 -0.4347
   13RES   C385 5449   6.613   5.496   2.305 -0.2810 -0.3117  0.1422
   13RES   C386 5450   6.652   5.592   2.186 -0.0977  0.1555  0.4908
   13RES   H387 5451   6.872   5.278   2.622  1.0756  0.9741  2.4788
   13RES   H388 5452   6.969   5.126   2.671  0.0488 -0.8448  1.1330
   13RES   H389 5453   6.673   5.119   2.631  0.3365 -1.9973 -0.3524
   13RES   H390 5454   6.719   5.087   2.381  0.7415 -2.0372  0.8623
   13RES   H391 5455   6.861   5.184   2.412  0.8593 -0.1538  0.7427
   13RES   H392 5456   6.575   5.261   2.425 -0.9351  1.4921  0.0656
   13RES   H393 5457   6.666   5.342   2.536 -0.7733 -0.6590  0.2100
   13RES   H394 5458   6.819   5.451   2.350  0.2980  0.2168  0.5565
   13RES   H395 5459   6.733   5.350   2.235 -1.1026  2.0586 -1.3063
   13RES   H396 5460   6.602   5.555   2.396 -1.2147 -1.7020  0.9570
   13RES   H397 5461   6.525   5.439   2.277  1.2628 -1.9420 -1.4890
   13RES   H398 5462   6.664   5.544   2.089  2.0591  2.2805 -0.3524
   13RES   H399 5463   6.736   5.653   2.219 -0.8587  2.0182 -0.8694
   13RES   H400 5464   6.578   5.670   2.167  0.8113  0.7751 -0.6028
   13RES   C401 5465   6.797   4.949   2.583 -0.8203 -0.9901  0.4264
   13RES   C402 5466   6.682   4.863   2.535  0.0544  0.6617 -0.0592
   13RES   C403 5467   6.734   4.724   2.502 -0.8097  0.4452  0.1974
   13RES   C404 5468   6.799   4.709   2.362 -0.2001 -0.2709  0.4313
   13RES   C405 5469   6.849   4.565   2.334 -0.1957 -0.1056  0.0164
   13RES   C406 5470   6.937   4.519   2.453 -0.5592 -0.2391 -0.7995
   13RES   C407 5471   7.030   4.401   2.419  0.4125 -0.6065  0.1482
   13RES   H408 5472   6.825   4.910   2.682 -1.4130  0.2194  1.0757
   13RES   H409 5473   6.892   4.930   2.532 -2.2190 -0.7886 -2.3360
   13RES   H410 5474   6.644   4.896   2.439  1.3885  0.2343 -0.7462
   13RES   H411 5475   6.645   4.662   2.514 -1.6250  1.7926  1.1325
   13RES   H412 5476   6.799   4.690   2.583  0.9883  0.7151 -1.1173
   13RES   H413 5477   6.878   4.782   2.347 -1.7091  1.1614 -0.7485
   13RES   H414 5478   6.726   4.740   2.287 -0.8712  0.6481  1.4558
   13RES   H415 5479   6.767   4.494   2.323 -0.2891  0.1841 -1.2186
   13RES   H416 5480   6.905   4.561   2.241 -0.0741 -0.9282  0.1252
   13RES   H417 5481   7.005   4.598   2.485  1.5969 -1.2247 -2.7268
   13RES   H418 5482   6.873   4.495   2.538 -1.5248  2.4546 -0.7346
   13RES   H419 5483   7.100   4.421   2.338 -0.4401  1.6810 -0.0496
   13RES   H420 5484   6.963   4.321   2.387 -0.1814  0.5764 -1.6493
   13RES   H421 5485   7.086   4.375   2.509  2.1916 -1.3835 -1.1669
   13RES   H422 5486   6.606   4.854   2.612 -2.0101  1.1315 -1.9973
   14RES     C1 5487   2.424   7.262   1.884  0.1929 -0.0805  0.1757
   14RES     C2 5488   2.466   7.288   1.740 -0.2491  0.4393 -0.4677
   14RES     C3 5489   2.560   7.409   1.742 -0.0449 -0.6957 -0.1846
   14RES     C4 5490   2.690   7.385   1.819 -0.0360 -0.0319 -0.4302
   14RES     C5 5491   2.810   7.470   1.776  0.3053 -0.4512  0.0039
   14RES     C6 5492   2.946   7.423   1.823 -1.1320 -0.2212  0.1527
   14RES     C7 5493   2.960   7.428   1.976 -0.4205 -0.4653 -0.2502
   14RES     H8 5494   2.513   7.245   1.945 -1.2871 -0.7752  2.1655
   14RES     H9 5495   2.370   7.168   1.887  0.4375 -0.2285  0.0295
   14RES    H10 5496   2.528   7.202   1.716  0.6511  0.4462  1.7072
   14RES    H11 5497   2.590   7.410   1.637  2.3729 -4.8860  0.3262
   14RES    H12 5498   2.506   7.502   1.755  1.0260  0.0690 -1.1328
   14RES    H13 5499   2.677   7.409   1.924 -0.0859 -0.2576 -0.3855
   14RES    H14 5500   2.720   7.280   1.819  1.2884  0.3331 -0.2225
   14RES    H15 5501   2.800   7.574   1.809  1.2078 -0.4366  0.2363
   14RES    H16 5502   2.810   7.481   1.668  0.2076  0.7634  0.1118
   14RES    H17 5503   3.030   7.476   1.777 -0.7214 -1.5344 -0.6286
   14RES    H18 5504   2.957   7.321   1.786 -1.9337 -0.5264  0.7492
   14RES    H19 5505   2.933   7.526   2.014 -0.8395 -1.1346  1.1766
   14RES    H20 5506   3.059   7.400   2.013 -1.2851 -3.2968 -0.0155
   14RES    H21 5507   2.900   7.349   2.021  1.3108 -0.4634  2.1663
   14RES    H22 5508   2.357   7.336   1.929  0.3345  0.1874 -0.0476
   14RES    C23 5509   2.347   7.299   1.640 -0.8494 -0.6966  0.4748
   14RES    C24 5510   2.249   7.179   1.619  0.4033  0.4498  0.1245
   14RES    C25 5511   2.307   7.059   1.539 -0.1645  0.6366  0.3510
   14RES    C26 5512   2.373   7.088   1.400 -0.0473  0.0831  0.6760
   14RES    C27 5513   2.428   6.957   1.343  0.1700  0.5300  0.0584
   14RES    C28 5514   2.487   6.971   1.203 -0.5009  0.8214  0.3899
   14RES    C29 5515   2.562   6.849   1.144  0.5750  0.2896  0.5051
   14RES    H30 5516   2.296   7.384   1.684 -0.5691  0.2652 -1.0390
   14RES    H31 5517   2.385   7.336   1.545 -0.0875  2.2064  1.8802
   14RES    H32 5518   2.224   7.138   1.717 -1.3038  1.6194  0.2061
   14RES    H33 5519   2.235   6.977   1.538  0.8127 -0.3379  3.0366
   14RES    H34 5520   2.384   7.014   1.602  1.1573 -0.5392 -2.0259
   14RES    H35 5521   2.449   7.165   1.410 -2.4028  2.5748  0.1030
   14RES    H36 5522   2.302   7.132   1.330  1.9575  3.6157  0.7416
   14RES    H37 5523   2.347   6.884   1.340 -1.8876  2.8039 -1.5207
   14RES    H38 5524   2.495   6.907   1.413  0.2287  0.0916 -0.3146
   14RES    H39 5525   2.565   7.047   1.210  2.1430 -1.7195 -0.2023
   14RES    H40 5526   2.407   7.000   1.135 -1.3542 -1.7383  0.2343
   14RES    H41 5527   2.599   6.878   1.046 -0.2562  3.3550  1.0454
   14RES    H42 5528   2.651   6.820   1.200  0.4337 -1.4300 -0.1177
   14RES    H43 5529   2.504   6.757   1.134 -0.6035  1.1678 -0.8841
   14RES    C44 5530   2.125   7.231   1.544  0.3003  0.3154 -0.2785
   14RES    C45 5531   2.022   7.329   1.612  0.4482  0.2180 -0.0236
   14RES    C46 5532   1.926   7.368   1.498  0.7817  0.3580 -0.4598
   14RES    C47 5533   1.819   7.265   1.442  0.6029  0.1499 -0.4045
   14RES    C48 5534   1.705   7.316   1.358 -0.2479  0.8630 -0.2413
   14RES    C49 5535   1.740   7.322   1.205 -0.7166  0.6273  0.4307
   14RES    C50 5536   1.825   7.446   1.160  0.0807 -0.2636 -0.5592
   14RES    H51 5537   2.064   7.144   1.522 -0.0655  0.7845 -1.1850
   14RES    H52 5538   2.154   7.273   1.447  3.1110 -0.1265  0.3341
   14RES    H53 5539   2.074   7.420   1.643  0.2023  0.7449 -1.1272
   14RES    H54 5540   1.975   7.418   1.414  2.5696 -1.3237 -0.4564
   14RES    H55 5541   1.867   7.454   1.531  0.1221  0.1481 -1.0690
   14RES    H56 5542   1.867   7.183   1.389 -0.6646 -2.5824  2.5350
   14RES    H57 5543   1.776   7.203   1.520  0.7434 -0.7669 -1.0493
   14RES    H58 5544   1.671   7.416   1.385  0.4294  0.7079  1.2491
   14RES    H59 5545   1.629   7.241   1.377  0.2392 -0.2549 -2.6041
   14RES    H60 5546   1.654   7.337   1.141  1.1627 -1.3731 -2.6997
   14RES    H61 5547   1.797   7.236   1.172 -0.5514  0.8659  0.0867
   14RES    H62 5548   1.822   7.445   1.051  1.1624  1.0095 -0.6230
   14RES    H63 5549   1.928   7.436   1.196 -0.0446 -2.0248 -0.6516
   14RES    H64 5550   1.791   7.537   1.211  0.9940 -0.4679  0.4305
   14RES    C65 5551   1.959   7.275   1.734  0.1611 -0.1618 -0.0114
   14RES    C66 5552   1.869   7.381   1.812 -0.4108 -0.1903 -0.2471
   14RES    C67 5553   1.924   7.413   1.958 -0.3919  0.5537 -0.2280
   14RES    C68 5554   2.065   7.465   1.946  0.0020 -0.1577  0.2178
   14RES    C69 5555   2.100   7.552   2.067  0.4222 -0.1516 -0.1316
   14RES    C70 5556   2.247   7.574   2.074 -0.1587  0.4080 -0.3894
   14RES    C71 5557   2.289   7.695   2.163  0.1828  0.1919 -0.0452
   14RES    H72 5558   1.891   7.192   1.711  0.9835 -0.6429 -0.7171
   14RES    H73 5559   2.037   7.235   1.799 -0.6027  0.2737  1.2093
   14RES    H74 5560   1.856   7.472   1.754 -2.2602 -1.3534 -1.7316
   14RES    H75 5561   1.863   7.486   2.012  0.1956  0.6120  0.3715
   14RES    H76 5562   1.923   7.324   2.021 -0.3687  1.3544  0.9190
   14RES    H77 5563   2.131   7.379   1.935  0.7584 -0.0957  3.5521
   14RES    H78 5564   2.078   7.524   1.855  0.9429  0.9658  1.0487
   14RES    H79 5565   2.054   7.651   2.056  3.6954  1.4605  0.1118
   14RES    H80 5566   2.060   7.513   2.161 -1.2818 -2.0362 -1.6194
   14RES    H81 5567   2.294   7.578   1.975  0.8790  0.0237  0.0797
   14RES    H82 5568   2.288   7.484   2.119 -2.0042  0.3055  1.1172
   14RES    H83 5569   2.254   0.065   2.126 -0.7254 -1.0604 -2.6499
   14RES    H84 5570   2.240   7.681   2.259  0.2363 -0.3472 -0.0958
   14RES    H85 5571   2.396   7.692   2.183  0.2510 -0.6468 -0.5104
   14RES    C86 5572   1.718   7.327   1.813  0.5589  0.3673  1.0531
   14RES    C87 5573   1.605   7.411   1.888  0.1896  0.2950  0.7954
   14RES    C88 5574   1.516   7.469   1.784  0.5638 -0.1654  0.7703
   14RES    C89 5575   1.580   7.575   1.688 -0.2412 -0.1480 -0.2709
   14RES    C90 5576   1.485   7.668   1.611 -0.3541 -0.7516  0.0213
   14RES    C91 5577   1.374   7.600   1.523 -0.6285  0.3141  0.0797
   14RES    C92 5578   1.311   7.692   1.423 -0.0566 -0.0379  1.1443
   14RES    H93 5579   1.692   7.311   1.709 -1.5455  0.0549  1.6117
   14RES    H94 5580   1.727   7.224   1.849  0.6438  0.3610  1.0149
   14RES    H95 5581   1.652   7.493   1.942 -1.5975  1.2582  0.9310
   14RES    H96 5582   1.471   7.388   1.727 -0.1184  1.0178 -0.4239
   14RES    H97 5583   1.431   7.525   1.823  0.7169  0.8507 -0.2918
   14RES    H98 5584   1.653   7.641   1.734  0.7989 -0.6218 -1.2267
   14RES    H99 5585   1.638   7.531   1.607 -0.0903 -0.3874 -0.0346
   14RES   H100 5586   1.545   0.002   1.543  1.5659  0.2185  2.5002
   14RES   H101 5587   1.422   7.726   1.678 -0.7334  0.0663 -1.0162
   14RES   H102 5588   1.418   7.518   1.465 -1.3606 -0.3654  0.4772
   14RES   H103 5589   1.291   7.562   1.582 -1.6422 -2.0316 -2.7203
   14RES   H104 5590   1.224   0.019   1.461 -0.4946  0.8697 -1.0199
   14RES   H105 5591   1.271   7.648   1.332  2.4695  0.2483 -0.1459
   14RES   H106 5592   1.372   0.044   1.377  0.6948 -0.7440  0.9202
   14RES   C107 5593   1.517   7.321   1.986 -0.0528  0.0234 -0.3937
   14RES   C108 5594   1.589   7.289   2.118  0.6702  0.5375 -0.2174
   14RES   C109 5595   1.587   7.412   2.208 -0.5403  0.8612  0.2521
   14RES   C110 5596   1.694   7.417   2.306  0.4817 -0.5905  0.1418
   14RES   C111 5597   1.657   7.525   2.402 -0.0462 -0.2688 -0.4189
   14RES   C112 5598   1.776   7.558   2.490 -0.0205  0.6752 -0.1998
   14RES   C113 5599   1.870   7.668   2.441 -0.0723 -0.4776 -0.3759
   14RES   H114 5600   1.500   7.225   1.938  1.5750 -0.9154  0.8733
   14RES   H115 5601   1.414   7.354   2.002  0.4240  0.1371  2.7589
   14RES   H116 5602   1.688   7.260   2.085  0.0896  1.0600 -2.5155
   14RES   H117 5603   1.491   7.415   2.259 -1.2301 -2.5748 -0.6831
   14RES   H118 5604   1.602   7.504   2.151  1.6688 -0.4002 -1.2779
   14RES   H119 5605   1.716   7.326   2.362 -0.1948 -0.2994  0.8733
   14RES   H120 5606   1.791   7.443   2.262  0.4064 -0.7710 -0.1358
   14RES   H121 5607   1.580   7.479   2.465  0.2627 -0.5871 -0.2702
   14RES   H122 5608   1.617   7.618   2.362  0.8538  0.6541  0.7918
   14RES   H123 5609   1.733   7.600   2.582  0.5352  0.5360  0.1230
   14RES   H124 5610   1.841   7.477   2.521  0.4979  0.5622 -1.5505
   14RES   H125 5611   1.937   7.706   2.518 -0.3586  2.4263 -1.5208
   14RES   H126 5612   1.946   7.629   2.374  1.5724 -0.1048  1.2513
   14RES   H127 5613   1.814   0.026   2.401  0.4672  0.2981  0.5049
   14RES   C128 5614   1.539   7.163   2.190 -0.8423 -0.1648  0.2212
   14RES   C129 5615   1.608   7.031   2.145 -0.3845 -0.0647  0.5325
   14RES   C130 5616   1.523   6.914   2.208  0.0901 -0.6905  0.0955
   14RES   C131 5617   1.391   6.872   2.149  0.4548 -0.1355  0.5695
   14RES   C132 5618   1.292   6.797   2.249 -0.2353  0.1982 -0.2992
   14RES   C133 5619   1.346   6.660   2.297  0.0213 -0.7245  0.1294
   14RES   C134 5620   1.232   6.574   2.355 -0.0752 -0.0330  0.1030
   14RES   H135 5621   1.564   7.171   2.296 -1.7933  0.2812  0.4197
   14RES   H136 5622   1.430   7.164   2.192 -0.8272 -0.3884  2.1240
   14RES   H137 5623   1.623   7.028   2.037 -0.1691  1.8326  0.5091
   14RES   H138 5624   1.509   6.941   2.313 -0.5204  1.6817 -0.5475
   14RES   H139 5625   1.590   6.829   2.210  0.5055 -0.3625  0.2588
   14RES   H140 5626   1.408   6.818   2.057 -0.4348 -1.4313  1.1499
   14RES   H141 5627   1.327   6.959   2.130 -2.4996 -1.4569  3.9223
   14RES   H142 5628   1.201   6.786   2.191  0.0166  2.1913 -1.0881
   14RES   H143 5629   1.266   6.863   2.332  0.9086 -0.1995  0.3981
   14RES   H144 5630   1.423   6.657   2.374 -1.9944 -0.1950  2.2316
   14RES   H145 5631   1.366   6.601   2.208 -0.3153  1.4904 -1.4737
   14RES   H146 5632   1.157   6.554   2.278  1.5385 -0.5819 -1.3657
   14RES   H147 5633   1.185   6.629   2.436 -3.0456 -0.0906 -1.4823
   14RES   H148 5634   1.268   6.476   2.387 -1.1479 -0.7496 -0.8240
   14RES   C149 5635   1.752   7.016   2.202 -0.2140 -0.4730 -1.4481
   14RES   C150 5636   1.836   6.899   2.138 -0.5632 -0.0966 -0.1918
   14RES   C151 5637   1.910   6.816   2.246  0.1650  0.0333 -0.2936
   14RES   C152 5638   1.826   6.720   2.335  0.8354  0.3089  0.2076
   14RES   C153 5639   1.796   6.589   2.262  0.0970 -0.1624 -0.0320
   14RES   C154 5640   1.719   6.493   2.354  0.6944  0.8133  0.6606
   14RES   C155 5641   1.675   6.358   2.297 -0.5641 -0.1853 -0.3933
   14RES   H156 5642   1.803   7.112   2.200 -1.9957  0.4910 -1.1677
   14RES   H157 5643   1.738   6.999   2.309  1.1409 -1.9577 -1.4785
   14RES   H158 5644   1.781   6.825   2.079 -0.9593 -1.5068  1.8690
   14RES   H159 5645   1.982   6.758   2.188 -0.0882  0.1221 -0.6967
   14RES   H160 5646   1.975   6.874   2.312  1.2375  0.7852 -1.9694
   14RES   H161 5647   1.727   6.762   2.353  0.3370 -1.1430  0.8912
   14RES   H162 5648   1.875   6.706   2.431  0.4254  0.2073  0.4048
   14RES   H163 5649   1.884   6.549   2.213  0.3695  0.5280 -0.1221
   14RES   H164 5650   1.728   6.603   2.178  0.2068 -0.8773 -0.2365
   14RES   H165 5651   1.631   6.535   2.404 -0.4316 -1.5581  0.7539
   14RES   H166 5652   1.773   6.472   2.447  2.1165  2.4145  0.2119
   14RES   H167 5653   1.636   6.288   2.371 -0.2422  0.5738  0.4979
   14RES   H168 5654   1.756   6.311   2.241 -0.4997 -0.9132  0.3078
   14RES   H169 5655   1.590   6.372   2.230 -0.4729  0.5458 -0.3573
   14RES   C170 5656   1.922   6.949   2.023 -0.3953  0.3168 -0.4037
   14RES   C171 5657   1.962   6.850   1.905  1.1479 -0.4887 -0.6756
   14RES   C172 5658   1.878   6.868   1.776 -0.4340  0.2903 -0.3486
   14RES   C173 5659   1.732   6.826   1.786 -0.1038 -0.2931  0.2008
   14RES   C174 5660   1.653   6.865   1.664 -0.2051 -0.2554 -0.1229
   14RES   C175 5661   1.502   6.851   1.691  0.1084 -0.0714 -0.0816
   14RES   C176 5662   1.450   6.708   1.722 -0.1151  0.3621  0.2965
   14RES   H177 5663   2.016   6.976   2.072 -0.4812 -1.3589  0.7160
   14RES   H178 5664   1.908   7.047   1.977  2.5051  1.6417  1.3864
   14RES   H179 5665   1.953   6.754   1.957  2.2076 -0.2052  0.0343
   14RES   H180 5666   1.916   6.813   1.690 -0.7592  1.4044 -1.2192
   14RES   H181 5667   1.877   6.972   1.744 -0.4299  0.5380  0.4303
   14RES   H182 5668   1.688   6.863   1.878 -1.5445 -0.5348 -0.3773
   14RES   H183 5669   1.724   6.717   1.795  0.6203 -0.4110 -0.5548
   14RES   H184 5670   1.689   6.794   1.590  3.3242  0.9175  0.3732
   14RES   H185 5671   1.663   6.973   1.654 -2.3814  0.3596  3.2188
   14RES   H186 5672   1.445   6.897   1.610 -0.7423  0.7030  0.9510
   14RES   H187 5673   1.470   6.912   1.776  1.3808  0.6067 -0.0759
   14RES   H188 5674   1.485   6.666   1.816  1.4440 -1.3272 -1.0092
   14RES   H189 5675   1.457   6.644   1.634 -1.0906 -0.1874  0.6151
   14RES   H190 5676   1.344   6.722   1.743 -0.0972  1.5053 -0.3270
   14RES   C191 5677   2.112   6.858   1.879 -0.8587  0.1792  0.2684
   14RES   C192 5678   2.190   6.729   1.838  0.0650  1.0038 -0.2941
   14RES   C193 5679   2.209   6.723   1.683 -0.6822  0.3055 -0.0671
   14RES   C194 5680   2.231   6.580   1.638 -0.0600 -1.4029  1.2063
   14RES   C195 5681   2.259   6.557   1.482  0.2108 -0.1719  0.4571
   14RES   C196 5682   2.298   6.411   1.456 -0.1877 -0.1174  0.0514
   14RES   C197 5683   2.186   6.304   1.461  0.0155 -0.0798  0.1688
   14RES   H198 5684   2.157   6.896   1.971  2.4160 -1.7186 -0.4516
   14RES   H199 5685   2.133   6.927   1.797  0.5591 -0.2805  0.2222
   14RES   H200 5686   2.125   6.648   1.869  1.0937  0.5853  0.8024
   14RES   H201 5687   2.284   6.793   1.647 -2.6084  2.5620  0.2101
   14RES   H202 5688   2.122   6.760   1.629 -0.6327  0.5560  0.0255
   14RES   H203 5689   2.147   6.521   1.673 -1.4667 -1.5118 -2.1521
   14RES   H204 5690   2.312   6.532   1.692  2.0751 -2.3506 -2.6314
   14RES   H205 5691   2.168   6.593   1.433 -0.0416  1.5596  2.1600
   14RES   H206 5692   2.344   6.617   1.448 -3.6375  3.4595 -3.4750
   14RES   H207 5693   2.380   6.378   1.520  0.6389  0.3473 -0.7669
   14RES   H208 5694   2.319   6.406   1.349  0.3843 -0.5744  0.1802
   14RES   H209 5695   2.127   6.333   1.547  0.0823 -2.5879  1.0966
   14RES   H210 5696   2.226   6.203   1.467  0.9626  0.3653  1.4629
   14RES   H211 5697   2.123   6.310   1.372  1.3841 -1.2348 -0.9070
   14RES   C212 5698   2.317   6.715   1.922 -0.0670  0.5187  0.1883
   14RES   C213 5699   2.305   6.684   2.073  0.4408  0.8427 -0.7238
   14RES   C214 5700   2.267   6.532   2.096 -0.6630 -0.4788  0.0196
   14RES   C215 5701   2.223   6.489   2.238  0.6645  0.2936 -0.2793
   14RES   C216 5702   2.235   6.330   2.259  0.1707  0.6503  0.4953
   14RES   C217 5703   2.375   6.279   2.278 -0.0349  0.0084 -0.2046
   14RES   C218 5704   2.374   6.125   2.293 -0.5027 -0.1599  0.0616
   14RES   H219 5705   2.375   6.806   1.908  1.6447 -0.4428  0.9815
   14RES   H220 5706   2.374   6.631   1.882 -0.2426  0.7797 -0.6258
   14RES   H221 5707   2.228   6.753   2.106  1.2791  1.2721  0.3724
   14RES   H222 5708   2.176   6.514   2.039 -2.5634  0.7225  2.5697
   14RES   H223 5709   2.352   6.470   2.068  0.8454  1.1868  0.8209
   14RES   H224 5710   2.122   6.526   2.252 -0.3527 -1.4953 -2.5196
   14RES   H225 5711   2.287   6.532   2.316  0.8592  0.1029 -0.3316
   14RES   H226 5712   2.175   6.304   2.346 -2.3458  0.6978 -1.1924
   14RES   H227 5713   2.194   6.268   2.179 -1.6515  0.2567  1.7140
   14RES   H228 5714   2.450   6.314   2.207  2.2484 -2.2051  1.0151
   14RES   H229 5715   2.407   6.320   2.374 -1.1514 -1.6179  0.8731
   14RES   H230 5716   2.473   6.084   2.314  0.0318  1.6268  1.0991
   14RES   H231 5717   2.338   6.084   2.198  2.0849 -1.9224 -0.2140
   14RES   H232 5718   2.315   6.091   2.378  2.6131 -1.8600  1.6616
   14RES   C233 5719   2.434   6.719   2.146  0.2671 -0.1027  0.5804
   14RES   C234 5720   2.492   6.868   2.128  0.6258  0.7116  0.1146
   14RES   C235 5721   2.401   6.990   2.157 -0.0835 -0.2046  0.0605
   14RES   C236 5722   2.305   6.994   2.279  0.3490 -0.4622  0.2819
   14RES   C237 5723   2.226   7.125   2.269 -0.3871  0.3365  0.2419
   14RES   C238 5724   2.116   7.148   2.367  0.0811  0.4265 -0.1239
   14RES   C239 5725   2.035   7.273   2.342 -0.1690 -0.0877  0.3454
   14RES   H240 5726   2.506   6.642   2.116 -0.0134 -0.1880  0.1212
   14RES   H241 5727   2.417   6.704   2.253 -0.0400  1.4573  0.7497
   14RES   H242 5728   2.527   6.885   2.026  1.3467 -0.1812  0.2114
   14RES   H243 5729   2.334   7.000   2.071 -0.0605  1.3136  0.2227
   14RES   H244 5730   2.457   7.083   2.150 -0.9227  0.1245 -3.5134
   14RES   H245 5731   2.356   6.995   2.375 -0.7986  1.3469  0.9202
   14RES   H246 5732   2.243   6.904   2.280  0.0554 -0.2617  0.3259
   14RES   H247 5733   2.174   7.132   2.173  0.2229  0.6616 -0.0700
   14RES   H248 5734   2.293   7.211   2.268  0.6643 -0.4717 -0.7237
   14RES   H249 5735   2.057   7.057   2.356  0.5511 -0.0412  1.1579
   14RES   H250 5736   2.161   7.146   2.466 -0.6584  0.6327  0.2152
   14RES   H251 5737   1.956   7.273   2.417  0.3304  0.8343  0.8879
   14RES   H252 5738   2.071   7.375   2.349 -1.0332  0.1893  0.8512
   14RES   H253 5739   1.994   7.257   2.243  1.8760  0.5966 -0.6435
   14RES   C254 5740   2.618   6.870   2.210 -0.3471  0.3115  0.0297
   14RES   C255 5741   2.732   6.975   2.173  0.8322 -0.0341  0.5276
   14RES   C256 5742   2.817   6.912   2.064  0.1802  0.3467 -0.2462
   14RES   C257 5743   2.936   6.820   2.104 -0.3448 -0.3454  0.6790
   14RES   C258 5744   3.002   6.748   1.989  0.5020  0.0058  0.4985
   14RES   C259 5745   3.061   6.837   1.872  0.9291 -0.5155  0.2502
   14RES   C260 5746   3.185   6.920   1.902  0.6620 -0.2757 -0.5176
   14RES   H261 5747   2.666   6.772   2.211 -2.3924 -0.7093 -0.5178
   14RES   H262 5748   2.594   6.897   2.313 -0.3083  0.8178 -0.0938
   14RES   H263 5749   2.685   7.061   2.126  0.0855 -0.6325  0.1601
   14RES   H264 5750   2.868   6.995   2.014  0.6805  0.5242  0.5656
   14RES   H265 5751   2.748   6.867   1.992 -1.3520 -0.1113  1.4896
   14RES   H266 5752   3.010   6.891   2.143  0.8086 -2.3935  2.3318
   14RES   H267 5753   2.912   6.746   2.180  0.8109 -0.9379  0.4801
   14RES   H268 5754   2.933   6.676   1.945 -0.6701  1.8043 -0.6586
   14RES   H269 5755   3.090   6.696   2.026  0.2688 -0.4443  0.4214
   14RES   H270 5756   3.090   6.767   1.793  0.1427 -0.3127 -0.2286
   14RES   H271 5757   2.977   6.896   1.834 -1.1766 -1.2209  3.5844
   14RES   H272 5758   3.170   6.996   1.978 -0.9115 -1.7079  0.6402
   14RES   H273 5759   3.271   6.859   1.925  3.2225  3.0863 -0.7575
   14RES   H274 5760   3.213   6.965   1.806  0.7140 -0.9507 -0.8174
   14RES   C275 5761   2.818   7.014   2.295  0.1439 -0.5889 -0.2206
   14RES   C276 5762   2.748   7.121   2.375  0.2361 -0.5389 -0.2208
   14RES   C277 5763   2.736   7.251   2.296  0.3508  0.1315 -0.1084
   14RES   C278 5764   2.630   7.352   2.342 -0.1931  0.0527 -0.8426
   14RES   C279 5765   2.635   7.487   2.272 -0.7026 -0.1149  0.0686
   14RES   C280 5766   2.703   7.596   2.346  0.5116 -0.5541 -0.1171
   14RES   C281 5767   2.657   0.009   2.328  1.1295 -0.0054  0.3638
   14RES   H282 5768   2.915   7.047   2.258 -0.5978  0.6924 -1.0424
   14RES   H283 5769   2.848   6.926   2.353  0.3550 -1.4574 -1.6277
   14RES   H284 5770   2.645   7.086   2.384  0.3954 -0.5580  1.7358
   14RES   H285 5771   2.833   7.296   2.317 -0.8359  1.8929  1.6783
   14RES   H286 5772   2.750   7.244   2.188 -0.0535 -1.2725 -0.0805
   14RES   H287 5773   2.643   7.367   2.450  0.1000  1.9134 -1.1138
   14RES   H288 5774   2.530   7.309   2.334 -1.2049  1.4643  3.0532
   14RES   H289 5775   2.531   7.518   2.255 -0.8320  0.6867  2.1916
   14RES   H290 5776   2.686   7.479   2.176  1.6673  1.5898  1.1214
   14RES   H291 5777   2.702   7.569   2.451  0.0980 -1.8067 -0.4326
   14RES   H292 5778   2.807   7.595   2.312  0.2758 -0.1398 -0.8601
   14RES   H293 5779   2.711   0.076   2.395  1.8379  1.1139 -1.2721
   14RES   H294 5780   2.551   0.009   2.354  1.0357 -2.5045  0.1142
   14RES   H295 5781   2.662   0.057   2.230  2.0951  3.1871  1.8988
   14RES   C296 5782   2.830   7.147   2.512  0.5155 -0.4071  0.1852
   14RES   C297 5783   2.833   7.044   2.626  0.2514 -0.2554 -0.5060
   14RES   C298 5784   2.717   7.058   2.729 -0.4853  0.2395  0.3149
   14RES   C299 5785   2.579   7.061   2.671 -0.0119 -0.4599 -0.2886
   14RES   C300 5786   2.472   7.070   2.779 -0.6276 -0.5703 -0.1112
   14RES   C301 5787   2.336   7.056   2.703  0.5531  0.5422  0.8195
   14RES   C302 5788   2.226   7.025   2.803  0.5617 -0.3329 -0.4382
   14RES   H303 5789   2.936   7.163   2.492  0.3405 -0.5488 -0.8643
   14RES   H304 5790   2.810   7.247   2.549 -0.0089 -1.1645  2.0745
   14RES   H305 5791   2.817   6.949   2.575  0.1525 -0.4892 -0.0488
   14RES   H306 5792   2.718   6.968   2.791 -0.4612  1.2257  1.7489
   14RES   H307 5793   2.732   7.147   2.789 -0.1923  1.0612 -0.9440
   14RES   H308 5794   2.566   6.969   2.614  0.7063 -1.4263  1.0789
   14RES   H309 5795   2.575   7.146   2.602  2.1351 -0.8425 -0.9122
   14RES   H310 5796   2.490   7.168   2.824  2.1531 -1.6433  1.2294
   14RES   H311 5797   2.473   6.989   2.851  0.8273  0.3504  0.9482
   14RES   H312 5798   2.318   7.141   2.637 -1.4619  0.4871  1.2838
   14RES   H313 5799   2.341   6.974   2.632 -0.6445  0.5674  0.6981
   14RES   H314 5800   2.133   7.018   2.746 -1.0518  0.2647  2.0729
   14RES   H315 5801   2.239   6.932   2.859  1.7826 -0.7728 -1.4186
   14RES   H316 5802   2.202   7.109   2.867  1.0488 -1.0277  0.6645
   14RES   C317 5803   2.966   7.037   2.702  0.2848 -0.1802  0.8280
   14RES   C318 5804   3.060   6.935   2.639 -0.1105 -0.3580 -0.6008
   14RES   C319 5805   3.204   7.003   2.635  0.2300 -0.5660 -0.3926
   14RES   C320 5806   3.308   6.940   2.542 -0.0907  0.2041  0.1109
   14RES   C321 5807   3.278   6.974   2.396  0.3782  0.3037  0.5564
   14RES   C322 5808   3.364   6.904   2.289 -0.8696  0.1094 -0.4104
   14RES   C323 5809   3.332   6.754   2.279 -0.4283  0.0066  0.4301
   14RES   H324 5810   2.951   7.011   2.807 -0.9859 -1.8560  0.2692
   14RES   H325 5811   3.001   7.139   2.691 -0.8407  0.1381  0.0722
   14RES   H326 5812   3.036   6.903   2.537 -0.7772  1.3384 -0.9882
   14RES   H327 5813   3.241   7.002   2.737 -0.7071 -1.5010 -0.0503
   14RES   H328 5814   3.203   7.109   2.608  0.1837 -0.2390  0.8877
   14RES   H329 5815   3.306   6.835   2.571  1.3813  0.0160 -0.4322
   14RES   H330 5816   3.407   6.981   2.560 -0.2733  0.5628  0.3157
   14RES   H331 5817   3.287   7.082   2.386  1.8173  0.1923  0.5893
   14RES   H332 5818   3.174   6.955   2.370  0.0244  1.0675  1.3812
   14RES   H333 5819   3.469   6.923   2.309 -1.1360 -0.4279  1.6185
   14RES   H334 5820   3.342   6.945   2.190  1.4081  0.3743 -0.8205
   14RES   H335 5821   3.341   6.693   2.369 -0.2880  0.3441  0.6420
   14RES   H336 5822   3.395   6.700   2.208  0.6635 -0.2263  1.5705
   14RES   H337 5823   3.227   6.732   2.257  0.0147  0.2416 -2.0791
   14RES   C338 5824   3.051   6.802   2.724  0.6263 -0.7552 -0.1696
   14RES   C339 5825   2.916   6.727   2.729 -0.3556  0.0246 -0.0831
   14RES   C340 5826   2.914   6.630   2.848  0.1246 -0.4170 -0.2508
   14RES   C341 5827   3.021   6.509   2.834  0.4218 -0.0578 -0.6624
   14RES   C342 5828   2.998   6.398   2.943  0.5230 -0.5842  0.3250
   14RES   C343 5829   3.102   6.293   2.933  0.3382 -0.0809  0.4222
   14RES   C344 5830   3.232   6.341   2.979 -0.0263 -0.5418  0.0057
   14RES   H345 5831   3.070   6.832   2.827  0.1648 -0.0737 -0.2768
   14RES   H346 5832   3.134   6.738   2.693 -0.3801 -0.7485 -2.9575
   14RES   H347 5833   2.841   6.803   2.751  1.0010  1.5081 -0.4875
   14RES   H348 5834   2.942   6.679   2.941  0.7662 -1.5426  0.1596
   14RES   H349 5835   2.808   6.604   2.851  0.0212 -0.4137 -2.8911
   14RES   H350 5836   3.111   6.562   2.864  0.7289 -0.6043 -0.6214
   14RES   H351 5837   3.025   6.473   2.731 -1.8421 -0.6595 -0.5779
   14RES   H352 5838   3.010   6.449   3.038  1.8151  1.4780 -0.8891
   14RES   H353 5839   2.896   6.359   2.934  0.4361 -0.2733 -0.1165
   14RES   H354 5840   3.070   6.210   2.996 -0.0054  0.0231  0.3880
   14RES   H355 5841   3.107   6.265   2.828  1.9126 -0.4293  0.5771
   14RES   H356 5842   3.238   6.449   2.993 -0.7647 -0.6728  1.3739
   14RES   H357 5843   3.317   6.321   2.913  0.2614 -4.8312  1.5058
   14RES   H358 5844   3.250   6.299   3.078 -1.3690 -1.1545 -0.0015
   14RES   C359 5845   2.884   6.663   2.592  0.3045  0.1688 -0.1481
   14RES   C360 5846   2.762   6.570   2.583  0.0783 -0.5936 -0.5325
   14RES   C361 5847   2.630   6.657   2.596 -0.0141 -0.3875  0.0801
   14RES   C362 5848   2.499   6.578   2.623  0.0515  0.3749  0.6636
   14RES   C363 5849   2.373   6.666   2.604 -0.1992  0.2252  0.3849
   14RES   C364 5850   2.249   6.577   2.627  0.7681 -0.0789 -0.2495
   14RES   C365 5851   2.111   6.650   2.623 -0.4844  0.6885 -0.4583
   14RES   H366 5852   2.969   6.605   2.554 -0.2513 -1.1344  0.5546
   14RES   H367 5853   2.865   6.732   2.510 -3.5958 -1.5890 -0.8096
   14RES   H368 5854   2.766   6.497   2.664  1.7400  0.2483  0.1581
   14RES   H369 5855   2.627   6.721   2.684  1.2654  1.8257 -1.4523
   14RES   H370 5856   2.615   6.713   2.504  0.2118 -0.7743 -0.1940
   14RES   H371 5857   2.487   6.496   2.553  3.2515 -0.0880  0.6203
   14RES   H372 5858   2.501   6.538   2.725 -0.4416 -0.7049  0.2542
   14RES   H373 5859   2.376   6.748   2.675  0.1307  0.4584  0.1016
   14RES   H374 5860   2.371   6.707   2.503 -0.3235  0.3793  0.4500
   14RES   H375 5861   2.244   6.496   2.554 -1.3961  0.2230 -0.4563
   14RES   H376 5862   2.264   6.530   2.724  1.0435  3.9344  1.7594
   14RES   H377 5863   2.022   6.587   2.629  0.1694 -0.3063 -1.2118
   14RES   H378 5864   2.104   6.712   2.713  1.1539 -1.6969  1.3742
   14RES   H379 5865   2.092   6.713   2.536 -2.5484 -1.1624 -1.4060
   14RES   C380 5866   2.766   6.489   2.449  0.5672 -0.0800 -0.2297
   14RES   C381 5867   2.875   6.379   2.436  0.5213  0.3588  0.1053
   14RES   C382 5868   2.812   6.242   2.419  0.0648  0.0755 -0.2179
   14RES   C383 5869   2.711   6.201   2.525  0.3190 -0.3503  0.2476
   14RES   C384 5870   2.773   6.166   2.669  0.4809 -0.0106  0.0738
   14RES   C385 5871   2.663   6.097   2.750  0.1904  0.0469 -0.1964
   14RES   C386 5872   2.712   6.053   2.896 -0.3596 -0.2775 -0.2966
   14RES   H387 5873   2.666   6.452   2.426  0.3429  0.6301 -0.4190
   14RES   H388 5874   2.793   6.561   2.371 -0.0792 -0.1277 -0.4950
   14RES   H389 5875   2.930   6.380   2.530 -0.2752  0.5521  0.5796
   14RES   H390 5876   2.899   6.175   2.418  1.1146  1.4351 -0.8500
   14RES   H391 5877   2.769   6.233   2.320 -1.8136 -0.4960  0.6302
   14RES   H392 5878   2.623   6.264   2.533  0.1339 -0.2812 -2.1018
   14RES   H393 5879   2.665   6.115   2.477 -0.7084  0.6888 -0.6434
   14RES   H394 5880   2.874   6.126   2.670  1.0595  1.3987  0.2242
   14RES   H395 5881   2.788   6.266   2.711  1.3756 -0.4740  0.8893
   14RES   H396 5882   2.629   6.010   2.694  0.2951  0.9339 -1.6736
   14RES   H397 5883   2.578   6.166   2.752  0.4957  0.3839  1.9120
   14RES   H398 5884   2.637   5.992   2.946  0.7780 -2.0507 -0.7167
   14RES   H399 5885   2.723   6.145   2.954  2.8761 -0.7853 -0.0103
   14RES   H400 5886   2.807   6.000   2.886 -0.2561 -0.5575  1.9044
   14RES   C401 5887   2.974   6.403   2.320 -0.3713 -0.1376  0.7802
   14RES   C402 5888   3.079   6.282   2.296 -0.1084 -0.3952 -0.3290
   14RES   C403 5889   3.190   6.333   2.206 -0.8760 -0.8760  1.0160
   14RES   C404 5890   3.283   6.211   2.191  0.3554 -0.2361 -0.3958
   14RES   C405 5891   3.410   6.230   2.113  0.2531 -0.1404 -0.8777
   14RES   C406 5892   3.505   6.111   2.128  0.6640 -0.0657 -0.4367
   14RES   C407 5893   3.631   6.128   2.045  0.3295  0.1316 -0.1128
   14RES   H408 5894   3.013   6.498   2.356  0.0767 -0.9164  2.3793
   14RES   H409 5895   2.918   6.424   2.229  2.9142 -1.3968 -1.6268
   14RES   H410 5896   3.031   6.200   2.242  0.3065 -0.9092  0.0886
   14RES   H411 5897   3.251   6.404   2.261  0.6332 -1.5571  0.2654
   14RES   H412 5898   3.151   6.372   2.112 -0.6337  1.6210  1.9083
   14RES   H413 5899   3.241   6.121   2.146  0.4243 -0.7999  0.6525
   14RES   H414 5900   3.306   6.183   2.294 -0.9167  1.9593  0.5384
   14RES   H415 5901   3.404   6.251   2.006 -0.6498 -1.5857 -1.1163
   14RES   H416 5902   3.468   6.312   2.155 -2.6099  1.6665 -0.3338
   14RES   H417 5903   3.528   6.097   2.233  1.2713  1.6890 -0.3121
   14RES   H418 5904   3.467   6.013   2.102  0.5667  0.1953 -1.2882
   14RES   H419 5905   3.705   6.050   2.060  0.9917  0.8951  0.6648
   14RES   H420 5906   3.675   6.226   2.066  0.9572  0.0675 -1.1068
   14RES   H421 5907   3.605   6.128   1.939  1.5830 -1.8833 -0.4363
   14RES   H422 5908   3.133   6.254   2.386 -0.4295  0.8289  0.2524
   15RES     C1 5909   2.467   3.759   0.066 -0.8135  0.1298  0.3897
   15RES     C2 5910   2.462   3.900   7.722 -0.1903 -0.9691 -0.3022
   15RES     C3 5911   2.412   4.012   0.091  0.6099  0.4424  0.3211
   15RES     C4 5912   2.519   4.041   0.193 -0.3396 -0.2356  0.0043
   15RES     C5 5913   2.481   4.142   0.304  0.2861  0.2654 -0.6414
   15RES     C6 5914   2.558   4.134   0.444 -0.6249  0.2320  0.2056
   15RES     C7 5915   2.706   4.155   0.423  0.4252 -0.2720 -0.4714
   15RES     H8 5916   2.370   3.728   0.106 -1.5130  0.5132 -0.9599
   15RES     H9 5917   2.546   3.749   0.141 -0.9835  0.0947  0.5656
   15RES    H10 5918   2.566   3.913   7.689  0.0917  0.3357  1.0851
   15RES    H11 5919   2.388   4.103   0.036 -1.4796 -0.4249 -0.2837
   15RES    H12 5920   2.318   3.975   0.132 -0.5905 -0.3791 -2.9655
   15RES    H13 5921   2.548   3.948   0.242 -0.3376  0.3797  1.1873
   15RES    H14 5922   2.611   4.084   0.151 -1.0796  0.8542 -0.5243
   15RES    H15 5923   2.378   4.130   0.339  1.4201 -2.3479  1.9389
   15RES    H16 5924   2.488   4.247   0.274  1.5165  0.0077 -1.2520
   15RES    H17 5925   2.550   4.035   0.490  0.2605  0.3749  0.6908
   15RES    H18 5926   2.517   4.204   0.517 -0.0891  1.4565 -0.6676
   15RES    H19 5927   2.756   4.171   0.519  0.8747  0.8771 -0.8827
   15RES    H20 5928   2.715   4.236   0.350  2.0348  1.0028  1.1083
   15RES    H21 5929   2.741   4.064   0.375  1.2402  0.0365 -0.4639
   15RES    H22 5930   2.488   3.680   7.720  1.3870 -0.3932  1.5732
   15RES    C23 5931   2.373   3.903   7.594  0.3512  0.3380  0.5456
   15RES    C24 5932   2.394   3.811   7.473 -0.4941  0.4568 -0.0022
   15RES    C25 5933   2.532   3.843   7.406 -0.1692 -0.0518  0.6067
   15RES    C26 5934   2.640   3.740   7.446 -1.2712  0.1841 -0.7186
   15RES    C27 5935   2.777   3.753   7.375 -0.5779 -0.4835 -0.2954
   15RES    C28 5936   2.880   3.647   7.389  0.5383 -0.1506 -0.1151
   15RES    C29 5937   2.997   3.651   7.282  0.0952  0.2203 -0.1058
   15RES    H30 5938   2.272   3.877   7.627  0.1304  1.3885  0.7176
   15RES    H31 5939   2.366   4.007   7.563 -1.8943  1.3067  3.9780
   15RES    H32 5940   2.385   3.708   7.507 -1.9346  0.3449 -0.7035
   15RES    H33 5941   2.562   3.947   7.412  0.3122 -0.0526 -1.4024
   15RES    H34 5942   2.526   3.822   7.299  3.9172  1.3961  0.0099
   15RES    H35 5943   2.606   3.637   7.438 -0.7085 -0.2049  1.5880
   15RES    H36 5944   2.665   3.745   7.552  0.1710 -1.1967 -0.9807
   15RES    H37 5945   2.809   3.855   7.396  0.5209 -1.0595  0.9474
   15RES    H38 5946   2.762   3.752   7.267  0.3148  0.1200 -0.4251
   15RES    H39 5947   2.834   3.548   7.393  1.7631 -0.7219 -0.0685
   15RES    H40 5948   2.925   3.652   7.488 -1.2751 -0.6287  0.7614
   15RES    H41 5949   3.038   3.752   7.274 -0.9664  0.5962 -0.9581
   15RES    H42 5950   3.073   3.574   7.288  0.9197  1.1016  0.9030
   15RES    H43 5951   2.954   3.631   7.184 -1.0033  0.1277  0.3873
   15RES    C44 5952   2.274   3.824   7.375  0.4737  0.2114  0.5687
   15RES    C45 5953   2.141   3.765   7.411  0.2638  0.6178  0.3008
   15RES    C46 5954   2.017   3.815   7.334  0.6248 -0.2235 -0.1669
   15RES    C47 5955   1.975   3.963   7.350  0.6891 -0.7377 -0.2095
   15RES    C48 5956   1.841   4.006   7.279 -0.2736 -0.4500  0.8796
   15RES    C49 5957   1.709   3.933   7.320  0.5934 -0.3765 -0.0837
   15RES    C50 5958   1.592   4.013   7.269 -0.3734  0.4552  0.3687
   15RES    H51 5959   2.298   3.770   7.283  1.0167  0.6649  0.4359
   15RES    H52 5960   2.270   3.931   7.350  0.3071 -0.0120 -0.4065
   15RES    H53 5961   2.120   3.779   7.517  1.9644  0.1205  0.7254
   15RES    H54 5962   1.936   3.744   7.349 -0.5510  1.0100 -0.5758
   15RES    H55 5963   2.038   3.797   7.228  2.0993  2.0368 -0.2911
   15RES    H56 5964   1.992   4.001   7.450  3.2220  0.1155 -0.9111
   15RES    H57 5965   2.048   4.036   7.313  0.1387 -1.0846 -2.0433
   15RES    H58 5966   1.846   3.980   7.173 -0.6302 -0.9548  0.9860
   15RES    H59 5967   1.821   4.113   7.278 -0.5311 -0.4975  0.9970
   15RES    H60 5968   1.705   3.929   7.428  1.0239 -0.2901 -0.0641
   15RES    H61 5969   1.699   3.827   7.295 -0.0759 -0.1086 -0.9901
   15RES    H62 5970   1.498   4.001   7.322 -0.9778 -0.0013 -0.7728
   15RES    H63 5971   1.576   3.994   7.162 -0.2328 -0.9496  0.5852
   15RES    H64 5972   1.613   4.118   7.289 -0.3942  0.6178 -0.4443
   15RES    C65 5973   2.150   3.610   7.387 -0.4498  0.2243 -0.5494
   15RES    C66 5974   2.054   3.523   7.468 -0.2232 -0.6936  0.2728
   15RES    C67 5975   2.096   3.500   7.614  0.0948 -0.6992 -0.3132
   15RES    C68 5976   2.223   3.405   7.642 -0.4323  0.0446  0.4588
   15RES    C69 5977   2.253   3.380   0.068 -0.2603 -0.1537 -0.0402
   15RES    C70 5978   2.387   3.311   0.092 -0.1798  0.6805  0.4967
   15RES    C71 5979   2.376   3.162   0.070  0.0047 -0.0375 -0.5799
   15RES    H72 5980   2.154   3.585   7.281  1.5914 -1.6006 -0.0632
   15RES    H73 5981   2.250   3.582   7.419 -0.9316  0.1388  0.9442
   15RES    H74 5982   1.966   3.587   7.473  0.5421  0.6245 -2.4155
   15RES    H75 5983   2.128   3.595   7.657 -1.2319 -0.0930 -0.6465
   15RES    H76 5984   2.008   3.461   7.664 -0.0348  0.9924  0.8077
   15RES    H77 5985   2.205   3.310   7.592 -0.0314  0.1729  0.0696
   15RES    H78 5986   2.317   3.441   7.601  0.0424 -0.2712  1.2488
   15RES    H79 5987   2.267   3.478   0.114  0.1259  0.5366 -1.6137
   15RES    H80 5988   2.170   3.324   0.110 -1.5699 -0.0348 -2.4166
   15RES    H81 5989   2.416   3.325   0.196 -0.2176 -1.3221  0.7918
   15RES    H82 5990   2.461   3.358   0.027 -0.7789 -2.2443 -2.4112
   15RES    H83 5991   2.343   3.130   7.698 -1.5046  0.2390 -0.1847
   15RES    H84 5992   2.465   3.105   0.093 -1.1759 -1.8402 -0.3888
   15RES    H85 5993   2.310   3.116   0.144  1.3619 -0.9721  0.0714
   15RES    C86 5994   2.021   3.389   7.397  0.2980  0.1765 -0.0395
   15RES    C87 5995   1.897   3.316   7.459 -0.5323  0.2127 -0.1500
   15RES    C88 5996   1.760   3.380   7.421 -0.2506 -0.7271 -0.1460
   15RES    C89 5997   1.655   3.353   7.527  0.2876 -0.1765  0.1474
   15RES    C90 5998   1.512   3.405   7.490  0.3864 -0.1231 -0.3154
   15RES    C91 5999   1.393   3.381   7.585  0.2150 -0.3622  0.7660
   15RES    C92 6000   1.260   3.418   7.523  0.0585 -0.0623  0.8117
   15RES    H93 6001   1.987   3.421   7.299 -1.8193 -1.2775  0.1778
   15RES    H94 6002   2.105   3.323   7.376 -0.1102 -0.1254 -0.7137
   15RES    H95 6003   1.901   3.316   7.568  0.8897  0.2789 -0.2050
   15RES    H96 6004   1.772   3.488   7.425 -0.8099 -0.6671 -0.0635
   15RES    H97 6005   1.724   3.344   7.324  1.3475 -1.9357 -0.3271
   15RES    H98 6006   1.642   3.245   7.538 -3.8274 -0.1981 -3.4507
   15RES    H99 6007   1.690   3.399   7.619 -0.4513  1.7739 -0.5045
   15RES   H100 6008   1.478   3.393   7.387  0.0753 -1.0227 -0.1097
   15RES   H101 6009   1.524   3.514   7.489  1.9527 -0.2348  2.0793
   15RES   H102 6010   1.385   3.273   7.598  2.1264 -0.7465 -0.8934
   15RES   H103 6011   1.402   3.443   7.674 -0.9816  0.8849  0.0507
   15RES   H104 6012   1.231   3.352   7.441 -1.5353  1.1461  0.3828
   15RES   H105 6013   1.263   3.517   7.478 -1.9579  0.8776  2.6678
   15RES   H106 6014   1.176   3.416   7.591 -1.1433 -0.5266 -0.6579
   15RES   C107 6015   1.899   3.175   7.411  0.3893 -0.5141  0.0855
   15RES   C108 6016   1.986   3.078   7.490 -0.2619 -1.0862  0.0298
   15RES   C109 6017   1.901   3.044   7.615  0.2053  0.5549 -1.0508
   15RES   C110 6018   1.990   3.032   0.018 -0.5712  0.0414 -0.3132
   15RES   C111 6019   1.935   2.992   0.156  0.2065 -0.1968  0.6248
   15RES   C112 6020   2.047   2.999   0.264  0.9750  0.0702 -0.6147
   15RES   C113 6021   2.024   2.952   0.403  0.1573 -0.0722  0.2583
   15RES   H114 6022   1.933   3.165   7.308  3.4308  1.5324  0.8304
   15RES   H115 6023   1.801   3.128   7.398  0.6166 -0.7389 -0.9153
   15RES   H116 6024   2.067   3.140   7.528  0.9494 -1.6356 -1.5935
   15RES   H117 6025   1.843   2.953   7.599  0.0552  0.6011 -0.7799
   15RES   H118 6026   1.834   3.126   7.641 -3.0683 -2.2392 -0.2889
   15RES   H119 6027   2.077   2.971   7.722 -0.1930  0.3067  0.3814
   15RES   H120 6028   2.039   3.128   0.039  2.5859 -1.7436  0.7913
   15RES   H121 6029   1.911   2.886   0.153 -0.6569  0.0308 -1.8253
   15RES   H122 6030   1.847   3.051   0.184 -1.3203 -0.7654 -2.6789
   15RES   H123 6031   2.131   2.935   0.237  0.0227 -1.2574 -0.4739
   15RES   H124 6032   2.089   3.099   0.272 -0.8574  1.0313 -2.3739
   15RES   H125 6033   2.112   2.954   0.466 -0.4723  3.3522  1.1127
   15RES   H126 6034   1.949   3.012   0.455  0.4066 -0.1462  0.6972
   15RES   H127 6035   1.980   2.852   0.403 -0.9028  0.3839  0.3334
   15RES   C128 6036   2.043   2.962   7.413  0.1475  0.1966  0.6221
   15RES   C129 6037   2.189   2.971   7.370 -1.2606 -0.3102  0.6958
   15RES   C130 6038   2.223   3.063   7.250  0.3561  0.4652  0.3299
   15RES   C131 6039   2.144   3.021   7.124 -0.6244  0.4572 -0.0139
   15RES   C132 6040   2.149   3.123   7.013  1.0471  0.7670  0.0058
   15RES   C133 6041   2.287   3.169   6.954 -0.6368 -0.6595 -0.1127
   15RES   C134 6042   2.361   3.075   6.863  0.6967 -0.0397  0.8295
   15RES   H135 6043   2.032   2.871   7.471 -1.2598  0.0722  0.1668
   15RES   H136 6044   1.975   2.936   7.331  1.0006  1.0034 -0.3569
   15RES   H137 6045   2.239   3.011   7.459 -0.3582 -0.3033  0.1890
   15RES   H138 6046   2.329   3.052   7.227  0.4559  0.8824  0.5732
   15RES   H139 6047   2.212   3.170   7.270  0.1802  0.2247  1.5605
   15RES   H140 6048   2.038   2.998   7.140 -0.6228  0.1304 -0.4869
   15RES   H141 6049   2.200   2.933   7.092  1.0819  1.7298 -0.6087
   15RES   H142 6050   2.095   3.210   7.052  0.7839  0.3627  0.5564
   15RES   H143 6051   2.090   3.089   6.928  1.3446 -2.2297  0.9383
   15RES   H144 6052   2.363   3.202   7.025  0.4526  2.9141 -2.7844
   15RES   H145 6053   2.269   3.254   6.889 -1.3914 -2.1895 -1.9530
   15RES   H146 6054   2.443   3.124   6.809  0.0641  2.2139  1.8290
   15RES   H147 6055   2.299   3.015   6.797  1.6123  1.4869 -1.5038
   15RES   H148 6056   2.419   2.998   6.914  1.0307 -0.8053 -0.6723
   15RES   C149 6057   2.259   2.830   7.355 -0.3617 -1.0419  0.6306
   15RES   C150 6058   2.303   2.768   7.491 -0.4794  0.4244 -0.1394
   15RES   C151 6059   2.451   2.789   7.508 -0.0258 -0.6265  0.2979
   15RES   C152 6060   2.500   2.759   7.649  0.0706  0.2202  0.1461
   15RES   C153 6061   2.649   2.788   7.667 -0.5821 -0.0716 -0.3027
   15RES   C154 6062   2.686   2.805   0.089  0.1973 -0.0445  0.0906
   15RES   C155 6063   2.833   2.773   0.123 -0.5959 -0.0863 -0.3781
   15RES   H156 6064   2.190   2.762   7.306 -1.3608  0.2930  0.1654
   15RES   H157 6065   2.341   2.820   7.283 -1.2612  0.7319 -0.6647
   15RES   H158 6066   2.252   2.826   7.568 -0.9443  0.9697 -0.8360
   15RES   H159 6067   2.516   2.732   7.442  0.6947  0.1567  0.3313
   15RES   H160 6068   2.469   2.895   7.491 -1.0739 -0.9616 -3.1548
   15RES   H161 6069   2.470   2.669   7.702 -1.9606  0.3529 -0.7446
   15RES   H162 6070   2.447   2.825   7.717  0.7088  0.4210  0.4572
   15RES   H163 6071   2.680   2.876   7.611  1.8667 -1.1218 -0.6714
   15RES   H164 6072   2.711   2.707   7.630  1.4340 -0.4973  3.7745
   15RES   H165 6073   2.622   2.741   0.151 -2.4593  1.0914 -1.3716
   15RES   H166 6074   2.657   2.905   0.123 -0.2912  0.0472 -0.5813
   15RES   H167 6075   2.847   2.795   0.229 -0.7738 -1.7887  0.0066
   15RES   H168 6076   2.900   2.840   0.068 -0.3026 -0.3524 -0.3463
   15RES   H169 6077   2.863   2.669   0.110 -2.4349 -0.5916 -0.6478
   15RES   C170 6078   2.271   2.620   7.498 -0.1826 -0.1832  0.3478
   15RES   C171 6079   2.121   2.578   7.511  0.7088  0.4833 -0.5325
   15RES   C172 6080   2.086   2.445   7.444 -0.0344 -0.0846 -0.2184
   15RES   C173 6081   2.104   2.424   7.296 -0.0178 -0.2867  0.8594
   15RES   C174 6082   2.006   2.311   7.257  0.1581  0.1999  0.4824
   15RES   C175 6083   2.053   2.256   7.120 -0.1711  0.0398 -0.4348
   15RES   C176 6084   1.970   2.135   7.077  0.5553  0.1009  0.1818
   15RES   H177 6085   2.333   2.579   7.578  1.7013  1.2408 -0.3571
   15RES   H178 6086   2.322   2.572   7.414  0.9142  1.6496 -0.0409
   15RES   H179 6087   2.053   2.650   7.466  0.7200  1.7769  1.4515
   15RES   H180 6088   1.985   2.421   7.478 -0.2503  0.8179 -0.2248
   15RES   H181 6089   2.159   2.382   7.494  0.1744  0.5487  0.2735
   15RES   H182 6090   2.206   2.400   7.268 -0.2704 -0.4198  0.0312
   15RES   H183 6091   2.072   2.514   7.242  2.0600  1.1565  1.9624
   15RES   H184 6092   1.900   2.337   7.260 -0.1524 -0.6854 -1.6537
   15RES   H185 6093   2.027   2.232   7.329 -1.1515 -0.2405  0.3822
   15RES   H186 6094   2.157   2.225   7.123 -0.2281 -0.0736  0.9155
   15RES   H187 6095   2.041   2.336   7.047  3.2457 -0.0616 -1.1932
   15RES   H188 6096   1.973   2.061   7.157  2.4077  0.4847  0.4753
   15RES   H189 6097   2.013   2.098   6.984  1.2172  0.1109  0.4884
   15RES   H190 6098   1.867   2.164   7.054  0.5223  1.0146  1.4143
   15RES   C191 6099   2.057   2.594   7.655  0.3928 -0.3331  0.2165
   15RES   C192 6100   2.137   2.539   0.060 -0.6216  0.1387  0.5834
   15RES   C193 6101   2.188   2.658   0.139 -0.3472 -1.0275  0.7715
   15RES   C194 6102   2.255   2.618   0.270 -0.2245  0.2437  0.7511
   15RES   C195 6103   2.337   2.737   0.313  0.2156  0.0540 -0.5624
   15RES   C196 6104   2.432   2.693   0.426 -0.4340  0.1805 -0.5755
   15RES   C197 6105   2.351   2.655   0.552 -0.4167  0.8592  0.0065
   15RES   H198 6106   1.964   2.539   7.648  1.3477 -1.8004 -1.0595
   15RES   H199 6107   2.032   2.700   7.665  0.3961 -0.3742  0.6755
   15RES   H200 6108   2.225   2.486   0.023  0.4058  0.9512  1.8344
   15RES   H201 6109   2.106   2.728   0.153  2.0522  1.7204  1.4461
   15RES   H202 6110   2.270   2.702   0.083 -0.1541 -1.0311  1.0473
   15RES   H203 6111   2.322   2.534   0.254  0.1744  0.8953 -1.2425
   15RES   H204 6112   2.173   2.586   0.334  0.4611 -0.8037  1.1199
   15RES   H205 6113   2.402   2.768   0.231  1.0058 -0.4444 -0.1353
   15RES   H206 6114   2.265   2.809   0.352 -1.1483 -0.3045 -2.3984
   15RES   H207 6115   2.517   2.758   0.444  0.4492 -0.5068 -2.2568
   15RES   H208 6116   2.481   2.600   0.397 -0.7645  0.4808 -2.1005
   15RES   H209 6117   2.419   2.640   0.636  0.2511  0.0959 -0.6648
   15RES   H210 6118   2.293   2.565   0.532 -2.0478  1.5152  1.5568
   15RES   H211 6119   2.277   2.733   0.572 -0.8706  0.6884 -1.0137
   15RES   C212 6120   2.048   2.441   0.133 -0.2023 -0.0811  0.0487
   15RES   C213 6121   2.033   2.300   0.061 -0.1697  0.1541  0.5276
   15RES   C214 6122   2.168   2.223   0.042 -0.2520  0.1511 -0.0853
   15RES   C215 6123   2.232   2.186   0.176  0.3040 -0.2971  0.2594
   15RES   C216 6124   2.374   2.144   0.165 -0.5228  0.6494 -0.6844
   15RES   C217 6125   2.411   1.995   0.187 -0.0154  0.4849  0.4274
   15RES   C218 6126   2.379   1.908   0.064  0.9614 -0.3692 -0.0522
   15RES   H219 6127   1.947   2.481   0.139  0.3022  1.0408  1.1761
   15RES   H220 6128   2.075   2.426   0.238 -0.8481  2.0090  0.5316
   15RES   H221 6129   1.997   2.326   7.688 -0.2321 -1.4976  0.1110
   15RES   H222 6130   2.150   2.135   7.708  0.3938  0.8069 -1.2492
   15RES   H223 6131   2.237   2.286   7.711 -1.3430  0.5843 -0.9332
   15RES   H224 6132   2.173   2.113   0.232 -0.4557  0.0834 -0.0263
   15RES   H225 6133   2.226   2.270   0.245  1.4198 -1.7656  2.2052
   15RES   H226 6134   2.420   2.175   0.071  2.0455  0.4509  0.4849
   15RES   H227 6135   2.417   2.215   0.235  0.0475  0.6718 -1.0560
   15RES   H228 6136   2.518   1.982   0.200  0.6702  4.2177 -0.6666
   15RES   H229 6137   2.359   1.970   0.279 -1.2800  0.2354 -0.3433
   15RES   H230 6138   2.272   1.900   0.042  1.0433  1.3908 -1.1756
   15RES   H231 6139   2.411   1.804   0.074  1.1721 -0.1719  1.4618
   15RES   H232 6140   2.430   1.952   7.705  1.8181  0.4756  0.8900
   15RES   C233 6141   1.920   2.223   0.129 -0.2350 -0.4767 -0.7474
   15RES   C234 6142   1.893   2.079   0.085  0.8932 -0.0798  0.2025
   15RES   C235 6143   1.805   1.997   0.186  0.1368 -0.3579 -0.0459
   15RES   C236 6144   1.662   2.052   0.201  0.3404 -0.3072  0.8522
   15RES   C237 6145   1.591   2.008   0.336 -0.9712 -0.0440  0.3675
   15RES   C238 6146   1.443   2.053   0.364 -0.4907  0.6618  0.2127
   15RES   C239 6147   1.425   2.208   0.394  0.0891 -0.5513  0.5830
   15RES   H240 6148   1.841   2.295   0.108 -1.3548 -0.8886  1.8173
   15RES   H241 6149   1.946   2.224   0.235  4.6636 -0.3550 -1.8176
   15RES   H242 6150   1.988   2.028   0.101  0.6911 -0.5296 -0.0224
   15RES   H243 6151   1.850   2.011   0.284  0.4663 -0.2420 -0.2150
   15RES   H244 6152   1.804   1.889   0.167  3.4068 -0.5267  0.5072
   15RES   H245 6153   1.605   2.028   0.111 -3.0703  0.5054  2.7015
   15RES   H246 6154   1.672   2.161   0.202 -2.5278 -0.0164  3.2325
   15RES   H247 6155   1.657   2.033   0.419 -1.6859  1.7237  0.4317
   15RES   H248 6156   1.596   1.900   0.339  0.4903 -0.0112 -0.1978
   15RES   H249 6157   1.382   2.015   0.282 -1.6187  2.6724  0.1052
   15RES   H250 6158   1.414   1.990   0.448 -1.3191  0.1480 -0.4519
   15RES   H251 6159   1.321   2.235   0.411  0.4480  0.4276  1.2643
   15RES   H252 6160   1.494   2.211   0.479  3.4515 -1.0167 -2.0436
   15RES   H253 6161   1.471   2.261   0.311 -1.2097 -0.5491 -0.1445
   15RES   C254 6162   1.847   2.068   7.665  0.1185  0.6605  0.0761
   15RES   C255 6163   1.855   1.930   7.596  0.2477  0.1668 -0.0174
   15RES   C256 6164   1.991   1.868   7.599 -0.5078 -0.0698  0.3438
   15RES   C257 6165   1.973   1.714   7.593  0.1005 -0.4689 -0.4550
   15RES   C258 6166   2.092   1.634   7.649  0.0255  0.1526 -0.4553
   15RES   C259 6167   2.120   1.652   0.072  0.6540  0.1931  0.7867
   15RES   C260 6168   2.230   1.557   0.120 -0.0182  1.1975  0.1658
   15RES   H261 6169   1.913   2.133   7.609  1.0967  0.1416  0.6164
   15RES   H262 6170   1.745   2.106   7.650 -0.1464 -0.8783 -2.1602
   15RES   H263 6171   1.789   1.863   7.650  0.2428 -1.1253 -1.5777
   15RES   H264 6172   2.051   1.892   7.686 -0.2206  1.5737 -0.2998
   15RES   H265 6173   2.055   1.903   7.518  0.1136 -0.9113  0.4564
   15RES   H266 6174   1.887   1.689   7.654  1.1227 -0.8727  0.8537
   15RES   H267 6175   1.948   1.671   7.496 -0.0802 -0.5612 -0.3677
   15RES   H268 6176   2.180   1.669   7.595 -0.7624  0.3967 -1.5852
   15RES   H269 6177   2.075   1.531   7.618  1.1525 -0.0437 -0.4519
   15RES   H270 6178   2.137   1.755   0.103 -0.7413  1.0578 -1.1923
   15RES   H271 6179   2.030   1.623   0.125  0.5472  2.2549  1.7919
   15RES   H272 6180   2.257   1.570   0.224  1.2155  0.8892 -0.1024
   15RES   H273 6181   2.200   1.454   0.098 -1.0345  1.8453 -1.6445
   15RES   H274 6182   2.320   1.575   0.062  0.7446 -0.2520  0.8578
   15RES   C275 6183   1.812   1.935   7.445  0.5607  0.1068 -0.1355
   15RES   C276 6184   1.664   1.963   7.423 -0.1343 -0.5520 -0.6143
   15RES   C277 6185   1.584   1.836   7.383  0.2277  0.4778 -0.2173
   15RES   C278 6186   1.575   1.721   7.482  0.4611  0.3840  0.0445
   15RES   C279 6187   1.480   1.611   7.419 -0.7460  0.0570  0.7822
   15RES   C280 6188   1.529   1.534   7.297  0.4547  0.4468 -0.6325
   15RES   C281 6189   1.653   1.445   7.328  0.1190 -0.1869  0.2026
   15RES   H282 6190   1.832   1.838   7.401  1.9360  1.0729 -1.7064
   15RES   H283 6191   1.881   1.999   7.388  2.5754 -1.0614  0.9350
   15RES   H284 6192   1.621   1.999   7.517 -1.4080  1.0987 -1.8179
   15RES   H285 6193   1.481   1.865   7.361  0.5325  0.7831 -1.2822
   15RES   H286 6194   1.627   1.818   7.284  2.4739  2.1845  0.4301
   15RES   H287 6195   1.546   1.747   7.583  2.8516 -0.2649  0.9326
   15RES   H288 6196   1.678   1.687   7.495 -0.4120 -1.3794  2.8115
   15RES   H289 6197   1.387   1.663   7.396 -0.2184  0.1354 -1.2047
   15RES   H290 6198   1.459   1.547   7.505  0.3108  0.5421  1.4207
   15RES   H291 6199   1.451   1.465   7.266  2.1490 -2.3670  1.1665
   15RES   H292 6200   1.546   1.597   7.210  0.1954  0.1955 -0.8686
   15RES   H293 6201   1.640   1.405   7.428  1.7853  0.2168  0.6132
   15RES   H294 6202   1.747   1.500   7.342 -0.1847  0.0184  1.4149
   15RES   H295 6203   1.666   1.363   7.257  0.0001  0.7362 -0.8985
   15RES   C296 6204   1.635   2.083   7.325 -0.3383 -0.6104 -0.2934
   15RES   C297 6205   1.500   2.154   7.348  0.9178 -0.3234  0.0630
   15RES   C298 6206   1.450   2.222   7.221  1.1236 -0.1938  0.5973
   15RES   C299 6207   1.423   2.125   7.103 -0.2796 -0.0816  0.7336
   15RES   C300 6208   1.339   2.181   6.987 -0.1595 -0.3015  0.3796
   15RES   C301 6209   1.334   2.102   6.851  0.1205 -1.0185 -0.3999
   15RES   C302 6210   1.262   1.963   6.869 -0.2249 -0.4564 -0.0627
   15RES   H303 6211   1.715   2.155   7.342 -0.5360 -0.5426  0.3935
   15RES   H304 6212   1.658   2.040   7.228  1.4514  1.8140 -0.9876
   15RES   H305 6213   1.426   2.079   7.377  0.8084  0.1204  0.9504
   15RES   H306 6214   1.355   2.272   7.239  0.0080 -2.3188  0.6555
   15RES   H307 6215   1.527   2.294   7.193 -1.3550  2.0303 -0.6497
   15RES   H308 6216   1.375   2.034   7.141 -0.9050  1.2705  3.3100
   15RES   H309 6217   1.513   2.094   7.050  1.3593  1.1791  2.7309
   15RES   H310 6218   1.381   2.279   6.962  1.9695 -1.1040  0.7220
   15RES   H311 6219   1.237   2.204   7.015 -0.7735 -0.7118 -1.4607
   15RES   H312 6220   1.278   2.157   6.774 -0.7551  0.2907  1.1326
   15RES   H313 6221   1.437   2.106   6.817 -0.0737  1.4645 -0.8238
   15RES   H314 6222   1.231   1.918   6.774 -1.4570 -0.1513  0.1823
   15RES   H315 6223   1.321   1.886   6.919  0.1915 -0.1689 -0.1154
   15RES   H316 6224   1.163   1.967   6.915 -0.3028 -0.1276 -0.2581
   15RES   C317 6225   1.518   2.253   7.471 -0.3986  0.3263  0.1966
   15RES   C318 6226   1.383   2.316   7.520  0.1179  0.6996  0.3024
   15RES   C319 6227   1.261   2.221   7.551 -0.7527 -0.3664  0.4781
   15RES   C320 6228   1.310   2.103   7.643 -0.0775 -0.6085  0.0710
   15RES   C321 6229   1.223   1.981   7.617 -0.1424 -0.7168 -0.0321
   15RES   C322 6230   1.249   1.869   7.713 -0.7463  0.1091  0.3852
   15RES   C323 6231   1.164   1.742   7.692  0.2170  0.4219 -0.4550
   15RES   H324 6232   1.576   2.336   7.431  2.1886 -1.2717  0.5545
   15RES   H325 6233   1.566   2.208   7.558 -2.0111 -0.4649  0.7091
   15RES   H326 6234   1.355   2.390   7.446 -3.2970  0.7998  1.6306
   15RES   H327 6235   1.213   2.202   7.455 -0.0862 -0.0203  0.0689
   15RES   H328 6236   1.192   2.287   7.602  1.0264  2.2527 -0.4305
   15RES   H329 6237   1.300   2.141   0.018  0.5180  0.0172 -0.1020
   15RES   H330 6238   1.414   2.073   7.630 -0.0478 -0.2293 -0.5946
   15RES   H331 6239   1.228   1.945   7.514 -1.2323  0.2874 -0.4486
   15RES   H332 6240   1.120   2.012   7.633  0.1046 -0.0303  0.2418
   15RES   H333 6241   1.215   1.900   0.085 -1.7562  2.3220 -0.6328
   15RES   H334 6242   1.356   1.850   7.722 -1.0118 -1.1844  0.9983
   15RES   H335 6243   1.204   1.683   7.610 -3.3679 -2.6883 -0.0906
   15RES   H336 6244   1.060   1.771   7.679  0.2254  2.4525  3.2400
   15RES   H337 6245   1.171   1.673   0.049 -1.7612  0.6532 -0.0782
   15RES   C338 6246   1.411   2.395   7.656  0.4298  0.1159 -0.1818
   15RES   C339 6247   1.516   2.511   7.647  0.6056  0.2584  0.4332
   15RES   C340 6248   1.556   2.563   0.062 -0.6185  0.4174  0.4386
   15RES   C341 6249   1.701   2.590   0.100  0.0027  0.0164 -0.6100
   15RES   C342 6250   1.725   2.632   0.246 -1.0504 -0.0599  0.2842
   15RES   C343 6251   1.718   2.510   0.340  0.0709 -0.0620  0.4453
   15RES   C344 6252   1.707   2.551   0.486  0.0980  0.6482  0.6138
   15RES   H345 6253   1.444   2.325   0.006  0.2682 -0.0594 -0.2722
   15RES   H346 6254   1.324   2.439   7.706  0.9678 -1.1190  1.8930
   15RES   H347 6255   1.602   2.458   7.606  0.6107 -1.0191  2.0429
   15RES   H348 6256   1.509   2.658   0.087 -0.0134  0.8441 -0.0549
   15RES   H349 6257   1.511   2.497   0.136  1.0232 -1.6208 -0.3400
   15RES   H350 6258   1.730   2.679   0.045 -1.8443  1.3702  0.5433
   15RES   H351 6259   1.757   2.502   0.068  1.0104  0.2180  0.5412
   15RES   H352 6260   1.829   2.666   0.253 -0.7432 -1.1677  1.2654
   15RES   H353 6261   1.660   2.714   0.275  0.6092  0.7462  1.8220
   15RES   H354 6262   1.635   2.441   0.325  0.5946 -0.8242  0.9826
   15RES   H355 6263   1.808   2.449   0.330 -2.1400 -3.4287  0.5598
   15RES   H356 6264   1.618   2.613   0.499 -1.5619 -1.8941  1.9004
   15RES   H357 6265   1.792   2.617   0.506 -0.9993  3.1575 -2.5613
   15RES   H358 6266   1.706   2.474   0.564  1.7893  0.7029  0.6964
   15RES   C359 6267   1.464   2.615   7.545  0.3748 -0.2522  0.2616
   15RES   C360 6268   1.567   2.741   7.538 -0.0833 -0.2860 -0.0248
   15RES   C361 6269   1.701   2.709   7.463  0.9201 -0.2354  0.3635
   15RES   C362 6270   1.677   2.681   7.312 -0.2577  0.1510 -0.5490
   15RES   C363 6271   1.810   2.666   7.231 -0.7776 -0.5476  0.1039
   15RES   C364 6272   1.814   2.756   7.113 -0.3938 -0.4998 -0.4906
   15RES   C365 6273   1.729   2.716   6.992 -0.2168 -0.5924  0.1140
   15RES   H366 6274   1.361   2.642   7.572 -0.1871 -0.1158 -1.9103
   15RES   H367 6275   1.463   2.564   7.449 -0.2470 -1.2323  0.7792
   15RES   H368 6276   1.597   2.764   7.640  2.2754 -0.3767 -0.6623
   15RES   H369 6277   1.759   2.801   7.475 -0.8350  0.8102  1.1084
   15RES   H370 6278   1.759   2.630   7.510  0.2971 -1.4189 -0.8444
   15RES   H371 6279   1.619   2.590   7.308 -1.6357  0.9825  0.1436
   15RES   H372 6280   1.611   2.748   7.256 -0.4440  0.9421  0.5891
   15RES   H373 6281   1.898   2.679   7.293 -1.2643  0.2215  0.6492
   15RES   H374 6282   1.830   2.567   7.190  0.6436 -0.0582 -0.4201
   15RES   H375 6283   1.787   2.857   7.144  0.6707 -0.5991  0.8274
   15RES   H376 6284   1.915   2.778   7.079 -0.5390  3.8033  1.4302
   15RES   H377 6285   1.728   2.793   6.914 -0.1837  0.3901  1.0713
   15RES   H378 6286   1.770   2.625   6.948  1.4394  0.4381 -0.5383
   15RES   H379 6287   1.627   2.698   7.024  0.2155 -2.1229  0.6359
   15RES   C380 6288   1.496   2.867   7.488 -0.8003  0.1389 -0.2017
   15RES   C381 6289   1.388   2.926   7.581 -0.7717  0.0361  0.3230
   15RES   C382 6290   1.462   3.012   7.683 -0.1863  0.1430 -0.4893
   15RES   C383 6291   1.363   3.069   0.065  0.3753  0.9626 -0.2022
   15RES   C384 6292   1.444   3.129   0.183 -0.3723  0.1612 -0.1431
   15RES   C385 6293   1.511   3.030   0.281  0.8173  0.5892 -0.0787
   15RES   C386 6294   1.614   3.086   0.383 -0.0803 -0.5330 -0.1587
   15RES   H387 6295   1.571   2.944   7.467  0.0753 -1.2349 -2.2826
   15RES   H388 6296   1.447   2.852   7.392  0.3403  2.5629 -1.2231
   15RES   H389 6297   1.345   2.840   7.632 -1.5807 -0.1516 -0.6534
   15RES   H390 6298   1.529   3.083   7.636  0.8065 -0.1184  0.5101
   15RES   H391 6299   1.527   2.945   0.012  0.2898  0.2931 -0.8652
   15RES   H392 6300   1.303   3.151   0.026  1.4375  1.2630 -1.2369
   15RES   H393 6301   1.299   2.994   0.111  0.5675  0.1305 -1.2687
   15RES   H394 6302   1.508   3.195   0.126  1.4480 -1.1321  0.3334
   15RES   H395 6303   1.384   3.205   0.232 -0.4244  0.1820 -0.2414
   15RES   H396 6304   1.555   2.953   0.219  0.6074  0.8999 -0.6119
   15RES   H397 6305   1.435   2.981   0.343  0.6531  0.4762 -0.3708
   15RES   H398 6306   1.572   3.095   0.483 -0.5564  0.9257 -0.4852
   15RES   H399 6307   1.658   3.181   0.355 -1.8037 -0.0612 -1.3330
   15RES   H400 6308   1.699   3.020   0.399  0.0992  0.0534  1.4471
   15RES   C401 6309   1.277   2.999   7.497  0.2356 -0.5221  0.3331
   15RES   C402 6310   1.172   2.919   7.415 -0.0124 -0.1439  0.3075
   15RES   C403 6311   1.070   3.014   7.348 -0.1262  0.2402  0.1285
   15RES   C404 6312   1.133   3.080   7.222 -0.2189  0.4033  0.5453
   15RES   C405 6313   1.031   3.170   7.150  0.4757 -0.2088 -0.9560
   15RES   C406 6314   1.071   3.205   7.002  0.4774  0.1685 -0.0310
   15RES   C407 6315   0.972   3.298   6.946 -0.1949  0.1659 -0.7315
   15RES   H408 6316   1.330   3.067   7.431 -0.8006  1.1673  1.2350
   15RES   H409 6317   1.226   3.070   7.562 -2.7090  1.0126 -3.4733
   15RES   H410 6318   1.116   2.848   7.476 -0.9503 -0.4488 -0.8805
   15RES   H411 6319   1.046   3.098   7.413  0.2836 -2.0924  3.4131
   15RES   H412 6320   0.978   2.964   7.316 -0.2633 -0.0112  0.8995
   15RES   H413 6321   1.165   3.006   7.150  0.5933  1.6207 -0.3629
   15RES   H414 6322   1.227   3.128   7.253 -0.1279  1.2209 -0.9313
   15RES   H415 6323   0.934   3.121   7.148 -0.6108  1.8081 -0.1056
   15RES   H416 6324   1.028   3.266   7.203  0.5947 -0.4805 -0.4567
   15RES   H417 6325   1.167   3.257   7.012  0.7906 -0.3788 -0.1550
   15RES   H418 6326   1.079   3.115   6.941 -0.8633  2.0861 -3.1636
   15RES   H419 6327   0.875   3.251   6.934 -0.4523 -0.3667  2.9095
   15RES   H420 6328   1.006   3.321   6.845  2.9597  0.1827  0.2812
   15RES   H421 6329   0.972   3.392   7.001  2.6300 -0.6766  0.8228
   15RES   H422 6330   1.209   2.852   7.337 -1.7791 -0.6476 -0.1279
   16RES     C1 6331   0.809   6.728   0.116 -0.1598  0.0656 -0.2668
   16RES     C2 6332   0.769   6.731   0.260 -0.0507 -0.4230 -0.1852
   16RES     C3 6333   0.707   6.598   0.310 -0.2279  0.7792 -0.3102
   16RES     C4 6334   0.603   6.532   0.222 -0.5552  0.3192 -0.8210
   16RES     C5 6335   0.538   6.402   0.285 -0.0570  0.2180 -0.0837
   16RES     C6 6336   0.447   6.438   0.401 -0.1550 -0.0121  0.2907
   16RES     C7 6337   0.364   6.321   0.451  0.0611  0.0184  1.0953
   16RES     H8 6338   0.731   6.753   0.045 -1.0228  1.4356  1.1336
   16RES     H9 6339   0.854   6.632   0.088  0.1896  0.6018 -1.5853
   16RES    H10 6340   0.861   6.736   0.318  0.2520  0.4320 -0.7186
   16RES    H11 6341   0.785   6.525   0.329 -0.2816  0.9861  0.7077
   16RES    H12 6342   0.671   6.616   0.411  0.3908 -0.8877  0.2314
   16RES    H13 6343   0.526   6.607   0.206 -1.4535 -0.1490  1.1445
   16RES    H14 6344   0.657   6.500   0.132  1.5265  1.2665  0.0625
   16RES    H15 6345   0.620   6.340   0.321 -1.9451 -2.0998  0.2930
   16RES    H16 6346   0.484   6.351   0.205 -1.1009  0.3853  0.5075
   16RES    H17 6347   0.388   6.525   0.371  0.2919  1.1839  2.7334
   16RES    H18 6348   0.514   6.469   0.481  0.8733  2.0354 -1.3259
   16RES    H19 6349   0.300   6.278   0.374  1.4257  0.2750 -0.1851
   16RES    H20 6350   0.294   6.352   0.529  1.5439  1.9916  1.6658
   16RES    H21 6351   0.428   6.239   0.484 -0.4865 -0.6061  0.6232
   16RES    H22 6352   0.898   6.786   0.092  0.2113 -0.6853 -0.7332
   16RES    C23 6353   0.688   6.861   0.296 -0.4918 -0.2289 -0.3290
   16RES    C24 6354   0.781   6.984   0.339  0.2390  0.5971  0.4624
   16RES    C25 6355   0.856   7.050   0.217 -0.3369  0.0002  0.0531
   16RES    C26 6356   0.853   7.211   0.225 -0.4172  0.5138  0.8903
   16RES    C27 6357   0.959   7.278   0.143 -0.0442  0.5456  0.2302
   16RES    C28 6358   0.919   7.420   0.095 -0.1498  0.7823  0.6524
   16RES    C29 6359   1.009   7.493   7.722 -0.1801  0.8066 -0.3022
   16RES    H30 6360   0.615   6.896   0.224  0.2074  0.2091 -0.8376
   16RES    H31 6361   0.626   6.820   0.375  0.3439 -1.1916 -0.1576
   16RES    H32 6362   0.704   7.054   0.369 -1.2147 -0.4235 -0.7939
   16RES    H33 6363   0.807   7.020   0.124  0.0197  0.8408 -0.4093
   16RES    H34 6364   0.960   7.017   0.223 -0.9407 -1.6987  1.4417
   16RES    H35 6365   0.852   7.249   0.327  1.7118 -2.0816  1.9186
   16RES    H36 6366   0.753   7.248   0.202  0.0063  1.2919  0.2768
   16RES    H37 6367   0.982   7.219   0.055 -2.5798  1.1191 -0.8671
   16RES    H38 6368   1.050   7.273   0.203 -1.3666  1.5838  2.4210
   16RES    H39 6369   0.893   7.476   0.185  1.2568  0.9529  0.9708
   16RES    H40 6370   0.824   7.412   0.043 -0.1158  2.7601  0.2320
   16RES    H41 6371   1.116   7.490   0.020 -0.0638 -3.7833 -0.8835
   16RES    H42 6372   1.011   7.443   7.625  0.1045  0.0813  0.0728
   16RES    H43 6373   0.975   7.594   7.700  0.3802  1.0895  0.1057
   16RES    C44 6374   0.854   6.966   0.469 -0.1403 -0.6608 -0.1417
   16RES    C45 6375   0.779   6.903   0.591 -0.8768  0.4330 -0.0486
   16RES    C46 6376   0.876   6.898   0.717 -0.2501  0.5586  0.9780
   16RES    C47 6377   0.993   6.790   0.701 -0.4675 -0.2850  0.1544
   16RES    C48 6378   1.051   6.744   0.837  0.2735  0.0141  0.0251
   16RES    C49 6379   1.169   6.659   0.812 -0.1397 -0.8792  0.2103
   16RES    C50 6380   1.251   6.633   0.933  0.2165 -0.1760 -0.5601
   16RES    H51 6381   0.897   7.064   0.491 -0.7166  0.3908 -3.3203
   16RES    H52 6382   0.951   6.922   0.446  0.1454  0.5280 -1.2834
   16RES    H53 6383   0.746   6.801   0.575  0.1522 -0.0553  0.9140
   16RES    H54 6384   0.815   6.866   0.801  0.7798 -0.2874  1.4101
   16RES    H55 6385   0.920   6.994   0.745  0.5693  0.6321 -0.5203
   16RES    H56 6386   0.967   6.706   0.636 -0.9340 -2.7568  3.4034
   16RES    H57 6387   1.067   6.842   0.641 -1.6499 -2.2408 -3.1201
   16RES    H58 6388   0.980   6.692   0.902 -0.8255 -1.3184 -2.1957
   16RES    H59 6389   1.076   6.835   0.892  0.8034  0.5675 -1.1238
   16RES    H60 6390   1.230   6.690   0.726  0.0682  2.2673  1.4409
   16RES    H61 6391   1.124   6.566   0.777  0.8489 -2.4630  3.0338
   16RES    H62 6392   1.325   6.555   0.916 -1.0807 -1.2853 -1.3115
   16RES    H63 6393   1.183   6.593   1.009 -0.0422 -1.4599 -1.4414
   16RES    H64 6394   1.302   6.714   0.984 -3.9616  1.4013  1.3200
   16RES    C65 6395   0.653   6.981   0.635  0.2899  0.9302 -1.0964
   16RES    C66 6396   0.557   6.904   0.729  0.4793  0.5641 -0.4497
   16RES    C67 6397   0.511   6.768   0.682  0.2240  0.3256 -0.1822
   16RES    C68 6398   0.572   6.655   0.757 -0.4881  0.5527  0.6758
   16RES    C69 6399   0.501   6.613   0.891 -0.5734  0.4614 -0.0278
   16RES    C70 6400   0.591   6.532   0.992 -0.1068 -0.6246  0.0496
   16RES    C71 6401   0.685   6.621   1.066  0.3647  0.4566  0.2334
   16RES    H72 6402   0.679   7.078   0.678 -2.4365  1.1915  0.0692
   16RES    H73 6403   0.598   7.011   0.545 -0.7237  1.3423 -0.3555
   16RES    H74 6404   0.598   6.894   0.830  1.0707 -1.5735 -0.8736
   16RES    H75 6405   0.402   6.767   0.682  0.1034  3.9877  1.4833
   16RES    H76 6406   0.542   6.764   0.577 -0.2407 -1.4979 -0.2682
   16RES    H77 6407   0.586   6.576   0.683 -0.4605  2.3281 -1.2970
   16RES    H78 6408   0.676   6.670   0.787 -0.1395  0.4962 -0.4462
   16RES    H79 6409   0.478   6.707   0.942  1.5440  0.8475  0.2285
   16RES    H80 6410   0.412   6.551   0.873  0.6814 -0.8163 -1.9994
   16RES    H81 6411   0.640   6.451   0.939  1.8555  1.3091 -1.1720
   16RES    H82 6412   0.519   6.478   1.055 -2.4789 -0.4962 -2.4502
   16RES    H83 6413   0.632   6.705   1.111 -0.2566  1.0571 -1.6039
   16RES    H84 6414   0.736   6.558   1.139 -0.3675 -0.0430  0.3194
   16RES    H85 6415   0.763   6.662   1.002  1.2168 -1.3157  0.1131
   16RES    C86 6416   0.431   6.997   0.746 -0.2901 -0.2391  0.0224
   16RES    C87 6417   0.335   6.970   0.866 -0.0078  0.3899 -0.4709
   16RES    C88 6418   0.383   7.024   1.001  0.1195 -0.1077 -0.5131
   16RES    C89 6419   0.324   6.952   1.117 -0.3989  0.1283 -0.0693
   16RES    C90 6420   0.397   7.006   1.243  0.9953 -0.7278  0.1321
   16RES    C91 6421   0.366   6.944   1.381  0.4941  0.1281  0.1195
   16RES    C92 6422   0.425   7.019   1.501 -0.5145 -0.7258 -0.1701
   16RES    H93 6423   0.479   7.090   0.775  0.3518 -0.7673  0.7062
   16RES    H94 6424   0.372   7.021   0.658 -2.0727 -0.6252  1.0877
   16RES    H95 6425   0.327   6.861   0.871  0.6014  0.4153  1.2666
   16RES    H96 6426   0.491   7.034   1.012  0.2264 -0.4087 -1.3006
   16RES    H97 6427   0.355   7.130   1.003  0.3553 -0.0507  0.0659
   16RES    H98 6428   0.221   6.975   1.140 -0.3645  0.2543 -0.0415
   16RES    H99 6429   0.342   6.844   1.127  0.4156  0.3943  1.5575
   16RES   H100 6430   0.375   7.112   1.254  0.2884 -0.7374 -1.1382
   16RES   H101 6431   0.505   6.989   1.240  0.8568 -1.3461 -1.7391
   16RES   H102 6432   0.260   6.940   1.404  0.4502 -2.8333 -0.4120
   16RES   H103 6433   0.402   6.842   1.386  1.9890  0.5632 -1.2374
   16RES   H104 6434   0.392   7.121   1.518  2.8223  0.0839  1.7994
   16RES   H105 6435   0.533   7.018   1.485 -0.3850 -0.4849  0.7009
   16RES   H106 6436   0.411   6.949   1.583 -0.8641  1.5900  1.7756
   16RES   C107 6437   0.190   7.015   0.836 -0.2473 -0.3386 -0.5832
   16RES   C108 6438   0.107   6.901   0.773  0.5060  0.1125  0.5137
   16RES   C109 6439   0.054   6.790   0.872 -0.4742 -0.2351 -0.0127
   16RES   C110 6440   0.021   6.657   0.807  0.5714  0.7626  0.4598
   16RES   C111 6441   7.712   6.549   0.899  0.3041 -0.4892 -0.2012
   16RES   C112 6442   0.098   6.460   0.960  0.7766 -0.2729 -0.8226
   16RES   C113 6443   0.044   6.356   1.060 -0.4784 -0.1345 -0.8148
   16RES   H114 6444   0.185   7.108   0.779  1.2465  2.0374  2.9570
   16RES   H115 6445   0.138   7.039   0.930  1.2388  1.4409 -0.1856
   16RES   H116 6446   0.174   6.845   0.708  0.8004  0.0042  0.9041
   16RES   H117 6447   7.682   6.822   0.906 -1.1496 -2.2793  0.0263
   16RES   H118 6448   0.121   6.775   0.956  2.1939 -0.8372 -2.1975
   16RES   H119 6449   7.666   6.665   0.735  1.1496  0.1960 -0.2772
   16RES   H120 6450   0.106   6.631   0.743  0.1660  0.6677 -0.0471
   16RES   H121 6451   7.641   6.483   0.850 -0.7290  0.7402 -0.3786
   16RES   H122 6452   7.666   6.597   0.985 -0.6852 -2.7351  0.5362
   16RES   H123 6453   0.139   6.413   0.871  1.9500 -1.5252  0.3585
   16RES   H124 6454   0.170   6.524   1.010 -0.5041 -0.5497  1.4492
   16RES   H125 6455   0.028   6.407   1.155 -2.7118  0.0577 -1.2747
   16RES   H126 6456   7.679   6.308   1.027 -1.1489 -0.6920  1.7674
   16RES   H127 6457   0.120   6.279   1.068  0.2893  0.5800 -1.1399
   16RES   C128 6458   7.724   6.942   0.672 -0.3933  0.4204  0.9369
   16RES   C129 6459   0.042   7.011   0.535 -0.0491  0.0392 -0.4517
   16RES   C130 6460   7.652   7.083   0.459 -0.0193 -0.2613  0.3677
   16RES   C131 6461   7.558   6.999   0.371 -0.2365 -0.0079  0.3762
   16RES   C132 6462   7.483   7.098   0.279  0.1568 -0.4080 -0.3910
   16RES   C133 6463   7.573   7.144   0.164 -0.0213 -0.3852  0.0852
   16RES   C134 6464   7.608   7.048   0.044 -0.6066 -0.4475  0.1327
   16RES   H135 6465   7.677   6.849   0.638  0.9706 -0.4836  1.5261
   16RES   H136 6466   7.649   7.005   0.720  0.3049  1.4412  0.7000
   16RES   H137 6467   0.111   7.090   0.566 -0.3906  0.0777  0.1991
   16RES   H138 6468   7.683   7.177   0.412 -0.4098 -0.7181 -0.8334
   16RES   H139 6469   7.593   7.121   0.543 -1.3124  0.8822 -1.0310
   16RES   H140 6470   7.487   6.935   0.423  0.7624 -0.6295  0.9879
   16RES   H141 6471   7.607   6.925   0.307 -1.5811  1.1568 -2.0779
   16RES   H142 6472   7.455   7.186   0.337 -1.7508 -0.9078 -0.5258
   16RES   H143 6473   7.395   7.048   0.238 -0.4139 -0.2730  0.6659
   16RES   H144 6474   7.668   7.179   0.202 -0.8350  0.8765  1.0075
   16RES   H145 6475   7.520   7.230   0.121  3.6146  0.8692 -2.1480
   16RES   H146 6476   7.671   6.965   0.077 -0.8919 -1.6186 -2.1639
   16RES   H147 6477   7.668   7.105   7.700 -0.2083  1.5242  2.0075
   16RES   H148 6478   7.511   7.019   0.004 -0.9627 -0.0895  0.7336
   16RES   C149 6479   0.113   6.902   0.440 -0.0738  0.1668 -0.3098
   16RES   C150 6480   0.175   6.967   0.310 -0.0525 -0.0457 -0.1141
   16RES   C151 6481   0.220   6.857   0.209  0.6610 -0.7504 -1.1530
   16RES   C152 6482   0.285   6.913   0.075 -0.4727 -0.3605  0.1104
   16RES   C153 6483   0.379   6.802   0.010 -0.7545 -0.8020  0.0224
   16RES   C154 6484   0.293   6.692   7.671 -0.2726  0.2007  0.2304
   16RES   C155 6485   0.384   6.571   7.622 -0.0986 -0.0981  0.1852
   16RES   H156 6486   0.184   6.839   0.494  1.0266  0.6607 -1.1662
   16RES   H157 6487   0.043   6.825   0.407  0.6267 -0.9067  0.6481
   16RES   H158 6488   0.100   7.030   0.262 -0.4002 -1.2330 -1.1667
   16RES   H159 6489   0.287   6.786   0.258 -0.9057 -1.6299 -0.2549
   16RES   H160 6490   0.128   6.805   0.183 -1.3230  1.7755  0.5151
   16RES   H161 6491   0.351   6.996   0.094  0.4475 -1.1768  0.5236
   16RES   H162 6492   0.214   6.952   0.002  0.0439 -0.8510 -0.6580
   16RES   H163 6493   0.441   6.753   0.085 -1.7774 -2.4816 -0.2076
   16RES   H164 6494   0.453   6.850   7.672  0.4017 -0.3520  1.6544
   16RES   H165 6495   0.260   6.733   7.576 -0.5286 -1.2341 -0.3186
   16RES   H166 6496   0.202   6.656   7.718 -0.9115  0.3692 -0.8728
   16RES   H167 6497   0.328   6.495   7.567  2.6999 -1.6312 -0.6408
   16RES   H168 6498   0.434   6.519   7.704 -0.3375  0.8675  0.9514
   16RES   H169 6499   0.466   6.612   7.563 -0.7148 -0.0883 -0.6728
   16RES   C170 6500   0.286   7.058   0.356 -0.4196 -0.0591 -0.5158
   16RES   C171 6501   0.262   7.207   0.340 -0.4551 -0.4446 -0.2627
   16RES   C172 6502   0.371   7.296   0.414  0.0828  0.0748 -0.7888
   16RES   C173 6503   0.512   7.317   0.359 -0.0889  0.0580 -0.5899
   16RES   C174 6504   0.594   7.411   0.448  0.3859 -0.8887 -0.0327
   16RES   C175 6505   0.664   7.342   0.565 -0.2555  0.4391 -0.1081
   16RES   C176 6506   0.734   7.430   0.664 -0.4034 -0.8513 -0.4518
   16RES   H177 6507   0.373   7.027   0.297 -0.6018  0.5997 -1.1360
   16RES   H178 6508   0.321   7.038   0.457 -0.2408  0.0078 -0.5628
   16RES   H179 6509   0.167   7.235   0.385 -0.3243 -1.0036  0.3709
   16RES   H180 6510   0.392   7.247   0.509 -0.7597  1.2073  0.0026
   16RES   H181 6511   0.328   7.394   0.435 -0.4882 -0.3338 -0.0102
   16RES   H182 6512   0.503   7.360   0.259 -1.3884  1.8128  0.2528
   16RES   H183 6513   0.564   7.222   0.347 -0.4589  0.0802 -2.5446
   16RES   H184 6514   0.531   7.494   0.479  3.8792  2.1423 -0.7745
   16RES   H185 6515   0.670   7.448   0.380  1.3219 -1.7513  0.5346
   16RES   H186 6516   0.726   7.256   0.540  0.5854  0.7622  0.8542
   16RES   H187 6517   0.582   7.291   0.615 -0.9131 -0.7444 -2.3049
   16RES   H188 6518   0.696   7.532   0.669 -0.9345 -0.9699 -1.8111
   16RES   H189 6519   0.836   7.452   0.632 -0.4258  2.5719  1.6312
   16RES   H190 6520   0.742   7.380   0.761  0.2395 -2.9025 -1.5240
   16RES   C191 6521   0.264   7.242   0.187 -0.0865 -0.0328  0.3934
   16RES   C192 6522   0.245   7.389   0.148 -0.6046 -0.1725  0.0945
   16RES   C193 6523   0.272   7.409   7.722  0.0747 -0.4732  0.4405
   16RES   C194 6524   0.157   7.359   7.624 -0.2657 -0.2562  0.1394
   16RES   C195 6525   0.174   7.427   7.486  0.6317 -0.3619 -0.1349
   16RES   C196 6526   0.055   7.412   7.388 -0.0463  0.3653  0.4333
   16RES   C197 6527   0.085   7.481   7.250 -0.7374 -0.0349  0.0082
   16RES   H198 6528   0.196   7.183   0.126  1.0343 -1.8849  0.9010
   16RES   H199 6529   0.361   7.213   0.147  0.5145  0.7041  1.2982
   16RES   H200 6530   0.315   7.456   0.197 -1.6864  1.6582 -0.8014
   16RES   H201 6531   0.365   7.362   7.692 -0.3653 -1.3604  0.4517
   16RES   H202 6532   0.280   7.518   7.717 -0.7197 -0.3510  1.5238
   16RES   H203 6533   0.054   7.375   7.657 -0.2719  2.0411 -0.9060
   16RES   H204 6534   0.171   7.251   7.617  0.1768 -0.2050  0.2390
   16RES   H205 6535   0.182   7.535   7.501  1.6809 -0.3395 -0.8834
   16RES   H206 6536   0.265   7.396   7.436  0.4940  0.3599 -0.8542
   16RES   H207 6537   7.692   7.447   7.439  0.3120 -1.5190  2.4265
   16RES   H208 6538   0.048   7.304   7.374  0.9452  0.5101 -1.3612
   16RES   H209 6539   0.005   7.450   7.184  0.4775  0.7385 -1.8667
   16RES   H210 6540   0.187   7.451   7.226 -0.1635  0.2376  2.0004
   16RES   H211 6541   0.082   7.589   7.269 -0.8735  0.2166 -1.4187
   16RES   C212 6542   0.101   7.435   0.194  0.1266  0.4103  0.2300
   16RES   C213 6543   0.076   7.588   0.203 -0.2402  0.1798  0.6287
   16RES   C214 6544   0.012   7.637   0.068 -0.9028  0.0057  0.3355
   16RES   C215 6545   7.712   0.060   0.056  0.4691  0.3419  0.0869
   16RES   C216 6546   7.702   0.104   7.635 -0.0889 -0.4271 -0.5037
   16RES   C217 6547   7.643   0.236   7.624  0.8507  0.6630  0.3027
   16RES   C218 6548   0.005   0.346   7.655 -0.8271 -1.0224  0.0029
   16RES   H219 6549   0.066   7.395   0.289  0.3271 -1.6944 -0.5593
   16RES   H220 6550   0.026   7.385   0.133 -0.1593  0.1418  0.7984
   16RES   H221 6551   0.176   7.633   0.205  1.0184 -2.4303 -0.8848
   16RES   H222 6552   0.081   7.610   7.715 -3.3767 -0.5980 -1.6417
   16RES   H223 6553   7.647   7.585   0.042  0.1394 -1.9884  0.5350
   16RES   H224 6554   0.075   0.112   0.090 -0.5486  3.6856 -2.1146
   16RES   H225 6555   7.633   0.102   0.118 -0.4909 -1.8498  0.3711
   16RES   H226 6556   0.068   0.084   7.581  0.5506 -1.6805  1.0323
   16RES   H227 6557   7.634   0.040   7.578  1.0361 -1.4891 -0.6856
   16RES   H228 6558   7.610   0.244   7.520  2.9567 -1.9681 -0.6150
   16RES   H229 6559   7.553   0.228   7.685  0.2608  0.4047 -0.5884
   16RES   H230 6560   0.069   0.375   7.572  0.6187 -1.7933  0.8346
   16RES   H231 6561   0.067   0.322   0.015  0.0023  0.6530 -0.0988
   16RES   H232 6562   7.674   0.437   7.670  0.3058 -0.0678 -1.3066
   16RES   C233 6563   7.715   7.629   0.321  0.0266 -0.2840  0.6295
   16RES   C234 6564   7.570   7.576   0.337  0.2439  0.4008 -0.1467
   16RES   C235 6565   7.539   7.561   0.484  0.0586  0.0883 -0.1162
   16RES   C236 6566   7.618   7.444   0.544 -0.0368  0.1235  0.6162
   16RES   C237 6567   7.631   7.471   0.700  0.4050  0.6206 -0.1332
   16RES   C238 6568   7.707   7.359   0.776  0.1284 -0.5216 -0.3751
   16RES   C239 6569   0.015   7.409   0.920 -0.1961 -0.0893 -0.6784
   16RES   H240 6570   7.702   0.010   0.335  2.0312  0.3444 -2.0040
   16RES   H241 6571   0.056   7.618   0.407  2.6179  5.1001 -0.5020
   16RES   H242 6572   7.556   7.481   0.286 -1.2390  1.0970 -1.0733
   16RES   H243 6573   7.436   7.539   0.514  0.3513 -0.1429  0.7286
   16RES   H244 6574   7.569   7.652   0.534  0.7631 -1.4033  2.2570
   16RES   H245 6575   7.713   7.411   0.503 -0.0498 -2.3808  2.5312
   16RES   H246 6576   7.556   7.356   0.527  0.9558 -0.6371  0.9013
   16RES   H247 6577   7.530   7.491   0.737  0.2733 -0.5636  0.1712
   16RES   H248 6578   7.691   7.558   0.726  0.2730  0.7112 -0.1335
   16RES   H249 6579   7.640   7.274   0.787  2.0507 -1.9898  0.0111
   16RES   H250 6580   0.066   7.326   0.718  0.2078 -2.3180  0.7389
   16RES   H251 6581   0.073   7.332   0.972  1.8468  0.4474 -2.1244
   16RES   H252 6582   0.087   7.490   0.911  0.0928 -0.4959 -2.0455
   16RES   H253 6583   7.653   7.446   0.971  2.2566  2.6274  1.7884
   16RES   C254 6584   7.460   7.669   0.289 -0.7692  0.4347  0.1611
   16RES   C255 6585   7.307   7.634   0.307  0.6257  0.0425  0.3602
   16RES   C256 6586   7.256   7.489   0.282 -0.4372  0.6224 -0.0310
   16RES   C257 6587   7.276   7.445   0.135  0.3607  0.0194 -0.0668
   16RES   C258 6588   7.189   7.318   0.103 -0.1468  0.5356  0.5258
   16RES   C259 6589   7.243   7.239   7.709 -0.3222  0.2511  0.5001
   16RES   C260 6590   7.187   7.100   7.693  0.4557 -0.4141 -0.4743
   16RES   H261 6591   7.473   7.676   0.181  0.8649 -0.4033  0.2826
   16RES   H262 6592   7.466   0.044   0.326 -1.3962  0.6146 -0.2352
   16RES   H263 6593   7.278   7.661   0.409  1.7037  2.3705  0.0932
   16RES   H264 6594   7.151   7.490   0.312 -0.7437 -1.0300 -0.9716
   16RES   H265 6595   7.301   7.419   0.352  2.8625 -0.0457 -2.6716
   16RES   H266 6596   7.238   7.528   0.076  0.4748 -0.0769 -0.2803
   16RES   H267 6597   7.381   7.439   0.105  0.1923  0.4338 -0.7545
   16RES   H268 6598   7.089   7.357   0.083 -0.0894  0.7654  0.6883
   16RES   H269 6599   7.181   7.246   0.184 -1.4769  0.8499  0.6823
   16RES   H270 6600   7.223   7.293   7.616 -0.1804 -0.1291  0.2527
   16RES   H271 6601   7.351   7.247   7.712 -0.3159  1.9693 -2.0642
   16RES   H272 6602   7.079   7.104   7.690  0.4232 -0.6786  0.1970
   16RES   H273 6603   7.226   7.054   7.602 -1.4056  0.1459 -1.5760
   16RES   H274 6604   7.227   7.041   0.049  1.6884  0.1674 -0.6390
   16RES   C275 6605   7.212   0.010   0.245  0.1631 -0.2173 -0.2666
   16RES   C276 6606   7.212   0.166   0.282 -0.5862  0.0235 -0.8393
   16RES   C277 6607   7.072   0.227   0.287 -0.5201  0.3248 -0.0389
   16RES   C278 6608   7.037   0.254   0.440 -0.0661 -0.3804 -0.2310
   16RES   C279 6609   7.102   0.375   0.505 -0.3801  0.3469  0.5729
   16RES   C280 6610   7.048   0.432   0.638 -0.4212 -0.8572 -0.1219
   16RES   C281 6611   7.132   0.547   0.694  0.1665 -0.5105  0.7913
   16RES   H282 6612   7.113   7.700   0.273  1.0650 -1.0602  1.9294
   16RES   H283 6613   7.227   0.000   0.138  1.1751 -0.6516 -0.0878
   16RES   H284 6614   7.260   0.179   0.379  0.2597 -0.4957 -1.1803
   16RES   H285 6615   7.062   0.317   0.225  0.6910  0.0349 -0.6583
   16RES   H286 6616   7.003   0.154   0.245  0.7837 -0.2962 -1.1226
   16RES   H287 6617   7.054   0.161   0.494  0.5539  0.4348  0.9974
   16RES   H288 6618   6.930   0.274   0.432  0.2501  2.7828  2.5538
   16RES   H289 6619   7.076   0.452   0.433  1.3909  0.6841  0.2504
   16RES   H290 6620   7.210   0.358   0.511 -0.4488  0.0588  1.0500
   16RES   H291 6621   6.950   0.471   0.612  0.6252  1.3435 -0.8848
   16RES   H292 6622   7.028   0.356   0.714 -0.2282 -2.6808 -1.8429
   16RES   H293 6623   7.161   0.596   0.602  2.5380 -1.5623  0.9537
   16RES   H294 6624   7.220   0.532   0.756 -1.0855 -0.4441  2.6418
   16RES   H295 6625   7.069   0.622   0.743 -1.2919 -0.1763 -1.5304
   16RES   C296 6626   7.309   0.234   0.185  0.0136  0.4188  0.2465
   16RES   C297 6627   7.374   0.371   0.228  0.5094 -0.2714  0.3407
   16RES   C298 6628   7.406   0.481   0.115  0.4516 -0.3352 -0.1225
   16RES   C299 6629   7.285   0.520   0.030 -0.0319 -0.0470 -0.0018
   16RES   C300 6630   7.163   0.581   0.110  0.3050  0.3034  0.1261
   16RES   C301 6631   7.034   0.601   0.037  0.5180  0.5074  0.8828
   16RES   C302 6632   6.956   0.474   0.004  0.0600  0.3468 -0.8310
   16RES   H303 6633   7.384   0.168   0.142 -0.1181 -1.0807  2.2179
   16RES   H304 6634   7.258   0.267   0.095 -1.1086 -2.4279 -0.2254
   16RES   H305 6635   7.297   0.418   0.289 -0.7123  0.6920 -1.8609
   16RES   H306 6636   7.454   0.566   0.163  0.6491  0.2934 -1.4082
   16RES   H307 6637   7.480   0.439   0.047  0.6985  0.3051 -0.2537
   16RES   H308 6638   7.241   0.436   7.703 -0.5296  0.8570 -1.0386
   16RES   H309 6639   7.321   0.590   7.681  2.6019 -1.2061  0.1274
   16RES   H310 6640   7.196   0.675   0.152  0.5110  0.4055 -0.2522
   16RES   H311 6641   7.140   0.522   0.199  0.2023  2.5527  1.6091
   16RES   H312 6642   6.965   0.658   0.099  0.5680  1.2089  0.2908
   16RES   H313 6643   7.043   0.666   7.677  1.2548 -0.3988  0.2564
   16RES   H314 6644   6.862   0.490   7.677 -0.9053 -0.4036  0.5843
   16RES   H315 6645   7.012   0.413   7.660 -1.7421 -0.9974 -1.1525
   16RES   H316 6646   6.932   0.416   0.093  2.9150  0.1036 -0.1866
   16RES   C317 6647   7.494   0.341   0.312  0.1686  0.3211  0.4158
   16RES   C318 6648   7.568   0.451   0.393  0.3183 -0.3770  0.1844
   16RES   C319 6649   7.474   0.544   0.484  0.2334  0.0152  0.8565
   16RES   C320 6650   7.544   0.679   0.513 -0.7173  0.2325 -0.1487
   16RES   C321 6651   7.455   0.794   0.577  0.3117 -0.3844 -0.2371
   16RES   C322 6652   7.518   0.925   0.630 -0.7692  0.2851 -0.1911
   16RES   C323 6653   7.607   0.911   0.756  0.7990 -0.2650  0.0378
   16RES   H324 6654   7.568   0.285   0.255 -1.1135 -1.0518  0.0619
   16RES   H325 6655   7.450   0.276   0.388 -0.0997 -0.8749 -0.7564
   16RES   H326 6656   7.618   0.509   0.315 -2.7512  3.0501  0.6204
   16RES   H327 6657   7.444   0.492   0.575 -1.9443 -1.5869 -0.7380
   16RES   H328 6658   7.385   0.573   0.428  1.5924  0.1129 -1.3348
   16RES   H329 6659   7.579   0.722   0.419  1.7470 -0.5022  0.4109
   16RES   H330 6660   7.630   0.654   0.575 -1.1006 -1.3084 -0.2235
   16RES   H331 6661   7.412   0.752   0.668  0.1285  0.5932  0.1335
   16RES   H332 6662   7.363   0.809   0.521  0.2232 -0.6308 -0.1581
   16RES   H333 6663   7.443   0.994   0.668 -0.1133  1.4572 -0.9718
   16RES   H334 6664   7.565   0.979   0.547  0.1410 -1.3124 -0.7409
   16RES   H335 6665   7.557   0.862   0.839  1.3437  0.3897  0.7661
   16RES   H336 6666   7.667   1.000   0.778 -1.2525  1.1369  0.0566
   16RES   H337 6667   7.685   0.836   0.739 -0.0215 -0.6859 -1.9849
   16RES   C338 6668   7.667   0.393   0.501 -0.3135  0.7643 -0.9674
   16RES   C339 6669   0.039   0.283   0.449 -0.5310  0.5902  0.6671
   16RES   C340 6670   0.061   0.154   0.538  0.3556  0.4282 -0.4998
   16RES   C341 6671   0.138   0.172   0.670 -0.5855  0.7077 -0.4531
   16RES   C342 6672   0.177   0.044   0.740 -0.4068 -0.8528 -0.3425
   16RES   C343 6673   0.282   7.680   0.673  0.1453  0.2452 -0.0024
   16RES   C344 6674   0.353   7.581   0.763 -0.8935  0.0935  0.6112
   16RES   H345 6675   7.605   0.348   0.578 -0.9513  1.0166 -1.3335
   16RES   H346 6676   7.723   0.474   0.548  2.1362 -0.6655 -1.3373
   16RES   H347 6677   0.007   0.238   0.355  1.9021 -1.1161  0.6178
   16RES   H348 6678   7.687   0.113   0.549  0.4281  0.2800 -0.3865
   16RES   H349 6679   0.120   0.084   0.479  0.3034  0.0925 -0.1578
   16RES   H350 6680   0.084   0.235   0.740  0.0547  0.2151  0.5038
   16RES   H351 6681   0.230   0.227   0.651 -0.9702  1.9109  1.1244
   16RES   H352 6682   0.229   0.065   0.833 -2.1345 -1.7035  0.8247
   16RES   H353 6683   0.090   7.712   0.768 -0.1471 -0.3268  1.6696
   16RES   H354 6684   0.228   7.630   0.592  1.7061 -1.0283 -0.2810
   16RES   H355 6685   0.360   0.010   0.622 -1.5817  2.5596 -0.1598
   16RES   H356 6686   0.384   7.631   0.855 -0.9168  0.7106  0.2890
   16RES   H357 6687   0.440   7.534   0.718 -1.0124  0.6551 -0.2173
   16RES   H358 6688   0.289   7.499   0.792 -0.9012  0.8806  2.9429
   16RES   C359 6689   0.168   0.362   0.408  0.4239  0.5465  0.6290
   16RES   C360 6690   0.300   0.291   0.366 -0.5984 -0.1306  0.8467
   16RES   C361 6691   0.298   0.195   0.243  0.7373  0.3864  0.5413
   16RES   C362 6692   0.413   0.100   0.244 -0.1416 -0.1987 -0.0215
   16RES   C363 6693   0.451   0.050   0.105  0.1174 -0.0550 -0.1276
   16RES   C364 6694   0.579   7.693   0.104 -0.5413 -0.1172 -0.4251
   16RES   C365 6695   0.706   0.039   0.099  0.0025 -0.0824  0.5859
   16RES   H366 6696   0.194   0.413   0.501  0.1653  1.2851  0.3013
   16RES   H367 6697   0.135   0.439   0.338  1.4101  1.4114  1.1057
   16RES   H368 6698   0.326   0.227   0.451  1.2986  0.2284  0.5726
   16RES   H369 6699   0.211   0.130   0.249 -0.6793  2.0715 -1.0233
   16RES   H370 6700   0.292   0.245   0.146 -0.1008 -1.2854 -0.2909
   16RES   H371 6701   0.502   0.132   0.299 -0.3279  0.8056 -0.2902
   16RES   H372 6702   0.386   0.015   0.306 -3.7085  1.4365  0.7503
   16RES   H373 6703   0.373   7.711   0.066  1.4596 -2.1691  0.7232
   16RES   H374 6704   0.454   0.136   0.038  2.0066 -0.0105  0.0108
   16RES   H375 6705   0.576   7.613   0.177  0.4278 -1.0800 -1.4032
   16RES   H376 6706   0.574   7.651   0.003 -0.6987 -0.5100 -0.2535
   16RES   H377 6707   0.791   7.698   0.111  1.1550  1.1349 -0.6559
   16RES   H378 6708   0.720   0.083   0.001  2.7467  0.4143  1.1601
   16RES   H379 6709   0.721   0.103   0.186  0.9208 -0.6377  0.8412
   16RES   C380 6710   0.418   0.394   0.348  0.2625 -0.1468 -0.0214
   16RES   C381 6711   0.468   0.465   0.468 -0.0675 -0.6429  0.3653
   16RES   C382 6712   0.517   0.379   0.588  0.5157 -0.0132  0.0020
   16RES   C383 6713   0.631   0.285   0.553 -0.0783 -0.2139  0.5394
   16RES   C384 6714   0.637   0.164   0.644  0.0511 -0.5982  0.2129
   16RES   C385 6715   0.699   0.211   0.780  0.0504 -0.3111 -0.6584
   16RES   C386 6716   0.849   0.241   0.789  0.2672  0.2652 -0.1686
   16RES   H387 6717   0.509   0.343   0.315  0.6784  0.9716 -0.6064
   16RES   H388 6718   0.369   0.457   0.273 -2.1428  1.7522  3.0500
   16RES   H389 6719   0.374   0.507   0.504  0.1554  1.0675 -1.0084
   16RES   H390 6720   0.436   0.325   0.635  2.0947 -1.5517  1.0053
   16RES   H391 6721   0.553   0.439   0.672  2.1983  0.3035 -0.9136
   16RES   H392 6722   0.612   0.236   0.458  1.3254  1.3889 -0.5905
   16RES   H393 6723   0.715   0.353   0.539 -0.2090 -0.0513  0.5563
   16RES   H394 6724   0.540   0.124   0.676 -0.0761  0.2101  0.8454
   16RES   H395 6725   0.686   0.077   0.600 -0.4752 -1.5775  1.5118
   16RES   H396 6726   0.671   0.131   0.849 -0.5072 -0.3648 -0.9509
   16RES   H397 6727   0.635   0.280   0.835 -0.2438 -0.8064 -0.3719
   16RES   H398 6728   0.877   0.297   0.700 -2.2107 -2.2108 -2.6126
   16RES   H399 6729   0.905   0.148   0.780  0.9535  0.7215 -0.6901
   16RES   H400 6730   0.881   0.291   0.880 -0.7126 -0.2302  0.4616
   16RES   C401 6731   0.566   0.582   0.442 -0.2803  0.5866  0.1336
   16RES   C402 6732   0.505   0.690   0.347 -0.3059 -0.0613 -0.1240
   16RES   C403 6733   0.586   0.818   0.327  0.6485  0.0931 -0.1287
   16RES   C404 6734   0.499   0.935   0.278  0.5450  0.1414 -0.7164
   16RES   C405 6735   0.445   0.908   0.141 -0.4384 -1.1361  0.0184
   16RES   C406 6736   0.365   1.024   0.076 -0.2021 -0.8324  0.3584
   16RES   C407 6737   0.296   0.997   7.667  0.2175 -0.2015 -0.0960
   16RES   H408 6738   0.659   0.549   0.394  0.1362 -0.6333  1.7240
   16RES   H409 6739   0.591   0.629   0.537  1.4064 -1.8072  0.9468
   16RES   H410 6740   0.402   0.714   0.375 -0.3456  0.4274 -0.6852
   16RES   H411 6741   0.671   0.807   0.259  2.1622  0.4430  1.6669
   16RES   H412 6742   0.623   0.835   0.428  0.6046 -0.7116  0.0257
   16RES   H413 6743   0.552   1.027   0.304 -0.7379  0.9052 -0.7100
   16RES   H414 6744   0.412   0.940   0.344  1.6159 -0.3580  0.7454
   16RES   H415 6745   0.524   0.880   0.071  0.0735  3.2798 -1.2950
   16RES   H416 6746   0.378   0.822   0.149 -1.6343 -0.3724 -1.3223
   16RES   H417 6747   0.282   1.057   0.138 -1.2554 -0.6177 -1.1519
   16RES   H418 6748   0.426   1.115   0.068  1.1349 -1.7457  0.0509
   16RES   H419 6749   0.372   1.004   7.590  1.1092 -1.6855  0.6332
   16RES   H420 6750   0.226   1.080   7.653  1.8782  1.4481  1.0534
   16RES   H421 6751   0.241   0.903   7.664  0.4715 -0.4820  2.6651
   16RES   H422 6752   0.506   0.643   0.249  2.2088  1.2104 -0.7659
   17RES     C1 6753   3.659   0.963   5.800  1.0528 -0.0178  0.1098
   17RES     C2 6754   3.552   0.976   5.694  0.0672  0.0065  0.2056
   17RES     C3 6755   3.442   0.870   5.719 -0.8302 -0.3111 -0.0431
   17RES     C4 6756   3.375   0.853   5.860  0.1973  0.2700 -0.4456
   17RES     C5 6757   3.244   0.775   5.862 -0.1637 -0.4691  0.5851
   17RES     C6 6758   3.189   0.747   6.007  0.2913 -0.6803 -0.3712
   17RES     C7 6759   3.174   0.877   6.096  0.1079 -0.3915  0.3244
   17RES     H8 6760   3.689   0.862   5.829 -0.8043 -1.0380 -1.4548
   17RES     H9 6761   3.615   1.015   5.885  2.2286  3.1566 -1.1567
   17RES    H10 6762   3.499   1.071   5.702 -0.0294 -0.0023 -0.2965
   17RES    H11 6763   3.375   0.871   5.633  0.5829  1.8996 -1.1776
   17RES    H12 6764   3.484   0.770   5.714 -0.4874 -0.2411  1.3840
   17RES    H13 6765   3.450   0.808   5.924 -0.5406  1.3404  1.2216
   17RES    H14 6766   3.356   0.957   5.888 -0.6687 -0.1912  0.6981
   17RES    H15 6767   3.265   0.685   5.805 -0.1030 -2.3431  3.4825
   17RES    H16 6768   3.173   0.836   5.806  1.1086 -0.1928 -0.7736
   17RES    H17 6769   3.253   0.681   6.065  0.1144  0.7755  1.5438
   17RES    H18 6770   3.094   0.694   5.998 -0.4655  0.9470 -2.5056
   17RES    H19 6771   3.136   0.957   6.031  1.4176 -0.2757 -0.3098
   17RES    H20 6772   3.268   0.919   6.130  0.8730 -2.8034  1.3033
   17RES    H21 6773   3.101   0.854   6.173 -2.5638 -0.9411 -2.2465
   17RES    H22 6774   3.749   1.021   5.776  1.1839  1.4495  3.7459
   17RES    C23 6775   3.621   0.959   5.558 -0.1844  0.3599  0.1915
   17RES    C24 6776   3.562   1.039   5.441 -0.7281 -0.1450  0.3664
   17RES    C25 6777   3.614   0.982   5.301 -0.0637 -0.0559 -0.1998
   17RES    C26 6778   3.767   0.948   5.297 -0.2508 -0.1189 -0.3797
   17RES    C27 6779   3.821   0.918   5.156  0.0290 -0.1723  0.1310
   17RES    C28 6780   3.960   0.852   5.157  1.0484 -0.6994  0.5128
   17RES    C29 6781   4.070   0.926   5.236  0.5053 -0.7900 -0.6688
   17RES    H30 6782   3.728   0.977   5.552 -0.1714 -0.3138 -2.3660
   17RES    H31 6783   3.618   0.850   5.550 -0.0682  0.2785  1.2077
   17RES    H32 6784   3.454   1.029   5.433 -0.4629 -2.6556 -0.4462
   17RES    H33 6785   3.586   1.052   5.222  3.3320  1.2512 -0.3184
   17RES    H34 6786   3.561   0.887   5.290  0.5137 -0.6735  2.2742
   17RES    H35 6787   3.807   0.874   5.366  0.4491  2.2639  1.8193
   17RES    H36 6788   3.827   1.030   5.336 -0.9062  0.3022 -0.2530
   17RES    H37 6789   3.821   1.012   5.100  0.8089 -0.0266  0.3671
   17RES    H38 6790   3.758   0.846   5.103 -0.5253 -0.6442  1.4240
   17RES    H39 6791   3.997   0.852   5.054  0.1761  2.9884  0.1285
   17RES    H40 6792   3.949   0.752   5.199  2.3174 -1.4457 -0.8809
   17RES    H41 6793   4.081   1.025   5.191  3.3653  0.4261  2.4778
   17RES    H42 6794   4.054   0.925   5.344 -1.3229  0.2158 -0.9112
   17RES    H43 6795   4.160   0.869   5.213 -0.3060 -1.8444 -1.2770
   17RES    C44 6796   3.597   1.186   5.461 -0.1812  0.5529 -0.1630
   17RES    C45 6797   3.505   1.287   5.388  0.2007 -0.7656 -0.2759
   17RES    C46 6798   3.373   1.293   5.462  0.3715 -0.0008 -0.2167
   17RES    C47 6799   3.249   1.292   5.368  0.4150 -0.0775 -0.2623
   17RES    C48 6800   3.112   1.283   5.430 -0.4574 -0.8550  0.0867
   17RES    C49 6801   2.997   1.279   5.329  0.7829  0.1844 -0.0910
   17RES    C50 6802   2.857   1.254   5.409  0.3749  0.0481 -0.2765
   17RES    H51 6803   3.701   1.190   5.431  0.6752 -1.3483  2.3995
   17RES    H52 6804   3.610   1.212   5.566  3.2441  2.1756 -0.9259
   17RES    H53 6805   3.485   1.246   5.289  1.5304 -3.1012  0.3713
   17RES    H54 6806   3.373   1.386   5.519 -1.7368  1.0465 -1.8407
   17RES    H55 6807   3.345   1.213   5.531 -1.7609  1.8055  1.0936
   17RES    H56 6808   3.258   1.378   5.301 -3.6594 -0.5834 -1.5731
   17RES    H57 6809   3.262   1.212   5.295  1.1825  1.0417 -1.3792
   17RES    H58 6810   3.111   1.370   5.495 -0.4910 -0.8432  0.0705
   17RES    H59 6811   3.107   1.193   5.491 -0.2663 -1.0421 -0.1744
   17RES    H60 6812   3.007   1.198   5.257  1.7191  0.5884 -0.4186
   17RES    H61 6813   2.982   1.373   5.275 -1.8389 -0.5659 -0.7363
   17RES    H62 6814   2.783   1.257   5.329 -0.8307  1.6871  0.8865
   17RES    H63 6815   2.839   1.321   5.492 -0.8342  3.7324 -3.3814
   17RES    H64 6816   2.848   1.151   5.443  0.2098  0.2941  0.4333
   17RES    C65 6817   3.587   1.423   5.367 -0.0324 -0.1498  0.1528
   17RES    C66 6818   3.533   1.509   5.253  0.2029 -0.6210 -0.0975
   17RES    C67 6819   3.562   1.445   5.119 -0.4792  0.7330  0.0221
   17RES    C68 6820   3.489   1.507   5.003  0.1621  0.7021  0.6063
   17RES    C69 6821   3.335   1.466   5.003 -0.4591 -0.0869 -0.1802
   17RES    C70 6822   3.271   1.489   4.868 -0.3914  0.4910 -0.4814
   17RES    C71 6823   3.118   1.445   4.862 -1.2226  0.5618  0.4745
   17RES    H72 6824   3.595   1.478   5.460 -2.1205  0.8375 -0.2200
   17RES    H73 6825   3.690   1.398   5.340 -0.1207  1.1518 -1.4467
   17RES    H74 6826   3.425   1.500   5.264  0.5609 -2.4259  2.3698
   17RES    H75 6827   3.667   1.447   5.090 -0.5008  1.0399 -0.0451
   17RES    H76 6828   3.530   1.341   5.124 -1.9111  1.1066 -1.0772
   17RES    H77 6829   3.502   1.615   5.001  1.4165  0.5389 -0.9218
   17RES    H78 6830   3.545   1.475   4.915 -1.2618  1.7675 -0.7176
   17RES    H79 6831   3.323   1.361   5.027  1.1684 -0.3856 -0.5848
   17RES    H80 6832   3.279   1.518   5.080  1.1197  0.8333  0.3772
   17RES    H81 6833   3.324   1.441   4.785 -0.8810 -0.3572 -0.3060
   17RES    H82 6834   3.279   1.597   4.854  0.0845  0.5265  0.0568
   17RES    H83 6835   3.060   1.521   4.914 -1.6700 -0.3865  1.3843
   17RES    H84 6836   3.089   1.424   4.759  3.8309 -1.3187 -0.6957
   17RES    H85 6837   3.092   1.356   4.920  1.2577 -1.4197 -1.3709
   17RES    C86 6838   3.582   1.663   5.254  0.2245 -0.8531 -0.0748
   17RES    C87 6839   3.468   1.769   5.233 -0.0751  0.4855 -0.9307
   17RES    C88 6840   3.397   1.806   5.372  0.0370 -0.6665  0.0884
   17RES    C89 6841   3.322   1.698   5.451  0.2295 -0.1729 -0.1455
   17RES    C90 6842   3.244   1.763   5.567 -0.5700 -0.5929  0.7448
   17RES    C91 6843   3.198   1.668   5.670 -0.3295 -0.3588 -0.2141
   17RES    C92 6844   3.294   1.650   5.786 -0.6778 -0.7103 -0.0949
   17RES    H93 6845   3.621   1.690   5.352 -2.1357  0.1937  0.6237
   17RES    H94 6846   3.667   1.678   5.188  0.6071  0.1426  0.6203
   17RES    H95 6847   3.389   1.711   5.184 -1.3748  0.1614  1.4606
   17RES    H96 6848   3.462   1.859   5.441 -0.6555  0.5551 -0.1745
   17RES    H97 6849   3.324   1.884   5.351 -1.7737 -2.6645 -1.2468
   17RES    H98 6850   3.264   1.638   5.381 -0.9599  0.2926  0.4244
   17RES    H99 6851   3.400   1.628   5.481 -0.3693 -0.2721  1.1970
   17RES   H100 6852   3.166   1.826   5.526 -0.2965 -0.5898  0.2256
   17RES   H101 6853   3.308   1.835   5.616 -0.7453  0.0728  0.0003
   17RES   H102 6854   3.102   1.703   5.706 -0.6488  0.4378 -1.8047
   17RES   H103 6855   3.180   1.574   5.618  1.7871 -0.8862 -0.0694
   17RES   H104 6856   3.265   1.569   5.853 -0.7965  0.2003  0.9591
   17RES   H105 6857   3.308   1.743   5.841 -0.6009 -0.2616 -0.8631
   17RES   H106 6858   3.391   1.620   5.745 -0.2450  0.4018  0.1232
   17RES   C107 6859   3.509   1.892   5.140 -0.6621 -0.0166 -0.2085
   17RES   C108 6860   3.405   1.983   5.074 -0.5677  0.7032  0.2217
   17RES   C109 6861   3.469   2.114   5.017 -0.5597  0.7532  0.4026
   17RES   C110 6862   3.533   2.211   5.119  0.5849 -0.1498 -0.5440
   17RES   C111 6863   3.559   2.347   5.061  0.3342 -0.9060 -0.5002
   17RES   C112 6864   3.625   2.448   5.162  0.0980 -0.1992 -0.2690
   17RES   C113 6865   3.628   2.587   5.102 -0.6995  0.2361  0.2524
   17RES   H114 6866   3.560   1.841   5.059 -0.9889 -1.7924  0.6859
   17RES   H115 6867   3.579   1.957   5.192 -1.2655 -0.0102  0.6006
   17RES   H116 6868   3.352   2.021   5.161  0.1932 -0.0884  1.0518
   17RES   H117 6869   3.385   2.168   4.974 -1.4555 -0.0400  1.1217
   17RES   H118 6870   3.534   2.102   4.931 -1.9275  0.9867 -0.6761
   17RES   H119 6871   3.472   2.221   5.208  1.7860 -2.1438  0.5381
   17RES   H120 6872   3.627   2.169   5.156  0.9373  1.9123  0.9726
   17RES   H121 6873   3.463   2.383   5.024  0.7149 -0.0048 -0.6264
   17RES   H122 6874   3.626   2.336   4.976  0.2162  2.1785 -1.0427
   17RES   H123 6875   3.572   2.441   5.257 -0.9857 -0.7801 -0.9087
   17RES   H124 6876   3.728   2.416   5.177  0.2429  0.5351  0.3044
   17RES   H125 6877   3.648   2.666   5.175 -0.2455 -0.7623  1.2140
   17RES   H126 6878   3.695   2.582   5.016  0.4369 -0.8958  1.1836
   17RES   H127 6879   3.530   2.603   5.057 -0.3687  0.2582 -0.4728
   17RES   C128 6880   3.320   1.907   4.970  0.0688  0.3455 -0.4019
   17RES   C129 6881   3.181   1.973   4.944  0.6985  0.7976  0.7658
   17RES   C130 6882   3.092   1.981   5.069  0.6078  0.2458 -0.1265
   17RES   C131 6883   3.055   1.843   5.130  0.2592  0.3167 -0.4560
   17RES   C132 6884   2.938   1.850   5.223 -0.2362  0.6857  0.1264
   17RES   C133 6885   2.900   1.721   5.290  0.1693  0.7531 -0.0835
   17RES   C134 6886   2.770   1.722   5.375  0.1794  0.1302 -0.3220
   17RES   H135 6887   3.371   1.888   4.875 -0.3214 -1.7716 -0.2093
   17RES   H136 6888   3.287   1.811   5.010 -2.7284  0.9318 -1.2179
   17RES   H137 6889   3.206   2.078   4.938  2.8361  0.3272  1.2435
   17RES   H138 6890   2.998   2.033   5.049  1.4928  2.3754  1.0082
   17RES   H139 6891   3.133   2.039   5.151  0.0096 -0.2600  0.5324
   17RES   H140 6892   3.138   1.818   5.196  0.2473 -0.0637 -0.5861
   17RES   H141 6893   3.046   1.762   5.059 -2.9344 -0.1138  0.3533
   17RES   H142 6894   2.849   1.878   5.166  0.3585 -1.3132 -1.8580
   17RES   H143 6895   2.953   1.939   5.285 -0.3416  1.3873 -0.8378
   17RES   H144 6896   2.982   1.699   5.358  1.0665  1.8839 -0.7833
   17RES   H145 6897   2.908   1.636   5.222  0.2059  0.2824  0.5043
   17RES   H146 6898   2.792   1.804   5.444 -1.0754  0.8220 -0.7275
   17RES   H147 6899   2.766   1.633   5.438 -0.8568  0.8257  0.6385
   17RES   H148 6900   2.677   1.729   5.319  0.2083  2.0597 -0.1594
   17RES   C149 6901   3.108   1.916   4.818 -0.3033  0.1757  0.0545
   17RES   C150 6902   3.185   1.937   4.683 -0.3590 -0.3579 -0.1953
   17RES   C151 6903   3.170   2.087   4.628 -0.0379  0.3773 -0.0727
   17RES   C152 6904   3.231   2.199   4.708  0.0237 -0.1806 -0.1473
   17RES   C153 6905   3.249   2.331   4.632  0.1981  0.8404 -0.6831
   17RES   C154 6906   3.323   2.427   4.726 -1.1860  0.6140  0.0638
   17RES   C155 6907   3.354   2.562   4.658 -0.0932 -0.1049 -0.4403
   17RES   H156 6908   3.090   1.808   4.826  1.4208 -0.1178  0.1187
   17RES   H157 6909   3.003   1.941   4.804 -0.7209 -1.4008  0.1805
   17RES   H158 6910   3.290   1.909   4.688 -0.4306 -0.8136 -1.0923
   17RES   H159 6911   3.213   2.101   4.529 -0.3384 -0.1457 -0.2792
   17RES   H160 6912   3.066   2.107   4.601  0.2199  0.1739 -1.2601
   17RES   H161 6913   3.324   2.157   4.746  0.1361  0.6345  0.4767
   17RES   H162 6914   3.160   2.222   4.787 -0.0187  0.8002 -0.4636
   17RES   H163 6915   3.150   2.365   4.603  0.3811  1.2304 -0.8453
   17RES   H164 6916   3.303   2.309   4.540  0.5217 -1.7757  0.0756
   17RES   H165 6917   3.417   2.385   4.763 -0.2763  3.1622  0.7583
   17RES   H166 6918   3.259   2.449   4.811  2.5391  1.1600  2.8809
   17RES   H167 6919   3.268   2.629   4.652  0.4380  0.5472 -0.7839
   17RES   H168 6920   3.394   2.559   4.557  1.6202  1.2498  0.1792
   17RES   H169 6921   3.424   2.623   4.716 -0.8170 -0.0649  0.4057
   17RES   C170 6922   3.123   1.839   4.577 -0.0596  0.2359 -0.2076
   17RES   C171 6923   3.222   1.805   4.461 -1.3027  0.7347 -0.4832
   17RES   C172 6924   3.333   1.703   4.510 -0.6987 -0.0048 -0.6039
   17RES   C173 6925   3.441   1.674   4.399 -0.1611  0.0172  0.1795
   17RES   C174 6926   3.511   1.546   4.439  0.3138  0.2068  0.1547
   17RES   C175 6927   3.641   1.517   4.353  0.3985  0.0328  0.0411
   17RES   C176 6928   3.730   1.414   4.418  0.5719 -0.4709 -0.4927
   17RES   H177 6929   3.031   1.888   4.545  0.3239 -0.7027 -2.8975
   17RES   H178 6930   3.088   1.748   4.624  2.1028 -0.4239  0.1702
   17RES   H179 6931   3.267   1.900   4.432 -1.3314  0.7885 -0.3550
   17RES   H180 6932   3.282   1.613   4.542 -0.8499  0.2162 -0.2151
   17RES   H181 6933   3.375   1.738   4.604  1.9893  1.6518 -2.3594
   17RES   H182 6934   3.502   1.765   4.403  1.1229 -0.8367  0.1148
   17RES   H183 6935   3.409   1.672   4.295  1.5772 -0.6312 -0.3559
   17RES   H184 6936   3.445   1.461   4.425  3.1301 -2.1617  0.7373
   17RES   H185 6937   3.542   1.540   4.543  0.9681  0.5385 -0.0198
   17RES   H186 6938   3.705   1.603   4.332  0.8129 -0.4339 -0.6482
   17RES   H187 6939   3.607   1.496   4.252  1.4794 -0.2654 -0.2632
   17RES   H188 6940   3.690   1.314   4.404 -0.5794 -0.3869  1.9006
   17RES   H189 6941   3.741   1.434   4.525  1.4577  0.0865 -0.6876
   17RES   H190 6942   3.829   1.421   4.373 -0.7075  0.5193 -3.2722
   17RES   C191 6943   3.141   1.759   4.333  0.6956  0.8293  0.0204
   17RES   C192 6944   3.189   1.826   4.207 -0.2552 -0.1865 -0.2947
   17RES   C193 6945   3.137   1.760   4.078  0.0175  0.6228 -0.4100
   17RES   C194 6946   3.205   1.620   4.055  0.4165  0.3116  0.0220
   17RES   C195 6947   3.180   1.546   3.923 -0.7594  0.3788  0.4987
   17RES   C196 6948   3.251   1.406   3.931  0.1465  0.2277 -0.0657
   17RES   C197 6949   3.257   1.337   3.792  0.4194  1.1948 -0.3438
   17RES   H198 6950   3.033   1.771   4.347  0.4097 -0.5998 -0.7501
   17RES   H199 6951   3.140   1.650   4.345 -0.1068  0.6962 -1.2008
   17RES   H200 6952   3.297   1.837   4.216 -0.4040  0.2857  1.1146
   17RES   H201 6953   3.168   1.828   3.999 -0.1673 -1.6665 -2.5402
   17RES   H202 6954   3.030   1.741   4.076 -0.0633  1.0566 -0.2861
   17RES   H203 6955   3.178   1.547   4.131  0.6806 -2.4302 -2.4148
   17RES   H204 6956   3.311   1.630   4.078  0.3880 -1.4470  0.9862
   17RES   H205 6957   3.072   1.547   3.907 -0.3531  1.7416 -2.4527
   17RES   H206 6958   3.224   1.606   3.843  0.1653 -0.0356  0.6842
   17RES   H207 6959   3.205   1.349   4.012  1.2464 -0.6834 -0.0729
   17RES   H208 6960   3.351   1.425   3.968 -0.6767  0.8311  1.9514
   17RES   H209 6961   3.310   1.243   3.789 -1.6907  0.0009 -1.3879
   17RES   H210 6962   3.298   1.401   3.714 -0.1872  0.9251 -0.8859
   17RES   H211 6963   3.153   1.307   3.779  0.1033  2.0021  0.2530
   17RES   C212 6964   3.148   1.983   4.209 -0.4623  0.2105 -0.6330
   17RES   C213 6965   3.250   2.079   4.148 -1.0645 -0.6382  0.2382
   17RES   C214 6966   3.185   2.207   4.086  0.1056  0.0669  0.0905
   17RES   C215 6967   3.091   2.181   3.963  0.7006  0.4739  0.2337
   17RES   C216 6968   3.047   2.308   3.899  0.5505  0.4181 -0.3239
   17RES   C217 6969   3.149   2.368   3.795  0.0045 -0.0097 -0.6281
   17RES   C218 6970   3.128   2.519   3.782 -0.2547  0.2956 -0.3347
   17RES   H219 6971   3.136   2.020   4.311 -1.9643  0.1245 -0.7550
   17RES   H220 6972   3.048   2.009   4.172 -0.0904  0.7506 -1.2729
   17RES   H221 6973   3.297   2.026   4.065 -1.1504  0.6059 -0.6296
   17RES   H222 6974   3.116   2.247   4.160  0.3791  0.4469  0.1417
   17RES   H223 6975   3.273   2.269   4.069 -0.7418  1.0066 -1.0396
   17RES   H224 6976   3.001   2.132   3.999  1.1408 -0.3360  0.2371
   17RES   H225 6977   3.140   2.115   3.892 -1.2286  1.8538 -2.4823
   17RES   H226 6978   2.952   2.291   3.847 -0.1138  0.9958  0.6627
   17RES   H227 6979   3.018   2.389   3.966 -0.5012 -0.0538 -0.1973
   17RES   H228 6980   3.254   2.346   3.817 -0.1379  1.0888  1.2603
   17RES   H229 6981   3.144   2.332   3.692  1.2785  3.3700 -1.9527
   17RES   H230 6982   3.130   2.572   3.877 -0.0295  0.8517 -0.6486
   17RES   H231 6983   3.033   2.547   3.736 -1.5163 -0.4586  1.7363
   17RES   H232 6984   3.210   2.557   3.721  0.3386 -1.0369 -0.3721
   17RES   C233 6985   3.367   2.127   4.247 -0.2863  0.3201  0.5222
   17RES   C234 6986   3.510   2.131   4.187 -0.8450  0.1751  0.2015
   17RES   C235 6987   3.619   2.198   4.273  0.1359 -0.1770  0.6614
   17RES   C236 6988   3.622   2.148   4.421  0.5008 -0.0162 -0.5985
   17RES   C237 6989   3.747   2.196   4.496  0.4141 -0.0778 -0.3386
   17RES   C238 6990   3.841   2.082   4.527 -0.4854 -0.2212  0.0143
   17RES   C239 6991   3.954   2.122   4.628  0.5310 -0.5462 -0.1354
   17RES   H240 6992   3.375   2.068   4.338  0.3758  1.5349  1.2704
   17RES   H241 6993   3.345   2.225   4.288  2.3359  1.8856 -1.6426
   17RES   H242 6994   3.504   2.195   4.099  0.0722  0.5404  0.3990
   17RES   H243 6995   3.599   2.305   4.269 -1.3210 -0.5072 -1.1402
   17RES   H244 6996   3.716   2.173   4.230  0.1474 -0.1123  0.6502
   17RES   H245 6997   3.628   2.039   4.424 -0.2822 -0.0212  0.9044
   17RES   H246 6998   3.532   2.178   4.474 -0.3672 -2.7613 -0.4412
   17RES   H247 6999   3.733   2.253   4.588  1.0832  0.4929 -0.5851
   17RES   H248 7000   3.804   2.258   4.426 -0.1294  3.2564  2.0742
   17RES   H249 7001   3.790   1.996   4.571  2.2928 -1.7042  0.4361
   17RES   H250 7002   3.891   2.049   4.436 -0.0700  2.4528 -0.7789
   17RES   H251 7003   3.989   2.222   4.603 -1.0214  0.2549  0.8021
   17RES   H252 7004   3.897   2.128   4.721  0.4785  1.9655 -0.2847
   17RES   H253 7005   4.029   2.043   4.631  2.0920  0.9008 -0.3319
   17RES   C254 7006   3.561   1.990   4.123 -0.2565  0.4055  0.6840
   17RES   C255 7007   3.579   1.999   3.968  0.6299  0.5452 -0.3064
   17RES   C256 7008   3.561   1.858   3.903  0.3653 -0.8156  0.4433
   17RES   C257 7009   3.662   1.746   3.933  0.9202 -0.2469 -0.5823
   17RES   C258 7010   3.595   1.609   3.917 -0.9716 -0.8021  0.6749
   17RES   C259 7011   3.687   1.496   3.951 -0.0592 -0.3365 -0.5565
   17RES   C260 7012   3.619   1.358   3.941 -0.1964  0.0725  0.0894
   17RES   H261 7013   3.494   1.910   4.155 -0.2087  0.1982  0.2635
   17RES   H262 7014   3.657   1.963   4.167  0.3417 -0.5793 -1.1674
   17RES   H263 7015   3.492   2.057   3.936  1.4928  3.2215  1.9583
   17RES   H264 7016   3.554   1.872   3.795 -2.5164 -1.2717  0.5214
   17RES   H265 7017   3.462   1.815   3.921 -0.1093 -0.2809 -0.7797
   17RES   H266 7018   3.753   1.758   3.875  0.6337 -1.1570 -1.2490
   17RES   H267 7019   3.688   1.751   4.038 -2.4201 -3.0070  0.4866
   17RES   H268 7020   3.557   1.597   3.815 -0.8001  1.0320  0.3655
   17RES   H269 7021   3.502   1.612   3.973 -0.2759  0.8834  1.7850
   17RES   H270 7022   3.771   1.488   3.882  0.0868  2.2136 -0.7011
   17RES   H271 7023   3.726   1.499   4.052 -1.6589 -1.2310  0.1019
   17RES   H272 7024   3.696   1.281   3.940  1.6540  1.7895  2.4944
   17RES   H273 7025   3.550   1.346   4.025 -1.2592 -0.3542 -0.8396
   17RES   H274 7026   3.565   1.348   3.847  1.4817 -2.5881 -0.6346
   17RES   C275 7027   3.713   2.069   3.938 -0.0199  0.3685 -0.0758
   17RES   C276 7028   3.732   2.108   3.796  0.1927 -0.0851  0.5967
   17RES   C277 7029   3.876   2.158   3.763 -0.5027  0.4614 -0.2131
   17RES   C278 7030   3.970   2.039   3.737  0.3180 -0.2268  0.3267
   17RES   C279 7031   4.091   2.075   3.653 -0.4498  0.5662 -1.0273
   17RES   C280 7032   4.210   1.970   3.637 -0.3481 -0.2757  0.1860
   17RES   C281 7033   4.296   2.031   3.527 -0.4650 -0.3402  0.1717
   17RES   H282 7034   3.793   1.998   3.962 -0.4189 -0.1746 -0.3257
   17RES   H283 7035   3.709   2.154   4.006 -0.5807  1.8886 -1.9897
   17RES   H284 7036   3.706   2.029   3.725  1.6943  1.7765 -2.1015
   17RES   H285 7037   3.887   2.232   3.684  1.2853  0.8271  0.3642
   17RES   H286 7038   3.916   2.208   3.851 -0.7122 -0.7494  0.5764
   17RES   H287 7039   3.925   1.949   3.694 -3.0610  1.8359 -0.6175
   17RES   H288 7040   4.004   2.003   3.834 -0.0543  0.8333  0.8579
   17RES   H289 7041   4.127   2.172   3.686 -1.2994  0.6819 -0.4516
   17RES   H290 7042   4.054   2.089   3.551 -1.9674 -0.7132 -0.6684
   17RES   H291 7043   4.259   1.970   3.734  0.2855 -0.4980 -0.1300
   17RES   H292 7044   4.178   1.872   3.602 -0.4600 -0.7237  1.5133
   17RES   H293 7045   4.345   2.118   3.570 -0.3670  0.1711 -0.9435
   17RES   H294 7046   4.237   2.063   3.441 -1.0075 -0.3714  0.5348
   17RES   H295 7047   4.374   1.958   3.504 -1.6699 -1.1384 -1.4897
   17RES   C296 7048   3.625   2.222   3.772  0.1879  0.1701 -0.0393
   17RES   C297 7049   3.556   2.219   3.633 -0.0105  0.0443  1.1933
   17RES   C298 7050   3.471   2.093   3.607  0.4679 -0.2036 -0.0760
   17RES   C299 7051   3.383   2.104   3.484 -0.0316 -0.3044 -0.0116
   17RES   C300 7052   3.295   1.989   3.451 -0.2577 -0.0958  0.1549
   17RES   C301 7053   3.235   2.013   3.311  0.3003 -0.1988 -0.5786
   17RES   C302 7054   3.139   1.904   3.270 -0.4894 -0.0981  0.7233
   17RES   H303 7055   3.542   2.222   3.842 -0.0154  0.0821 -0.2802
   17RES   H304 7056   3.674   2.317   3.793  0.1829  0.0882  0.3514
   17RES   H305 7057   3.480   2.298   3.637  2.1076  2.1218  1.5729
   17RES   H306 7058   3.538   2.007   3.595  2.1729  0.9824  0.7686
   17RES   H307 7059   3.413   2.053   3.690 -0.2686  0.8913 -0.0590
   17RES   H308 7060   3.446   2.113   3.395  0.2407  0.8704  0.2875
   17RES   H309 7061   3.314   2.188   3.484  1.6959  1.1396  0.1747
   17RES   H310 7062   3.209   1.983   3.518  0.2308 -0.8480  0.7221
   17RES   H311 7063   3.342   1.891   3.448 -2.4885 -1.2326  0.7442
   17RES   H312 7064   3.195   2.114   3.311 -0.5648 -0.5328 -0.8989
   17RES   H313 7065   3.312   2.023   3.234  0.3830 -0.2978 -0.5086
   17RES   H314 7066   3.096   1.901   3.170  1.9561 -1.4596 -0.3486
   17RES   H315 7067   3.196   1.811   3.278  1.4759  1.1145  1.0885
   17RES   H316 7068   3.055   1.890   3.338  0.3068  1.2296  2.0020
   17RES   C317 7069   3.654   2.243   3.518 -0.9620  0.8429 -0.4025
   17RES   C318 7070   3.701   2.394   3.504 -0.3044 -0.4053 -0.0887
   17RES   C319 7071   3.842   2.401   3.436  0.0924  0.5636 -0.1263
   17RES   C320 7072   3.857   2.349   3.294  0.1994 -0.2361 -0.9282
   17RES   C321 7073   4.005   2.345   3.235  0.5222 -0.4723  0.0498
   17RES   C322 7074   4.013   2.287   3.100 -0.3996  1.0366  0.1877
   17RES   C323 7075   4.151   2.298   3.036 -1.1943 -0.5572  0.5428
   17RES   H324 7076   3.611   2.215   3.422 -0.4678  1.3742 -0.7793
   17RES   H325 7077   3.743   2.181   3.531 -2.2391 -0.5801  1.9925
   17RES   H326 7078   3.716   2.443   3.601 -1.7071  0.2268 -0.1818
   17RES   H327 7079   3.916   2.349   3.497  0.2368  0.0853 -0.7045
   17RES   H328 7080   3.884   2.501   3.447  0.0485  0.3351  2.5058
   17RES   H329 7081   3.783   2.408   3.240  1.3393  0.3305 -1.8746
   17RES   H330 7082   3.820   2.246   3.298  1.0773 -0.5022  0.9173
   17RES   H331 7083   4.075   2.296   3.303  0.0079 -1.3877 -0.0756
   17RES   H332 7084   4.039   2.449   3.241  1.2845 -0.7639  0.8321
   17RES   H333 7085   3.941   2.344   3.040 -1.3625 -1.1347 -0.7711
   17RES   H334 7086   3.965   2.190   3.106 -0.5408  1.1124  0.3022
   17RES   H335 7087   4.146   2.257   2.935  0.0750 -1.3273  0.7768
   17RES   H336 7088   4.228   2.241   3.088  0.2591 -1.4067 -2.4083
   17RES   H337 7089   4.192   2.399   3.033 -0.6236 -0.6040  4.2121
   17RES   C338 7090   3.596   2.468   3.425 -0.1880  0.5174 -0.0138
   17RES   C339 7091   3.626   2.616   3.369  0.5021 -0.6758  0.1044
   17RES   C340 7092   3.616   2.721   3.486  0.1424  0.1958 -0.6804
   17RES   C341 7093   3.475   2.767   3.529 -1.0492 -0.0625 -1.0120
   17RES   C342 7094   3.464   2.882   3.633  0.0582 -0.1088  0.0465
   17RES   C343 7095   3.500   3.021   3.585  0.3329  0.3581  0.0838
   17RES   C344 7096   3.477   3.127   3.690  0.2453 -0.7736  0.1641
   17RES   H345 7097   3.499   2.466   3.474  0.1639  1.1617  0.7158
   17RES   H346 7098   3.565   2.415   3.335 -1.2228  2.0319 -0.5678
   17RES   H347 7099   3.732   2.622   3.344  0.6616  0.0788  0.9264
   17RES   H348 7100   3.691   2.688   3.557  1.3641  1.7414 -1.2151
   17RES   H349 7101   3.664   2.814   3.454 -0.4672  0.4196 -0.9656
   17RES   H350 7102   3.425   2.688   3.586  1.3585  0.5797  2.1714
   17RES   H351 7103   3.415   2.795   3.442 -0.1917 -0.5884 -1.7773
   17RES   H352 7104   3.363   2.884   3.675  0.8889  3.0534  2.0560
   17RES   H353 7105   3.522   2.855   3.721 -0.8836 -0.2459  0.6380
   17RES   H354 7106   3.600   3.027   3.543  0.0387  1.9356 -0.4372
   17RES   H355 7107   3.431   3.038   3.502 -5.4135 -3.4300  3.7390
   17RES   H356 7108   3.547   3.110   3.772  1.5130  1.5583 -0.3808
   17RES   H357 7109   3.372   3.119   3.718 -0.1753  2.0577 -0.4007
   17RES   H358 7110   3.488   3.224   3.641  0.9433 -0.5621  0.7291
   17RES   C359 7111   3.544   2.647   3.238  0.0842 -0.4130 -0.1732
   17RES   C360 7112   3.567   2.784   3.172  0.7139  0.1415  0.7574
   17RES   C361 7113   3.719   2.810   3.145 -0.4174 -0.5090  0.5620
   17RES   C362 7114   3.782   2.713   3.045  0.4154 -0.0415 -0.4716
   17RES   C363 7115   3.934   2.739   3.036 -0.3958 -0.1269  0.7132
   17RES   C364 7116   3.979   2.668   2.902  0.3969 -0.6351  0.8749
   17RES   C365 7117   3.958   2.759   2.778 -0.2031  0.2748 -0.7614
   17RES   H366 7118   3.442   2.638   3.277 -0.0293  2.1884  0.2348
   17RES   H367 7119   3.580   2.572   3.168  0.9041  0.5040 -0.7427
   17RES   H368 7120   3.527   2.854   3.246 -3.5286  0.0229 -1.2329
   17RES   H369 7121   3.746   2.908   3.107  1.2132 -0.8336  0.8343
   17RES   H370 7122   3.779   2.816   3.236  0.3009 -2.0703  0.2112
   17RES   H371 7123   3.771   2.611   3.080 -2.2035 -0.6060 -2.7812
   17RES   H372 7124   3.741   2.712   2.944  1.3506  0.7167 -0.8723
   17RES   H373 7125   3.947   2.847   3.028 -0.2501 -0.2221 -0.3585
   17RES   H374 7126   3.989   2.702   3.123  1.3041 -0.9047 -0.6639
   17RES   H375 7127   4.088   2.662   2.899  0.3758 -0.6144 -0.7258
   17RES   H376 7128   3.955   2.562   2.890  0.6730 -0.7733  1.5460
   17RES   H377 7129   4.010   2.713   2.694  1.1585 -1.8322  1.1943
   17RES   H378 7130   3.855   2.780   2.747 -0.6220  0.4943  0.7515
   17RES   H379 7131   4.002   2.858   2.789 -0.8469  0.5891 -0.9368
   17RES   C380 7132   3.475   2.798   3.049 -0.4721 -0.0110 -0.5271
   17RES   C381 7133   3.465   2.939   2.984 -0.1765 -0.5878  0.1151
   17RES   C382 7134   3.424   2.935   2.832  0.3585 -0.5500 -0.3757
   17RES   C383 7135   3.545   2.897   2.740  0.5323 -0.9184 -0.5381
   17RES   C384 7136   3.533   2.939   2.592 -0.2633  0.2926  0.6442
   17RES   C385 7137   3.641   2.883   2.502  0.4539 -0.0209 -0.6359
   17RES   C386 7138   3.658   2.950   2.366 -0.0093  0.6746 -0.6265
   17RES   H387 7139   3.498   2.723   2.972 -0.4424 -0.9154  0.3550
   17RES   H388 7140   3.378   2.759   3.080 -1.4749  3.3147  0.6289
   17RES   H389 7141   3.567   2.978   2.977 -0.9097  1.7306  2.0052
   17RES   H390 7142   3.385   3.034   2.811  0.1183 -0.1614  1.7587
   17RES   H391 7143   3.348   2.858   2.824  0.6853 -0.7573 -1.5015
   17RES   H392 7144   3.635   2.945   2.778  1.0402  0.1402 -2.9672
   17RES   H393 7145   3.569   2.792   2.752  0.2867 -0.8247  0.9025
   17RES   H394 7146   3.440   2.898   2.554  1.0773 -1.8391 -0.4362
   17RES   H395 7147   3.527   3.048   2.587  1.0188  0.2647 -4.6348
   17RES   H396 7148   3.623   2.779   2.477 -2.9664  0.5206 -0.6863
   17RES   H397 7149   3.736   2.893   2.554  0.2827  0.9024 -0.4947
   17RES   H398 7150   3.733   2.896   2.308  0.4711 -1.1364  1.6174
   17RES   H399 7151   3.685   3.056   2.367  0.2536  0.6035  0.2441
   17RES   H400 7152   3.568   2.947   2.304 -0.0198  2.1147 -0.7102
   17RES   C401 7153   3.393   3.048   3.067 -0.2026 -0.0457  0.0083
   17RES   C402 7154   3.245   3.016   3.084  0.2474 -0.4294  0.5938
   17RES   C403 7155   3.178   3.116   3.187 -0.3976 -0.0689 -0.0585
   17RES   C404 7156   3.026   3.130   3.176  0.6447 -0.6502  0.2533
   17RES   C405 7157   2.966   3.245   3.255  0.1735 -0.2808  0.1668
   17RES   C406 7158   2.818   3.266   3.220  0.2178 -0.2536 -0.2184
   17RES   C407 7159   2.728   3.157   3.284 -0.5231  0.1146 -0.0683
   17RES   H408 7160   3.417   3.146   3.025 -0.5204 -0.1590 -0.4345
   17RES   H409 7161   3.436   3.055   3.167  1.1230  0.3451 -0.5856
   17RES   H410 7162   3.226   2.916   3.122 -0.9339 -0.1587  0.7181
   17RES   H411 7163   3.218   3.216   3.172 -1.7085  0.4072 -0.4580
   17RES   H412 7164   3.206   3.084   3.287  0.9535 -0.2525 -0.4903
   17RES   H413 7165   2.988   3.038   3.219  1.4197 -1.0970 -0.0169
   17RES   H414 7166   2.994   3.131   3.071 -0.8606  1.1212  0.6968
   17RES   H415 7167   2.991   3.227   3.360  0.4400  1.1544  0.3720
   17RES   H416 7168   3.016   3.339   3.228  0.3902 -0.2020  0.8287
   17RES   H417 7169   2.773   3.343   3.283 -2.5556 -3.1244  1.4339
   17RES   H418 7170   2.807   3.295   3.116  0.5687  1.2930  0.1518
   17RES   H419 7171   2.625   3.169   3.252 -1.1287 -1.6511  1.1875
   17RES   H420 7172   2.744   3.150   3.391  4.9001 -1.4852 -0.8060
   17RES   H421 7173   2.760   3.056   3.258 -0.6065 -0.4957  2.1044
   17RES   H422 7174   3.201   3.019   2.985  1.7617 -2.1495 -0.1750
   18RES     C1 7175   4.271   0.498   3.744  0.8540 -0.3216  0.1634
   18RES     C2 7176   4.247   0.603   3.632  0.2434 -0.0034  0.6614
   18RES     C3 7177   4.199   0.539   3.495 -0.4917 -0.4504 -0.0995
   18RES     C4 7178   4.075   0.447   3.508  0.0862  0.0835 -0.2267
   18RES     C5 7179   4.016   0.390   3.375  0.0026  0.6306  0.4579
   18RES     C6 7180   3.910   0.279   3.389  0.0316 -0.6595 -0.1694
   18RES     C7 7181   3.779   0.327   3.452 -0.4600  0.4765  0.0221
   18RES     H8 7182   4.172   0.463   3.774 -0.2956  0.7725 -2.2060
   18RES     H9 7183   4.296   0.555   3.833 -3.0025  0.9412  0.5393
   18RES    H10 7184   4.165   0.666   3.665 -0.1876 -0.5090  0.5622
   18RES    H11 7185   4.167   0.618   3.427 -2.4992 -0.7854  0.4036
   18RES    H12 7186   4.284   0.486   3.453 -1.9267 -1.5230 -1.7264
   18RES    H13 7187   4.098   0.357   3.565  1.3639  1.1708  0.9987
   18RES    H14 7188   3.998   0.486   3.575 -0.9791 -0.1178 -1.3096
   18RES    H15 7189   4.100   0.350   3.318  0.8147  0.3295  1.8324
   18RES    H16 7190   3.973   0.467   3.311  0.7012 -1.2023 -2.2935
   18RES    H17 7191   3.951   0.196   3.446  1.5091 -0.6018 -1.1298
   18RES    H18 7192   3.877   0.238   3.293 -0.0593  1.3913 -1.0386
   18RES    H19 7193   3.709   0.243   3.449 -0.6904  0.6908 -0.5851
   18RES    H20 7194   3.745   0.414   3.396  0.5582  1.3546  0.7520
   18RES    H21 7195   3.790   0.359   3.556  3.1795 -0.5460  0.0291
   18RES    H22 7196   4.327   0.408   3.717  0.0406 -1.0527  0.8404
   18RES    C23 7197   4.380   0.673   3.599 -0.4334 -0.2725 -0.4922
   18RES    C24 7198   4.377   0.788   3.490 -0.4879  0.0614  0.6194
   18RES    C25 7199   4.487   0.768   3.376 -0.3482  0.5699  0.6484
   18RES    C26 7200   4.463   0.644   3.283  0.5806  0.3821 -0.2166
   18RES    C27 7201   4.527   0.656   3.144 -0.1648  0.1573 -0.5427
   18RES    C28 7202   4.499   0.538   3.052 -0.1188 -0.8360 -0.3923
   18RES    C29 7203   4.360   0.549   2.984 -0.3842 -0.6677  1.1291
   18RES    H30 7204   4.413   0.728   3.687 -3.1265 -0.9083  0.9679
   18RES    H31 7205   4.470   0.612   3.592 -0.1544 -0.2074  2.2059
   18RES    H32 7206   4.281   0.782   3.439  1.3881 -0.7636 -2.9648
   18RES    H33 7207   4.589   0.766   3.414 -0.2609 -0.2202  0.3780
   18RES    H34 7208   4.487   0.852   3.308 -1.5005 -0.3563 -0.5251
   18RES    H35 7209   4.355   0.629   3.280  0.4851  0.3045  2.6098
   18RES    H36 7210   4.497   0.553   3.332  0.7837 -0.7727 -2.4352
   18RES    H37 7211   4.634   0.665   3.163 -0.5971  3.3669  0.6311
   18RES    H38 7212   4.492   0.751   3.104  0.9695 -0.0277 -2.0226
   18RES    H39 7213   4.496   0.453   3.121 -2.7053 -0.6573 -0.2216
   18RES    H40 7214   4.576   0.519   2.978  3.0874 -1.7657  3.0494
   18RES    H41 7215   4.342   0.654   2.959  0.1656 -0.1035  3.0305
   18RES    H42 7216   4.352   0.480   2.900 -0.6787 -0.4909  1.0097
   18RES    H43 7217   4.284   0.507   3.049 -0.7759 -1.5903  0.0856
   18RES    C44 7218   4.382   0.934   3.561 -0.5063 -0.0543 -0.5906
   18RES    C45 7219   4.395   1.062   3.478  1.0720 -0.2211 -0.8705
   18RES    C46 7220   4.276   1.085   3.387 -0.3480  0.1296  0.5353
   18RES    C47 7221   4.264   1.011   3.251 -0.4372  0.4308  0.2207
   18RES    C48 7222   4.151   1.067   3.159 -0.0314  0.5817  0.2621
   18RES    C49 7223   4.137   0.991   3.027  0.5332 -0.0966 -0.7830
   18RES    C50 7224   4.257   0.999   2.937  0.5511  0.0519 -0.4050
   18RES    H51 7225   4.477   0.930   3.614  0.6682  3.3131 -2.2537
   18RES    H52 7226   4.316   0.937   3.648  0.0986 -0.0311 -0.1333
   18RES    H53 7227   4.478   1.046   3.410  1.2035  0.5627 -0.9030
   18RES    H54 7228   4.271   1.189   3.354 -1.3763  0.8577  2.9165
   18RES    H55 7229   4.182   1.076   3.440 -0.8703  0.5203 -0.3011
   18RES    H56 7230   4.357   1.020   3.195  0.3498 -1.6083  1.1417
   18RES    H57 7231   4.250   0.907   3.278  1.3591  0.6621  2.1810
   18RES    H58 7232   4.170   1.172   3.135 -3.0177  0.7579 -1.6135
   18RES    H59 7233   4.051   1.052   3.198  0.1298 -1.7676 -0.1654
   18RES    H60 7234   4.051   1.019   2.967  0.5498  0.5621 -0.5041
   18RES    H61 7235   4.115   0.891   3.064  0.1277  0.1034 -0.4906
   18RES    H62 7236   4.231   0.962   2.838 -3.1182 -0.0009  0.4840
   18RES    H63 7237   4.340   0.944   2.983  0.0774  0.0854  0.5124
   18RES    H64 7238   4.282   1.104   2.922  2.2507 -0.0305  1.5350
   18RES    C65 7239   4.405   1.176   3.579  0.2396 -0.4817 -0.0765
   18RES    C66 7240   4.467   1.305   3.537  0.5628  0.8052  0.2464
   18RES    C67 7241   4.622   1.281   3.513 -0.0572 -0.0683 -0.5689
   18RES    C68 7242   4.698   1.238   3.632  0.0946  0.5134 -0.8371
   18RES    C69 7243   4.850   1.214   3.597  0.1928  0.2400 -0.4183
   18RES    C70 7244   4.954   1.311   3.662  0.5790  0.1229  0.3713
   18RES    C71 7245   4.968   1.287   3.809 -0.3585 -0.4651  0.3570
   18RES    H72 7246   4.300   1.192   3.603  0.3662 -0.7006  0.6344
   18RES    H73 7247   4.455   1.156   3.674 -0.8675  0.6214  0.7506
   18RES    H74 7248   4.445   1.334   3.434  0.0809 -1.4953 -0.3201
   18RES    H75 7249   4.632   1.208   3.433  1.4716 -2.5016  1.7158
   18RES    H76 7250   4.669   1.370   3.472  0.3943 -0.5991 -1.2212
   18RES    H77 7251   4.674   1.307   3.713 -0.2220 -1.1036  0.4639
   18RES    H78 7252   4.658   1.139   3.652 -0.4587  0.6987 -0.9917
   18RES    H79 7253   4.883   1.115   3.631  0.9152  0.3758 -0.7265
   18RES    H80 7254   4.856   1.211   3.488  0.3576  0.2353 -0.4106
   18RES    H81 7255   4.931   1.416   3.645  0.2657  0.0502  0.3562
   18RES    H82 7256   5.046   1.308   3.602  0.2089  0.6569 -0.2273
   18RES    H83 7257   5.037   1.358   3.856  2.4795 -1.8907 -1.5451
   18RES    H84 7258   4.874   1.320   3.854  0.2831  0.7912  0.8059
   18RES    H85 7259   4.990   1.185   3.841  0.5591  0.3115  2.3192
   18RES    C86 7260   4.439   1.417   3.638 -0.9054  0.4370  0.4203
   18RES    C87 7261   4.490   1.560   3.598  0.3586 -0.4744 -0.1385
   18RES    C88 7262   4.414   1.617   3.475 -0.0534  0.2946 -0.1384
   18RES    C89 7263   4.505   1.589   3.347  0.5883  0.1425 -0.4175
   18RES    C90 7264   4.420   1.563   3.221  0.6459  0.3172  0.4247
   18RES    C91 7265   4.498   1.508   3.099  0.2912  0.0295  0.2710
   18RES    C92 7266   4.475   1.357   3.078  0.5530 -0.1383  0.2710
   18RES    H93 7267   4.331   1.424   3.651 -1.1873  0.5120 -1.7548
   18RES    H94 7268   4.478   1.392   3.737 -0.3877  1.6127  0.5246
   18RES    H95 7269   4.597   1.556   3.578  0.3796 -1.1061  0.0893
   18RES    H96 7270   4.311   1.584   3.461 -0.0635  0.9549 -1.7377
   18RES    H97 7271   4.402   1.725   3.476 -3.5603 -0.0391 -0.0606
   18RES    H98 7272   4.589   1.659   3.341 -1.3220  2.6823  1.4515
   18RES    H99 7273   4.554   1.492   3.357 -0.5694 -0.3616  0.4493
   18RES   H100 7274   4.362   1.649   3.188  2.8979  1.9115  0.5942
   18RES   H101 7275   4.344   1.486   3.234 -0.9084  1.1772 -3.0498
   18RES   H102 7276   4.463   1.562   3.011  0.8619  0.6606  0.4205
   18RES   H103 7277   4.603   1.538   3.107  0.0417  1.2929 -0.9304
   18RES   H104 7278   4.369   1.338   3.059  0.3884  1.0793 -0.0917
   18RES   H105 7279   4.497   1.301   3.168 -3.2137 -1.2217  0.6194
   18RES   H106 7280   4.543   1.322   3.000 -1.1850 -0.7398 -1.0112
   18RES   C107 7281   4.472   1.663   3.716  0.3841  0.0082 -0.0248
   18RES   C108 7282   4.584   1.667   3.828  0.0546  0.0253 -0.2492
   18RES   C109 7283   4.677   1.782   3.810 -0.3696  0.2155  0.4965
   18RES   C110 7284   4.780   1.759   3.702  0.5228  0.3355  0.1957
   18RES   C111 7285   4.872   1.884   3.696  0.6708  0.2561 -0.5410
   18RES   C112 7286   5.018   1.873   3.635  0.5312  0.0604 -0.2231
   18RES   C113 7287   5.089   2.002   3.621 -0.2329  0.2948  0.1877
   18RES   H114 7288   4.378   1.634   3.763  0.7526  2.1592  2.1451
   18RES   H115 7289   4.461   1.762   3.672  1.2380 -0.6042 -1.6792
   18RES   H116 7290   4.636   1.573   3.812 -0.1556 -0.0610 -0.4325
   18RES   H117 7291   4.727   1.811   3.902  0.1886  1.4900 -0.1899
   18RES   H118 7292   4.620   1.872   3.787 -0.6067 -0.3729 -1.3183
   18RES   H119 7293   4.835   1.667   3.723 -0.8382  0.3390  4.2739
   18RES   H120 7294   4.724   1.750   3.609 -1.2340 -0.2995  1.2970
   18RES   H121 7295   4.883   1.925   3.797  2.5853 -1.8837  0.1735
   18RES   H122 7296   4.825   1.964   3.640  1.4157  0.6189 -0.6563
   18RES   H123 7297   5.092   1.810   3.684  2.2900  1.4129 -1.0651
   18RES   H124 7298   5.004   1.848   3.530 -2.8832  1.0731 -0.0708
   18RES   H125 7299   5.099   2.046   3.721 -1.2349  2.2648 -0.5351
   18RES   H126 7300   5.190   1.990   3.582  1.4759  0.6451  4.2425
   18RES   H127 7301   5.035   2.069   3.554  0.6805  0.8847  0.0246
   18RES   C128 7302   4.516   1.666   3.970  0.5197 -0.7208 -0.2436
   18RES   C129 7303   4.621   1.629   4.087  0.4663 -0.2198 -0.3710
   18RES   C130 7304   4.619   1.482   4.104  0.2563  0.1374  0.3364
   18RES   C131 7305   4.756   1.424   4.148 -0.2834  0.7410  0.2529
   18RES   C132 7306   4.747   1.266   4.146 -0.4611  0.0113 -0.4525
   18RES   C133 7307   4.887   1.201   4.183 -0.6430  0.5875 -0.0750
   18RES   C134 7308   4.886   1.049   4.189 -0.4264 -0.5729 -0.2040
   18RES   H135 7309   4.465   1.762   3.973  1.2167 -0.3500 -0.3128
   18RES   H136 7310   4.430   1.602   3.992  0.6121 -1.3420 -1.6615
   18RES   H137 7311   4.712   1.669   4.042  0.3346  1.7190  0.9758
   18RES   H138 7312   4.611   1.442   4.003  1.0102 -0.7926  0.6406
   18RES   H139 7313   4.536   1.444   4.164 -0.1428  0.3993 -0.0500
   18RES   H140 7314   4.792   1.447   4.248  1.9078 -0.4932 -0.1919
   18RES   H141 7315   4.838   1.460   4.086  0.0796  1.1495  0.9700
   18RES   H142 7316   4.721   1.242   4.043 -0.6261 -1.0400 -0.1714
   18RES   H143 7317   4.662   1.239   4.208 -0.4588  0.9469 -0.0298
   18RES   H144 7318   4.910   1.234   4.284 -0.9731  0.4934  0.0328
   18RES   H145 7319   4.972   1.243   4.130  0.0822  1.7626  1.9945
   18RES   H146 7320   4.827   1.018   4.275 -0.6371  1.1197  0.2751
   18RES   H147 7321   4.990   1.017   4.198 -0.2252 -0.0777 -0.7771
   18RES   H148 7322   4.840   1.009   4.098 -0.7451  0.6529 -0.5864
   18RES   C149 7323   4.601   1.703   4.229  0.0052  0.0961  0.2209
   18RES   C150 7324   4.637   1.858   4.226  0.7003 -0.0139  0.3229
   18RES   C151 7325   4.789   1.883   4.210 -0.5311 -1.1053 -0.1168
   18RES   C152 7326   4.836   2.009   4.134  0.0491 -0.0954  0.1654
   18RES   C153 7327   4.992   2.005   4.111  0.7841  0.0494  0.3028
   18RES   C154 7328   5.040   2.124   4.028 -0.4874  0.1690  0.0259
   18RES   C155 7329   5.187   2.113   3.981  0.0321  0.5447 -0.2499
   18RES   H156 7330   4.500   1.684   4.266  0.1299 -2.7679 -0.8071
   18RES   H157 7331   4.667   1.659   4.303  1.0020 -0.3715 -0.9350
   18RES   H158 7332   4.578   1.895   4.142  0.0438  2.0843  1.6794
   18RES   H159 7333   4.836   1.893   4.308 -2.8615 -0.1624  0.9483
   18RES   H160 7334   4.830   1.790   4.169 -0.6600 -0.6363 -1.3254
   18RES   H161 7335   4.795   2.095   4.186  2.1662  1.5549 -0.7777
   18RES   H162 7336   4.780   2.014   4.040 -0.5978  0.9652  0.5987
   18RES   H163 7337   5.007   1.910   4.059 -1.1108  0.4806 -1.0581
   18RES   H164 7338   5.053   2.008   4.201  1.3039 -0.9998 -0.0067
   18RES   H165 7339   5.029   2.207   4.098 -1.5956 -0.4086  0.5528
   18RES   H166 7340   4.963   2.130   3.951 -2.4774 -0.4956  1.9388
   18RES   H167 7341   5.200   2.189   3.904  0.8760  0.0425 -0.6037
   18RES   H168 7342   5.195   2.011   3.942  1.8245  0.5513  0.0502
   18RES   H169 7343   5.255   2.124   4.065 -2.6726 -3.1174  2.5398
   18RES   C170 7344   4.582   1.926   4.359 -0.1828  0.0958 -0.1164
   18RES   C171 7345   4.429   1.929   4.389  0.3771 -0.0278 -0.4695
   18RES   C172 7346   4.392   1.993   4.526  0.4806 -0.1844 -0.3528
   18RES   C173 7347   4.466   2.126   4.535  0.5321  0.0616 -0.2104
   18RES   C174 7348   4.397   2.214   4.635 -0.0632  1.3268  0.2214
   18RES   C175 7349   4.469   2.352   4.649 -0.6478  1.1408 -0.6164
   18RES   C176 7350   4.389   2.450   4.725 -0.6255  0.6403  0.7206
   18RES   H177 7351   4.619   2.028   4.364 -3.1025  1.2336 -0.4590
   18RES   H178 7352   4.626   1.871   4.442 -1.2112  2.1184  1.8378
   18RES   H179 7353   4.393   1.827   4.403 -0.1884  0.4988  2.2508
   18RES   H180 7354   4.420   1.924   4.605 -3.4421 -1.1570  0.3152
   18RES   H181 7355   4.283   2.000   4.532  0.3976  0.3718 -2.1062
   18RES   H182 7356   4.472   2.189   4.446 -0.5373 -0.1820 -0.4571
   18RES   H183 7357   4.566   2.119   4.578  0.7621  3.5110 -0.0879
   18RES   H184 7358   4.407   2.164   4.731  0.3815 -2.5268 -1.7382
   18RES   H185 7359   4.290   2.229   4.624 -0.6228 -0.9460  2.1127
   18RES   H186 7360   4.490   2.394   4.551  0.0720  1.0970 -0.4845
   18RES   H187 7361   4.567   2.342   4.695  0.2672  1.2127 -2.4960
   18RES   H188 7362   4.324   2.406   4.801 -0.4820 -0.3353  0.2928
   18RES   H189 7363   4.323   2.498   4.652 -0.1280 -0.4249 -0.4534
   18RES   H190 7364   4.437   2.537   4.768 -2.5429  1.2782  1.6426
   18RES   C191 7365   4.354   2.004   4.273  0.0432 -0.0161 -0.2527
   18RES   C192 7366   4.199   1.976   4.259 -0.2416 -0.0139  0.1099
   18RES   C193 7367   4.114   2.084   4.190  0.6021 -0.9869 -0.1230
   18RES   C194 7368   4.105   2.211   4.272 -0.4918 -0.2685 -0.1374
   18RES   C195 7369   4.004   2.308   4.202 -0.5845  0.9824 -0.7264
   18RES   C196 7370   3.997   2.445   4.281 -0.1130 -0.4914  0.6367
   18RES   C197 7371   3.962   2.560   4.182 -0.0995  0.2631  0.4514
   18RES   H198 7372   4.403   1.981   4.178 -1.0667  0.6479 -1.0016
   18RES   H199 7373   4.370   2.111   4.284  0.4769 -0.0249 -0.8029
   18RES   H200 7374   4.147   1.974   4.355 -2.2560 -0.0333 -0.9489
   18RES   H201 7375   4.013   2.045   4.178  0.1173 -0.7855  3.0120
   18RES   H202 7376   4.143   2.114   4.089  0.3966 -0.1293  0.0640
   18RES   H203 7377   4.203   2.254   4.292  0.2905 -1.9973 -0.0859
   18RES   H204 7378   4.072   2.188   4.374  2.0438 -1.0104  0.5625
   18RES   H205 7379   4.034   2.325   4.098 -0.8334 -1.9944 -1.3478
   18RES   H206 7380   3.900   2.276   4.197 -0.1703 -0.5328 -0.1018
   18RES   H207 7381   4.094   2.457   4.330 -1.6069  0.1554  3.5435
   18RES   H208 7382   3.924   2.433   4.360 -1.4165 -1.5948 -0.7022
   18RES   H209 7383   3.871   2.534   4.128 -1.9457  3.0540  2.0543
   18RES   H210 7384   4.039   2.571   4.106  1.1106 -2.0809  1.2966
   18RES   H211 7385   3.955   2.657   4.231  1.9657  0.2029  0.9158
   18RES   C212 7386   4.187   1.838   4.182 -0.4584  0.2752  0.7398
   18RES   C213 7387   4.052   1.766   4.187 -0.1977 -0.2206 -0.0278
   18RES   C214 7388   4.060   1.628   4.108  0.4680  0.2860 -0.2760
   18RES   C215 7389   4.056   1.669   3.956 -0.6829 -0.1339 -0.0980
   18RES   C216 7390   4.091   1.554   3.864 -0.3922 -0.0503  0.3309
   18RES   C217 7391   4.057   1.568   3.716  1.3081  0.5001 -0.4002
   18RES   C218 7392   4.052   1.427   3.641  0.4999 -0.4310 -0.6352
   18RES   H219 7393   4.264   1.772   4.224  0.4864  1.5050  0.9760
   18RES   H220 7394   4.228   1.857   4.083 -0.8913  0.6699  0.6351
   18RES   H221 7395   3.977   1.826   4.135 -0.5374 -1.5198 -1.0845
   18RES   H222 7396   4.156   1.577   4.124  0.0924 -0.2578  0.2832
   18RES   H223 7397   3.975   1.568   4.138 -1.0806  2.2866 -0.5613
   18RES   H224 7398   4.132   1.746   3.941 -0.5286  0.2750  2.4972
   18RES   H225 7399   3.955   1.703   3.932 -0.4533  0.9371  0.4155
   18RES   H226 7400   4.195   1.523   3.868 -0.0559  1.2176  1.9180
   18RES   H227 7401   4.041   1.467   3.905 -1.5477 -0.3140 -1.5617
   18RES   H228 7402   3.955   1.603   3.700 -0.4820 -3.5213  1.4258
   18RES   H229 7403   4.117   1.640   3.659  0.0864  1.6044 -0.3082
   18RES   H230 7404   4.143   1.367   3.641  1.7864  1.4227  1.8595
   18RES   H231 7405   4.009   1.435   3.542  1.3941  0.5312 -0.9553
   18RES   H232 7406   3.985   1.361   3.697  0.7089 -0.4762 -0.4364
   18RES   C233 7407   3.994   1.735   4.325 -0.3617  0.2005 -0.1105
   18RES   C234 7408   4.090   1.690   4.442 -0.1286 -0.4766  0.0042
   18RES   C235 7409   4.050   1.728   4.592  1.2259  0.3144  0.2810
   18RES   C236 7410   3.908   1.685   4.627 -0.0339 -0.3052  0.3814
   18RES   C237 7411   3.887   1.748   4.766  0.0957 -0.2097 -0.1318
   18RES   C238 7412   3.758   1.699   4.824  0.1918  0.5634  0.6506
   18RES   C239 7413   3.643   1.780   4.760  0.1687  0.7332 -0.1085
   18RES   H240 7414   3.905   1.673   4.322  0.8799 -1.6673  0.6948
   18RES   H241 7415   3.968   1.836   4.357 -0.0928  0.6623 -1.2928
   18RES   H242 7416   4.192   1.725   4.428 -0.5120  1.3126  1.4513
   18RES   H243 7417   4.055   1.836   4.604 -0.9523  0.3783  0.7366
   18RES   H244 7418   4.129   1.691   4.657  1.5889 -0.0703 -0.3696
   18RES   H245 7419   3.904   1.576   4.637  3.3079 -0.6900 -1.6879
   18RES   H246 7420   3.837   1.715   4.551 -1.4566 -0.8613  1.4617
   18RES   H247 7421   3.885   1.857   4.767 -0.1437 -0.2070 -0.5682
   18RES   H248 7422   3.966   1.722   4.837 -0.7961  0.9134  1.2966
   18RES   H249 7423   3.745   1.591   4.816  1.7049  0.4473 -0.4065
   18RES   H250 7424   3.758   1.713   4.932  0.3592 -1.6330  0.9422
   18RES   H251 7425   3.552   1.746   4.810  1.7263 -2.9914  0.3628
   18RES   H252 7426   3.645   1.887   4.782 -1.6956  0.9385 -0.8286
   18RES   H253 7427   3.638   1.768   4.652  2.7060 -0.0067 -0.1628
   18RES   C254 7428   4.104   1.536   4.435  0.0881  1.0807  0.3540
   18RES   C255 7429   4.205   1.461   4.525 -0.1352  0.4248  0.0178
   18RES   C256 7430   4.355   1.504   4.494  0.5143  0.1103 -0.3764
   18RES   C257 7431   4.454   1.454   4.599 -0.2433  0.5357 -0.3442
   18RES   C258 7432   4.601   1.486   4.577  0.4632 -0.4375 -0.3343
   18RES   C259 7433   4.670   1.484   4.716  0.4077  0.1757 -0.2568
   18RES   C260 7434   4.816   1.510   4.699  0.0829 -0.0348 -0.4817
   18RES   H261 7435   4.107   1.498   4.333 -0.9110  0.3132  0.5913
   18RES   H262 7436   4.007   1.496   4.466  0.1432  0.0564 -0.7653
   18RES   H263 7437   4.188   1.469   4.632  2.0388 -1.6911  0.5617
   18RES   H264 7438   4.364   1.613   4.499  2.8182  0.0169 -1.3854
   18RES   H265 7439   4.388   1.475   4.394  0.2767 -0.1697 -0.3717
   18RES   H266 7440   4.424   1.506   4.690 -0.8540  2.7201 -1.7418
   18RES   H267 7441   4.430   1.351   4.622 -0.2519  1.0272  1.9971
   18RES   H268 7442   4.593   1.589   4.541  1.2862 -0.2866 -0.0933
   18RES   H269 7443   4.667   1.439   4.504  2.6730  0.3825  1.0760
   18RES   H270 7444   4.630   1.571   4.768 -0.7154  0.7240 -2.0038
   18RES   H271 7445   4.648   1.390   4.769 -0.0173 -0.2979 -1.2645
   18RES   H272 7446   4.822   1.594   4.630 -0.1499  0.0359 -0.4164
   18RES   H273 7447   4.875   1.519   4.791  0.7102  1.0223 -0.9806
   18RES   H274 7448   4.863   1.423   4.652  0.4403  0.2188 -0.5928
   18RES   C275 7449   4.194   1.308   4.490  0.1618 -0.2608  0.3415
   18RES   C276 7450   4.067   1.221   4.541 -0.4745 -0.6072 -0.2377
   18RES   C277 7451   4.042   1.253   4.700 -0.5472  0.1267 -0.4344
   18RES   C278 7452   3.917   1.183   4.754 -0.4884  0.4405  0.2407
   18RES   C279 7453   3.902   1.190   4.907 -0.4844 -0.4566 -0.9826
   18RES   C280 7454   3.913   1.325   4.969 -0.0931 -0.1148 -0.2367
   18RES   C281 7455   3.901   1.324   5.118  0.5296 -0.5386 -0.2709
   18RES   H282 7456   4.288   1.261   4.519  1.3213  1.1839 -0.9545
   18RES   H283 7457   4.190   1.318   4.381  0.3556  1.2426  0.4619
   18RES   H284 7458   3.979   1.261   4.492 -0.6396  0.3412  0.8093
   18RES   H285 7459   4.127   1.216   4.757  1.2857 -0.7795 -3.6388
   18RES   H286 7460   4.038   1.361   4.718 -0.8043  0.1401 -0.5630
   18RES   H287 7461   3.901   1.079   4.726 -1.7785  0.2920  1.5057
   18RES   H288 7462   3.829   1.234   4.715 -1.0648 -2.0587 -1.8403
   18RES   H289 7463   3.970   1.121   4.956  1.5554  2.5998  0.6937
   18RES   H290 7464   3.812   1.135   4.932 -1.6456  1.6005 -0.4889
   18RES   H291 7465   4.007   1.372   4.940  1.1239 -2.1427  0.2322
   18RES   H292 7466   3.840   1.396   4.931 -0.8705 -1.2863 -0.9643
   18RES   H293 7467   3.982   1.270   5.167  0.2161 -0.5637  0.2248
   18RES   H294 7468   3.805   1.286   5.152 -0.8012  3.4922  0.7795
   18RES   H295 7469   3.914   1.431   5.136  0.7891 -0.3243 -1.6091
   18RES   C296 7470   4.074   1.068   4.506  0.0511 -0.1856 -0.6197
   18RES   C297 7471   4.096   1.026   4.364 -0.3854 -0.2786  0.6299
   18RES   C298 7472   3.988   1.072   4.258 -0.4391  0.3374  0.4447
   18RES   C299 7473   4.049   1.087   4.108 -0.2243  0.1148 -0.7612
   18RES   C300 7474   3.945   1.108   3.991  0.4768 -0.4366 -0.1225
   18RES   C301 7475   4.012   1.126   3.852 -0.3744  0.1428  0.5587
   18RES   C302 7476   4.035   0.987   3.794  0.1232  0.3067 -0.7974
   18RES   H303 7477   4.148   1.033   4.578  0.3511 -0.9498 -1.2963
   18RES   H304 7478   3.984   1.023   4.548 -0.7319  1.2722 -0.7041
   18RES   H305 7479   4.188   1.069   4.324 -0.5511 -2.2626 -1.9981
   18RES   H306 7480   3.907   0.998   4.258  1.2010 -1.5177  2.1596
   18RES   H307 7481   3.945   1.165   4.296 -3.5913 -2.1347  3.2728
   18RES   H308 7482   4.106   0.999   4.078 -0.3394 -0.3263  0.2898
   18RES   H309 7483   4.128   1.161   4.102 -1.3347  1.6373  2.4930
   18RES   H310 7484   3.893   1.199   4.022 -1.0257 -1.5824  0.7767
   18RES   H311 7485   3.860   1.039   3.995 -1.0188  1.3364 -0.3041
   18RES   H312 7486   3.939   1.188   3.800 -0.7284  0.4014  1.3489
   18RES   H313 7487   4.109   1.175   3.847  0.3279 -1.2247  0.3992
   18RES   H314 7488   4.090   0.986   3.700 -0.7839  0.6996 -1.3389
   18RES   H315 7489   4.092   0.921   3.860 -1.2247  1.0068  1.1367
   18RES   H316 7490   3.937   0.940   3.782 -0.6384  1.6948 -0.2666
   18RES   C317 7491   4.115   0.867   4.353 -0.5368 -0.7807  0.1520
   18RES   C318 7492   4.230   0.805   4.443 -0.5887  0.2493 -0.1772
   18RES   C319 7493   4.174   0.748   4.575 -0.1239 -0.8890  0.4904
   18RES   C320 7494   4.275   0.730   4.687 -0.5251  0.0928 -0.1510
   18RES   C321 7495   4.209   0.661   4.810  0.2438 -0.2644 -0.2228
   18RES   C322 7496   4.287   0.672   4.937  0.2849 -0.6089 -0.5414
   18RES   C323 7497   4.259   0.550   5.030  0.3527  0.1602 -0.1076
   18RES   H324 7498   4.148   0.844   4.252 -0.5262 -0.0011 -0.0264
   18RES   H325 7499   4.015   0.825   4.365 -1.4069  0.6821 -1.7005
   18RES   H326 7500   4.299   0.887   4.463 -2.0482  1.9067 -1.7838
   18RES   H327 7501   4.122   0.654   4.559 -0.6585 -0.2398 -1.8624
   18RES   H328 7502   4.090   0.810   4.608  0.7072  0.5895 -0.1185
   18RES   H329 7503   4.312   0.830   4.708 -0.7438 -0.3352  2.4718
   18RES   H330 7504   4.365   0.678   4.653 -0.1507  0.7820 -0.2253
   18RES   H331 7505   4.182   0.558   4.789  0.1748 -0.1638 -0.6439
   18RES   H332 7506   4.111   0.708   4.824  0.7054  1.1063 -1.4160
   18RES   H333 7507   4.256   0.767   4.980  2.3408 -0.4511  0.6799
   18RES   H334 7508   4.395   0.672   4.924  0.5537  0.2348  1.4173
   18RES   H335 7509   4.290   0.449   5.005 -0.5802 -0.1543  0.0032
   18RES   H336 7510   4.151   0.538   5.035  0.4854 -0.5853  1.2671
   18RES   H337 7511   4.304   0.567   5.128  0.6150  2.8040 -0.6300
   18RES   C338 7512   4.320   0.697   4.372  0.1508  0.4742 -0.1546
   18RES   C339 7513   4.457   0.742   4.316  0.1024  0.3179 -0.3852
   18RES   C340 7514   4.429   0.832   4.192 -0.2568  0.0256  0.7776
   18RES   C341 7515   4.545   0.916   4.132 -0.0586  0.0965 -0.3357
   18RES   C342 7516   4.517   0.957   3.989  0.2357  0.0345  0.0441
   18RES   C343 7517   4.401   1.062   3.972 -0.8354  0.3391  0.1388
   18RES   C344 7518   4.426   1.192   4.042 -0.0798 -0.1070 -0.0018
   18RES   H345 7519   4.267   0.643   4.294  0.5671  1.0736 -0.8517
   18RES   H346 7520   4.342   0.626   4.452  0.9043  1.5441  0.5968
   18RES   H347 7521   4.494   0.808   4.394  2.5210 -0.8776 -0.4721
   18RES   H348 7522   4.382   0.770   4.116 -0.3660 -0.1877  1.0178
   18RES   H349 7523   4.350   0.903   4.217 -2.9774 -2.9923  1.0806
   18RES   H350 7524   4.642   0.867   4.130 -1.1200 -2.0653  0.0657
   18RES   H351 7525   4.558   1.003   4.197  0.7974  0.0742 -0.4667
   18RES   H352 7526   4.601   1.011   3.945 -0.4730  1.7002  0.6726
   18RES   H353 7527   4.501   0.866   3.932  1.4593 -1.4423  1.9977
   18RES   H354 7528   4.376   1.063   3.866 -0.5732  3.1189  0.0636
   18RES   H355 7529   4.317   1.009   4.018 -0.1310  0.4675  1.5952
   18RES   H356 7530   4.515   1.235   3.997 -0.3800 -0.3427 -0.8300
   18RES   H357 7531   4.429   1.179   4.150 -2.2030 -0.0883  0.0784
   18RES   H358 7532   4.355   1.268   4.009  0.9390  0.6572 -0.4371
   18RES   C359 7533   4.565   0.627   4.291 -0.4290 -0.0641 -0.1325
   18RES   C360 7534   4.631   0.570   4.417  0.0154 -0.6469  0.2105
   18RES   C361 7535   4.711   0.442   4.396 -0.7336  0.3822 -0.7164
   18RES   C362 7536   4.623   0.318   4.400  0.3077 -0.2910  0.1136
   18RES   C363 7537   4.707   0.201   4.395 -0.9723 -0.0856  0.4693
   18RES   C364 7538   4.796   0.158   4.518  0.0053  0.4544 -0.2065
   18RES   C365 7539   4.922   0.095   4.463 -0.3415 -0.4791  0.7387
   18RES   H366 7540   4.633   0.654   4.210 -1.7171  1.4368 -0.7664
   18RES   H367 7541   4.494   0.557   4.247 -1.2648  1.5943 -1.5311
   18RES   H368 7542   4.547   0.557   4.486 -0.0470  1.2290  0.5377
   18RES   H369 7543   4.774   0.445   4.307  1.8769  1.2039  1.1073
   18RES   H370 7544   4.782   0.426   4.477  1.2512  2.6782 -1.9199
   18RES   H371 7545   4.565   0.317   4.492  1.4391  0.6414  0.8447
   18RES   H372 7546   4.544   0.323   4.325  2.5448  0.0188 -2.2789
   18RES   H373 7547   4.635   0.122   4.374 -2.1266  0.7398  1.2952
   18RES   H374 7548   4.749   0.203   4.294 -0.1246 -0.3220  0.8110
   18RES   H375 7549   4.826   0.246   4.576  1.5646 -0.0249 -0.2812
   18RES   H376 7550   4.734   0.101   4.587 -1.7123  2.4697 -0.0032
   18RES   H377 7551   4.897   0.019   4.389 -3.4666  2.6089 -1.5320
   18RES   H378 7552   4.991   0.165   4.416 -2.3931  2.0429  1.3617
   18RES   H379 7553   4.973   0.057   4.552  0.0975 -1.2351  0.1736
   18RES   C380 7554   4.727   0.683   4.468 -0.7390  0.5578 -0.4216
   18RES   C381 7555   4.698   0.744   4.605  0.4920  0.4978  0.0198
   18RES   C382 7556   4.712   0.650   4.717  0.1117 -0.0127  0.0876
   18RES   C383 7557   4.693   0.691   4.859  0.1290  0.1020  0.6975
   18RES   C384 7558   4.678   0.576   4.948  0.1354 -0.1035  0.0425
   18RES   C385 7559   4.651   0.603   5.098  0.2630  1.1213 -0.2513
   18RES   C386 7560   4.780   0.590   5.170  0.2932  0.4088 -0.0347
   18RES   H387 7561   4.826   0.640   4.486 -1.1118  0.7176  2.1889
   18RES   H388 7562   4.747   0.757   4.391  0.4249  0.7370  0.0442
   18RES   H389 7563   4.593   0.773   4.612  0.9532  2.8747 -2.2536
   18RES   H390 7564   4.813   0.609   4.710 -0.3896 -1.0329 -1.1411
   18RES   H391 7565   4.645   0.567   4.694 -0.9008  0.5290  1.0011
   18RES   H392 7566   4.791   0.735   4.881  1.9705 -3.0656 -0.7473
   18RES   H393 7567   4.614   0.765   4.871 -0.0718  0.3371 -1.6871
   18RES   H394 7568   4.590   0.520   4.915  0.4763 -0.5985 -0.0462
   18RES   H395 7569   4.766   0.512   4.940  0.0268 -0.0411 -1.8092
   18RES   H396 7570   4.577   0.531   5.132  4.0099 -2.0446  1.5244
   18RES   H397 7571   4.614   0.706   5.101 -0.2414  0.8830  2.5556
   18RES   H398 7572   4.859   0.653   5.128 -0.9092  0.0289 -2.9202
   18RES   H399 7573   4.817   0.487   5.175  1.5520  0.9001  1.1509
   18RES   H400 7574   4.774   0.627   5.273 -0.2462  2.2786 -0.7183
   18RES   C401 7575   4.778   0.869   4.619 -0.2078  0.7397  0.0285
   18RES   C402 7576   4.714   0.998   4.560  0.3302  0.5977 -1.0717
   18RES   C403 7577   4.584   1.050   4.639  0.2460 -0.0514 -0.7667
   18RES   C404 7578   4.583   1.084   4.789 -0.3541 -0.1353 -0.2305
   18RES   C405 7579   4.452   1.128   4.838  0.1758 -1.2011 -0.4716
   18RES   C406 7580   4.447   1.153   4.991 -0.3540  0.0705 -0.1333
   18RES   C407 7581   4.407   1.027   5.065 -0.6839 -0.3609  0.0364
   18RES   H408 7582   4.882   0.855   4.588 -0.8385  0.7420 -2.1903
   18RES   H409 7583   4.784   0.898   4.724  3.5309  0.4410 -0.0319
   18RES   H410 7584   4.679   0.971   4.461  1.0620 -0.1544 -1.1304
   18RES   H411 7585   4.511   0.971   4.628  1.8613 -1.7906  0.6820
   18RES   H412 7586   4.537   1.128   4.578  2.4592  2.4401  0.5863
   18RES   H413 7587   4.660   1.161   4.794  0.7539 -1.2858  1.1992
   18RES   H414 7588   4.628   0.999   4.840  0.6035 -1.5259 -3.2257
   18RES   H415 7589   4.413   1.207   4.774 -1.4278 -2.2072 -0.7701
   18RES   H416 7590   4.384   1.046   4.812  0.7413 -1.8866  0.1748
   18RES   H417 7591   4.538   1.204   5.025 -1.4270  2.3268 -0.5152
   18RES   H418 7592   4.367   1.223   5.015 -0.0599  1.0939 -2.0177
   18RES   H419 7593   4.405   1.063   5.168 -0.3758  0.4675 -0.2461
   18RES   H420 7594   4.481   0.947   5.062  1.5794  1.6784  0.2666
   18RES   H421 7595   4.317   0.969   5.043 -0.6472 -0.5575  0.4022
   18RES   H422 7596   4.784   1.082   4.555 -1.0927  1.9575  1.0767
   19RES     C1 7597   2.952   5.382   6.432 -0.1381 -0.2218  0.5157
   19RES     C2 7598   2.853   5.317   6.525  0.3501 -0.8047 -0.8071
   19RES     C3 7599   2.923   5.282   6.657 -0.0703 -0.1254 -0.2804
   19RES     C4 7600   2.840   5.215   6.772 -0.0425 -0.3778  0.0554
   19RES     C5 7601   2.907   5.256   6.907 -0.2660  0.4809  0.3260
   19RES     C6 7602   2.833   5.207   7.024  0.3456  0.3780 -0.1632
   19RES     C7 7603   2.912   5.209   7.159 -0.2000  0.3067  0.0644
   19RES     H8 7604   3.002   5.465   6.482  0.6954 -0.1352 -0.4561
   19RES     H9 7605   2.912   5.418   6.337  1.2365  2.7628  1.0105
   19RES    H10 7606   2.785   5.399   6.549  2.2963  0.4664  0.4598
   19RES    H11 7607   3.016   5.227   6.643 -0.7701 -0.4059 -4.2925
   19RES    H12 7608   2.973   5.374   6.687 -1.3856  1.7088 -3.5353
   19RES    H13 7609   2.742   5.261   6.762  0.4745  0.2859 -2.2038
   19RES    H14 7610   2.828   5.107   6.766 -0.3085 -0.1923 -3.2774
   19RES    H15 7611   2.908   5.364   6.922  0.6636  0.6208 -0.6819
   19RES    H16 7612   3.009   5.221   6.919  0.0400  1.3471  0.2555
   19RES    H17 7613   2.795   5.106   7.004 -1.0600  1.0047 -0.6877
   19RES    H18 7614   2.739   5.262   7.029 -0.6440 -1.2292 -0.5832
   19RES    H19 7615   2.954   5.309   7.174 -1.1049  0.8230 -0.7392
   19RES    H20 7616   2.993   5.138   7.147  1.1348  2.2205 -2.9285
   19RES    H21 7617   2.844   5.190   7.243 -1.3357  3.2481 -0.1271
   19RES    H22 7618   3.026   5.307   6.406 -0.5055 -0.4245  0.0348
   19RES    C23 7619   2.787   5.189   6.470  0.1912  0.7209 -0.3257
   19RES    C24 7620   2.713   5.190   6.334  0.2259  1.0816  0.4096
   19RES    C25 7621   2.574   5.267   6.339 -0.1802 -0.2302 -0.0175
   19RES    C26 7622   2.609   5.408   6.301 -0.1572  0.6091  0.1869
   19RES    C27 7623   2.473   5.488   6.279 -0.3655  0.0315 -0.4491
   19RES    C28 7624   2.469   5.641   6.256 -0.1644  0.6102  0.6632
   19RES    C29 7625   2.539   5.671   6.122  0.0197 -0.2622  0.7811
   19RES    H30 7626   2.864   5.113   6.472  1.7634  2.2348 -1.4477
   19RES    H31 7627   2.720   5.145   6.544 -0.0201 -0.2569 -1.0930
   19RES    H32 7628   2.782   5.240   6.266 -0.4960 -0.7784 -1.7614
   19RES    H33 7629   2.520   5.252   6.433 -0.4804 -0.9135 -0.2940
   19RES    H34 7630   2.505   5.234   6.262 -0.2422  0.1770 -0.1337
   19RES    H35 7631   2.657   5.409   6.204 -1.9662 -0.8701 -0.7706
   19RES    H36 7632   2.654   5.471   6.377 -0.3070 -0.2299  0.9809
   19RES    H37 7633   2.411   5.482   6.369  2.2591 -1.5019  1.3281
   19RES    H38 7634   2.409   5.442   6.204 -0.0150 -0.6064 -0.3594
   19RES    H39 7635   2.517   5.697   6.337  0.7599  1.1577 -0.2468
   19RES    H40 7636   2.367   5.678   6.259  0.5466  2.6456  0.3546
   19RES    H41 7637   2.639   5.629   6.109 -0.7416 -1.6271 -0.7172
   19RES    H42 7638   2.483   5.637   6.036 -1.4175 -2.2646  2.4604
   19RES    H43 7639   2.549   5.779   6.112  0.5486 -0.2210  1.6882
   19RES    C44 7640   2.691   5.055   6.279  0.4439  0.1524 -1.1208
   19RES    C45 7641   2.819   4.982   6.226 -0.0141  0.6373  0.3469
   19RES    C46 7642   2.816   4.821   6.226  0.3997  0.6925 -0.5250
   19RES    C47 7643   2.831   4.769   6.375  0.0056  0.1805  0.0546
   19RES    C48 7644   2.796   4.624   6.406 -0.3941 -0.3218 -0.7446
   19RES    C49 7645   2.877   4.533   6.317  0.4910  0.0739  0.1286
   19RES    C50 7646   2.854   4.397   6.364 -0.2376  0.9424  0.7397
   19RES    H51 7647   2.622   5.061   6.194 -1.3046 -1.7357  0.1251
   19RES    H52 7648   2.645   4.993   6.356 -0.1947  0.4388 -1.2678
   19RES    H53 7649   2.903   5.003   6.292 -1.7683 -0.8757  3.1607
   19RES    H54 7650   2.896   4.784   6.162 -1.0108 -0.8305 -1.4315
   19RES    H55 7651   2.729   4.778   6.177 -0.9642  0.3636  2.0714
   19RES    H56 7652   2.931   4.784   6.414 -0.1514 -1.3063  1.0804
   19RES    H57 7653   2.765   4.823   6.443 -0.0706 -0.1886  0.2770
   19RES    H58 7654   2.693   4.597   6.383  0.2838 -3.7601 -0.1541
   19RES    H59 7655   2.809   4.589   6.509  0.6470  1.3981 -0.2803
   19RES    H60 7656   2.981   4.566   6.327 -0.5383  3.3482  0.6126
   19RES    H61 7657   2.853   4.545   6.212 -0.1905  0.5794  0.3341
   19RES    H62 7658   2.881   4.335   6.279 -0.9177  2.2319 -0.4361
   19RES    H63 7659   2.749   4.375   6.379  0.0304  0.9096  2.6460
   19RES    H64 7660   2.908   4.380   6.457  0.7922  0.8475  0.1341
   19RES    C65 7661   2.850   5.039   6.087  0.4536  0.2545 -0.2218
   19RES    C66 7662   2.994   5.062   6.042 -0.1838 -0.3400 -0.0805
   19RES    C67 7663   3.056   5.185   6.120 -0.4474 -0.3723 -0.8257
   19RES    C68 7664   3.197   5.237   6.079  0.1175  0.8529  0.1073
   19RES    C69 7665   3.243   5.364   6.155  0.6907  0.5035 -0.5634
   19RES    C70 7666   3.384   5.412   6.097 -0.4934  0.6045  0.2934
   19RES    C71 7667   3.424   5.544   6.161  0.4613  0.3291  0.6888
   19RES    H72 7668   2.797   4.972   6.018 -1.2978 -0.3938  1.6879
   19RES    H73 7669   2.808   5.140   6.088  4.9351  2.2155  0.6021
   19RES    H74 7670   3.052   4.973   6.066 -0.1730 -0.4446 -0.4883
   19RES    H75 7671   2.998   5.276   6.111  1.9691  1.3184  0.0566
   19RES    H76 7672   3.064   5.173   6.228 -0.9590  0.4862 -0.6864
   19RES    H77 7673   3.270   5.158   6.097 -1.2545 -0.6383 -0.7506
   19RES    H78 7674   3.201   5.249   5.971  1.5180  0.3989  0.0993
   19RES    H79 7675   3.166   5.435   6.127  2.4363  1.3410 -3.5566
   19RES    H80 7676   3.238   5.340   6.261 -0.1265 -0.2871 -0.7708
   19RES    H81 7677   3.374   5.421   5.989 -0.9465  0.9737  0.3644
   19RES    H82 7678   3.459   5.336   6.117 -0.9560  0.3053  0.9128
   19RES    H83 7679   3.486   5.525   6.249 -2.0558 -0.5888  2.3309
   19RES    H84 7680   3.487   5.601   6.093  1.4075 -3.5015 -1.8025
   19RES    H85 7681   3.336   5.598   6.196  0.7914  1.1813  0.2069
   19RES    C86 7682   2.991   5.073   5.887 -0.1466 -0.5466  0.1318
   19RES    C87 7683   2.981   4.943   5.819 -0.0745 -0.2132  0.2720
   19RES    C88 7684   2.889   4.962   5.703  0.4257 -0.1684 -0.0439
   19RES    C89 7685   2.738   4.962   5.736 -0.3364  0.4170  0.6362
   19RES    C90 7686   2.655   4.975   5.609  0.0216 -0.1770 -0.1803
   19RES    C91 7687   2.503   4.958   5.639  0.8700 -0.4892  0.1898
   19RES    C92 7688   2.413   4.956   5.514 -0.5881 -0.5779  0.6318
   19RES    H93 7689   2.910   5.143   5.868 -0.8545 -1.4825 -0.3748
   19RES    H94 7690   3.085   5.113   5.848  0.2083  0.0838  1.5781
   19RES    H95 7691   2.938   4.869   5.887 -0.8083 -1.0657 -1.0865
   19RES    H96 7692   2.898   5.057   5.650 -2.3691  0.2222  0.1011
   19RES    H97 7693   2.902   4.873   5.641 -2.3706  0.0201 -0.9607
   19RES    H98 7694   2.730   4.864   5.784 -2.9204  2.0478  3.6398
   19RES    H99 7695   2.718   5.045   5.804  0.4732  2.2558 -1.3336
   19RES   H100 7696   2.685   4.902   5.534 -2.1893  0.4165 -1.7077
   19RES   H101 7697   2.672   5.077   5.575  0.2216 -0.5667 -1.2542
   19RES   H102 7698   2.488   4.867   5.697  0.2094 -1.6673 -1.8051
   19RES   H103 7699   2.463   5.042   5.696 -0.7627  0.6585 -2.5354
   19RES   H104 7700   2.455   4.884   5.444 -0.5805  0.7254 -0.7283
   19RES   H105 7701   2.403   5.055   5.469  1.4325 -1.0453 -0.9138
   19RES   H106 7702   2.313   4.920   5.539 -1.8516  1.1370 -1.6586
   19RES   C107 7703   3.120   4.892   5.771 -0.6240  0.1284 -0.2932
   19RES   C108 7704   3.121   4.737   5.739 -0.4077  0.5818 -0.1747
   19RES   C109 7705   3.261   4.689   5.675  0.0117  0.1411 -0.4347
   19RES   C110 7706   3.290   4.756   5.531  0.2652 -0.6402  0.2702
   19RES   C111 7707   3.420   4.839   5.539  0.1053  0.3613 -0.1550
   19RES   C112 7708   3.449   4.918   5.411  0.5796 -0.3395 -0.2049
   19RES   C113 7709   3.585   4.994   5.430  0.8777  0.1744  0.1596
   19RES   H114 7710   3.191   4.907   5.853 -0.1152 -0.8773 -0.5370
   19RES   H115 7711   3.146   4.944   5.679 -0.0776  1.6436  0.6906
   19RES   H116 7712   3.045   4.715   5.663 -0.7398  2.1215 -0.2864
   19RES   H117 7713   3.264   4.581   5.665  0.0753 -0.0615  1.5731
   19RES   H118 7714   3.341   4.711   5.746 -0.2188 -0.5370  0.0426
   19RES   H119 7715   3.294   4.680   5.452  2.0412 -0.5048  0.2218
   19RES   H120 7716   3.203   4.818   5.510  0.0332 -0.9833  0.2093
   19RES   H121 7717   3.509   4.785   5.572 -0.9263 -0.3394  1.5987
   19RES   H122 7718   3.405   4.914   5.617 -1.6746 -0.4683  0.3371
   19RES   H123 7719   3.449   4.846   5.329 -1.9052  0.9877 -1.4547
   19RES   H124 7720   3.368   4.986   5.386  1.7336 -0.0026 -3.1826
   19RES   H125 7721   3.672   4.929   5.424  1.5792  1.1066  0.2389
   19RES   H126 7722   3.592   5.056   5.341  0.8585 -1.5340 -1.0674
   19RES   H127 7723   3.599   5.060   5.515  0.4678 -1.8628  1.8713
   19RES   C128 7724   3.102   4.646   5.865  0.3208 -0.5956 -0.2065
   19RES   C129 7725   2.998   4.533   5.847 -0.1575 -0.1729 -0.3685
   19RES   C130 7726   2.858   4.606   5.848 -0.4309 -0.6028 -0.3677
   19RES   C131 7727   2.751   4.514   5.802  0.6381  0.5330 -0.2147
   19RES   C132 7728   2.725   4.534   5.653 -0.0311 -0.0911 -0.3078
   19RES   C133 7729   2.663   4.430   5.560 -0.4316  0.3458  0.0186
   19RES   C134 7730   2.758   4.313   5.535  0.1124  0.2258 -0.6387
   19RES   H135 7731   3.203   4.613   5.891  0.2341 -0.1974  0.6425
   19RES   H136 7732   3.067   4.704   5.950 -0.2749  0.8128 -1.4054
   19RES   H137 7733   3.012   4.484   5.751 -3.1859 -0.4656 -0.7046
   19RES   H138 7734   2.863   4.696   5.787 -0.6038 -2.0098 -2.5389
   19RES   H139 7735   2.830   4.637   5.949 -0.0197  1.3326 -0.8243
   19RES   H140 7736   2.661   4.548   5.853 -0.0008 -0.8450 -0.3863
   19RES   H141 7737   2.765   4.410   5.832 -0.9107 -0.1440 -1.7137
   19RES   H142 7738   2.827   4.550   5.617 -0.0039 -1.0915 -0.6745
   19RES   H143 7739   2.673   4.629   5.638  1.3060  0.6203 -0.6012
   19RES   H144 7740   2.650   4.474   5.461  0.2655  3.9577  1.4484
   19RES   H145 7741   2.568   4.396   5.601  1.5224 -3.4753  1.5723
   19RES   H146 7742   2.826   4.322   5.451 -0.2190  1.5754 -0.7739
   19RES   H147 7743   2.689   4.230   5.517  1.0065 -0.5797 -0.4124
   19RES   H148 7744   2.812   4.289   5.627 -0.5683  2.3924  0.3622
   19RES   C149 7745   3.017   4.431   5.960 -0.3081 -1.0723 -0.0748
   19RES   C150 7746   3.099   4.293   5.925  0.5346 -0.1616 -0.1630
   19RES   C151 7747   2.999   4.182   5.876 -0.0738  0.1707 -0.1817
   19RES   C152 7748   3.063   4.061   5.800 -0.4679 -0.0438  0.3288
   19RES   C153 7749   3.085   4.091   5.651 -0.2976  0.1143  0.0151
   19RES   C154 7750   3.198   4.005   5.599  0.1110  0.0620 -0.4281
   19RES   C155 7751   3.220   4.025   5.449  0.7667  0.3592  0.3804
   19RES   H156 7752   3.072   4.478   6.042 -1.0351  2.4408 -1.5195
   19RES   H157 7753   2.922   4.405   6.007  0.7694 -3.9259  0.6318
   19RES   H158 7754   3.172   4.309   5.846  1.3539  0.5174  0.7134
   19RES   H159 7755   2.935   4.149   5.957 -1.5181  0.9140 -0.9909
   19RES   H160 7756   2.923   4.228   5.813  1.5345  1.0986 -1.5088
   19RES   H161 7757   2.995   3.978   5.822  0.5992 -1.1855 -0.6220
   19RES   H162 7758   3.153   4.024   5.849  0.2479  0.1785 -0.8231
   19RES   H163 7759   3.101   4.197   5.632 -0.4859 -0.1156 -1.4708
   19RES   H164 7760   2.996   4.086   5.588  1.5708  0.2922 -2.7332
   19RES   H165 7761   3.163   3.904   5.620  2.3115 -0.8274 -0.8584
   19RES   H166 7762   3.288   4.016   5.659  0.6511 -2.1077 -0.8125
   19RES   H167 7763   3.277   3.941   5.409 -1.7049 -1.0605 -0.2674
   19RES   H168 7764   3.278   4.114   5.424 -1.6564  1.4553 -1.5464
   19RES   H169 7765   3.127   4.035   5.393 -0.1080  1.1533  1.9223
   19RES   C170 7766   3.184   4.244   6.044 -0.6625  0.4652 -0.1063
   19RES   C171 7767   3.324   4.305   6.049  0.2528 -0.9433 -0.3290
   19RES   C172 7768   3.372   4.328   6.193  0.3268 -0.3441 -0.6104
   19RES   C173 7769   3.310   4.458   6.261 -0.2434 -0.1897 -0.0350
   19RES   C174 7770   3.344   4.594   6.201 -0.0526 -0.1017 -0.2566
   19RES   C175 7771   3.270   4.709   6.270 -0.1234  0.0850  0.1670
   19RES   C176 7772   3.277   4.833   6.185  0.0806  1.0515 -0.1478
   19RES   H177 7773   3.200   4.136   6.038  0.7899  0.7000 -0.9288
   19RES   H178 7774   3.135   4.261   6.139  1.1751  0.0964  0.9277
   19RES   H179 7775   3.325   4.399   5.993 -1.9942  1.1036  2.8810
   19RES   H180 7776   3.479   4.325   6.217  0.1383  2.2310  0.6413
   19RES   H181 7777   3.330   4.239   6.240  0.7536  0.8182  2.0678
   19RES   H182 7778   3.321   4.457   6.369 -1.4119  0.5963  0.1008
   19RES   H183 7779   3.201   4.448   6.261 -0.1553 -1.1864  0.7247
   19RES   H184 7780   3.317   4.599   6.096  0.8218  2.9470 -0.3642
   19RES   H185 7781   3.450   4.618   6.211 -0.5336  1.7979  0.3744
   19RES   H186 7782   3.294   4.738   6.373  2.1686  1.9848 -0.8444
   19RES   H187 7783   3.165   4.680   6.273  0.0486 -0.8218 -1.6964
   19RES   H188 7784   3.371   4.887   6.193  1.0189 -0.5932  0.3519
   19RES   H189 7785   3.212   4.905   6.233 -1.3544 -0.0533 -0.3811
   19RES   H190 7786   3.237   4.814   6.085 -1.1136 -0.5206  0.6047
   19RES   C191 7787   3.430   4.221   5.981 -0.6112 -0.8034  0.4700
   19RES   C192 7788   3.559   4.293   5.933 -0.4049  0.1348  0.8553
   19RES   C193 7789   3.684   4.204   5.922 -0.5953 -0.5581  0.3271
   19RES   C194 7790   3.729   4.123   6.039 -0.0295 -0.7892 -0.3681
   19RES   C195 7791   3.776   4.199   6.168 -0.2440  0.0434  0.1104
   19RES   C196 7792   3.849   4.107   6.273 -0.4004 -0.0936 -0.6817
   19RES   C197 7793   3.930   4.190   6.382 -0.2275  0.1497 -0.7821
   19RES   H198 7794   3.383   4.168   5.899  0.0142 -0.9719  0.2142
   19RES   H199 7795   3.450   4.139   6.050 -2.7663 -0.9478  0.9369
   19RES   H200 7796   3.584   4.363   6.013 -1.7067  0.6386  0.8459
   19RES   H201 7797   3.764   4.266   5.882 -0.2108 -0.3081  1.4619
   19RES   H202 7798   3.660   4.131   5.845 -0.3548  0.3248 -0.5967
   19RES   H203 7799   3.813   4.059   6.010  2.8031  1.2323  2.9185
   19RES   H204 7800   3.664   4.037   6.054 -0.6324 -0.0187  1.5007
   19RES   H205 7801   3.851   4.273   6.142 -1.2835  0.9651 -0.3131
   19RES   H206 7802   3.696   4.251   6.220 -0.0232 -0.7032  1.2323
   19RES   H207 7803   3.913   4.041   6.214  0.6872 -0.1791  0.5562
   19RES   H208 7804   3.764   4.046   6.305  1.1295 -1.7480  0.3700
   19RES   H209 7805   3.978   4.123   6.454 -1.7697 -0.5571 -0.3926
   19RES   H210 7806   3.862   4.255   6.438  0.2299 -0.3830  0.4103
   19RES   H211 7807   4.021   4.234   6.343  0.5879 -0.4114  0.4612
   19RES   C212 7808   3.535   4.364   5.801 -0.0966 -0.0474  0.0016
   19RES   C213 7809   3.628   4.476   5.765 -0.3144 -0.5943  0.0186
   19RES   C214 7810   3.606   4.504   5.614 -0.3094 -0.5128  0.4408
   19RES   C215 7811   3.680   4.412   5.507  0.9255 -0.1547 -0.2537
   19RES   C216 7812   3.650   4.468   5.366  0.3083 -0.8062 -0.3692
   19RES   C217 7813   3.725   4.385   5.253 -0.3229 -0.1921 -0.2834
   19RES   C218 7814   3.697   4.426   5.103  0.2649 -0.4624  0.9239
   19RES   H219 7815   3.431   4.396   5.794  0.3348  1.4920  0.4998
   19RES   H220 7816   3.548   4.282   5.730  0.6062 -0.0555  0.1308
   19RES   H221 7817   3.731   4.440   5.767 -0.8811 -2.3515 -1.2067
   19RES   H222 7818   3.501   4.503   5.586 -0.4411 -0.5750  0.9425
   19RES   H223 7819   3.625   4.607   5.583  1.3979 -0.5282  1.3619
   19RES   H224 7820   3.635   4.313   5.518  2.3070 -1.0109 -2.0298
   19RES   H225 7821   3.788   4.403   5.520  0.8386 -0.1529  0.4525
   19RES   H226 7822   3.543   4.472   5.349  0.3572  2.1023 -0.1744
   19RES   H227 7823   3.684   4.571   5.353 -1.8407  0.2257  1.7540
   19RES   H228 7824   3.832   4.390   5.273 -0.2685  1.0418 -0.7885
   19RES   H229 7825   3.703   4.279   5.262  0.5953 -0.1879  2.5927
   19RES   H230 7826   3.735   4.525   5.078  1.2956 -1.3059 -0.8984
   19RES   H231 7827   3.590   4.421   5.083  0.6498  0.8655 -1.7120
   19RES   H232 7828   3.752   4.357   5.040  2.6719  3.1262 -1.0879
   19RES   C233 7829   3.610   4.592   5.862  0.0313  0.3129 -0.6981
   19RES   C234 7830   3.703   4.721   5.835  0.4314 -0.2802  0.4537
   19RES   C235 7831   3.682   4.824   5.947  0.1826  0.4056  0.2030
   19RES   C236 7832   3.560   4.916   5.913 -0.4238 -0.1777  0.1143
   19RES   C237 7833   3.610   5.047   5.848  0.0093 -0.1268  0.6960
   19RES   C238 7834   3.500   5.150   5.844  0.2573 -0.6037 -0.2744
   19RES   C239 7835   3.546   5.276   5.780  0.3393 -0.6647 -0.4497
   19RES   H240 7836   3.658   4.558   5.954  0.1938 -1.2751 -1.3457
   19RES   H241 7837   3.511   4.610   5.903  0.5733  1.4891  0.1127
   19RES   H242 7838   3.652   4.765   5.750 -0.7488  1.0028  1.7848
   19RES   H243 7839   3.772   4.883   5.967  1.7484 -1.2603 -1.7353
   19RES   H244 7840   3.659   4.773   6.040 -2.0721  0.4054 -0.3205
   19RES   H245 7841   3.528   4.950   6.011  0.3437  0.1388  0.2629
   19RES   H246 7842   3.475   4.861   5.874 -1.2822 -0.3150  2.0954
   19RES   H247 7843   3.642   5.013   5.749  0.5500  1.0831  0.4439
   19RES   H248 7844   3.692   5.096   5.900  0.5248 -0.4544  0.1981
   19RES   H249 7845   3.416   5.108   5.788 -0.1170 -1.8828  1.1915
   19RES   H250 7846   3.467   5.196   5.938  0.8090 -0.8528  0.0425
   19RES   H251 7847   3.479   5.359   5.759  0.3572 -0.3034  0.8323
   19RES   H252 7848   3.615   5.334   5.842 -1.4793  1.1506 -0.0921
   19RES   H253 7849   3.584   5.242   5.684 -2.7948 -3.7992 -0.6869
   19RES   C254 7850   3.850   4.690   5.806  0.0651 -0.3300  0.1109
   19RES   C255 7851   3.943   4.804   5.770 -0.2617 -0.4714  0.2181
   19RES   C256 7852   3.933   4.833   5.620  0.4001  0.2309 -0.1042
   19RES   C257 7853   3.980   4.724   5.524  0.1094  0.2051 -0.3821
   19RES   C258 7854   3.922   4.735   5.384  0.1441 -0.3604  0.2891
   19RES   C259 7855   3.986   4.841   5.304 -0.0724  0.3591 -0.6228
   19RES   C260 7856   3.932   4.860   5.166 -0.0822  0.8563 -0.2674
   19RES   H261 7857   3.858   4.606   5.737  0.7295 -0.2947  0.1399
   19RES   H262 7858   3.886   4.652   5.902  1.3468  1.9368  0.5809
   19RES   H263 7859   3.912   4.892   5.825  0.6261  1.5016 -2.3718
   19RES   H264 7860   3.992   4.922   5.601  0.3852  0.2110 -0.2407
   19RES   H265 7861   3.827   4.854   5.604  0.2635  0.5490  1.1735
   19RES   H266 7862   4.088   4.726   5.510  0.2054  0.7481  0.3863
   19RES   H267 7863   3.967   4.624   5.567 -0.1183  0.4973  0.2335
   19RES   H268 7864   3.815   4.758   5.390 -0.3818 -1.4646 -3.7395
   19RES   H269 7865   3.925   4.640   5.332 -0.1563  0.3633 -1.0597
   19RES   H270 7866   3.988   4.934   5.360  1.3481 -0.5115  0.8054
   19RES   H271 7867   4.088   4.805   5.301 -0.1018  0.3002 -0.9842
   19RES   H272 7868   3.952   4.771   5.107 -1.8797 -0.6984  1.4204
   19RES   H273 7869   3.824   4.878   5.172 -0.0499  1.0150 -0.1469
   19RES   H274 7870   3.973   4.943   5.108 -0.1392  0.3773 -0.9929
   19RES   C275 7871   4.095   4.768   5.825 -0.1140  0.7323  0.3343
   19RES   C276 7872   4.185   4.889   5.835 -0.1342  0.4604 -0.4034
   19RES   C277 7873   4.324   4.854   5.778 -0.0869 -0.0548  0.3948
   19RES   C278 7874   4.347   4.853   5.629 -0.9761  0.6923  0.2127
   19RES   C279 7875   4.483   4.922   5.591  0.1685  1.3550  0.4061
   19RES   C280 7876   4.517   4.867   5.450 -0.1335 -1.1446 -0.1328
   19RES   C281 7877   4.620   4.936   5.364  0.0373  0.5896  0.3180
   19RES   H282 7878   4.129   4.682   5.767 -0.7267 -0.5139  1.7702
   19RES   H283 7879   4.071   4.739   5.927 -2.6817 -2.7593 -1.1533
   19RES   H284 7880   4.142   4.977   5.786  0.7464  0.8246 -0.5358
   19RES   H285 7881   4.392   4.932   5.812 -1.6374  0.0759  3.3284
   19RES   H286 7882   4.357   4.761   5.823  1.6716 -0.1845 -1.1031
   19RES   H287 7883   4.270   4.917   5.586 -1.2308  0.0532 -0.2905
   19RES   H288 7884   4.335   4.754   5.584 -0.2864  1.3670 -1.4828
   19RES   H289 7885   4.566   4.904   5.659 -0.3362  2.6940  1.4111
   19RES   H290 7886   4.469   5.030   5.588 -0.8829  1.2320  0.5688
   19RES   H291 7887   4.526   4.759   5.461  1.2455 -1.0748 -0.5352
   19RES   H292 7888   4.428   4.873   5.388 -0.5069  1.3527  0.5827
   19RES   H293 7889   4.626   4.876   5.273  3.8396  0.6051  0.4712
   19RES   H294 7890   4.720   4.925   5.408  0.4727 -0.4704 -0.9055
   19RES   H295 7891   4.601   5.042   5.350  1.5959  1.1053  1.8977
   19RES   C296 7892   4.207   4.923   5.985  0.2279 -0.2324 -0.5989
   19RES   C297 7893   4.093   4.981   6.068  0.1323 -0.3901  0.2358
   19RES   C298 7894   4.028   5.109   6.007  0.3346 -0.5636  0.0817
   19RES   C299 7895   3.922   5.182   6.090  0.4737 -0.5930  0.2889
   19RES   C300 7896   3.895   5.322   6.043 -0.9198 -0.3173  0.4531
   19RES   C301 7897   3.776   5.386   6.126 -0.3568  0.6744 -0.2806
   19RES   C302 7898   3.820   5.436   6.263  0.3285  0.6162  0.0410
   19RES   H303 7899   4.238   4.835   6.041 -1.1953 -0.8886 -0.8044
   19RES   H304 7900   4.288   4.996   5.986 -1.8746  2.1913  0.5138
   19RES   H305 7901   4.012   4.908   6.067  0.9164 -1.3209 -2.5166
   19RES   H306 7902   4.104   5.182   5.977  0.2900 -0.5648 -0.0326
   19RES   H307 7903   3.980   5.083   5.912 -1.8844  1.4943  0.5952
   19RES   H308 7904   3.944   5.176   6.196 -0.8090 -2.9098  0.4509
   19RES   H309 7905   3.825   5.133   6.090 -0.0114  0.2889 -1.4707
   19RES   H310 7906   3.874   5.325   5.936 -1.1562  1.5372  0.5364
   19RES   H311 7907   3.984   5.382   6.063 -0.0898 -0.8775 -1.4187
   19RES   H312 7908   3.726   5.472   6.082  0.8154  1.2958 -0.4069
   19RES   H313 7909   3.698   5.310   6.141  0.5373 -0.3171 -0.5863
   19RES   H314 7910   3.877   5.528   6.251  0.7133  0.5690  1.3537
   19RES   H315 7911   3.743   5.454   6.338 -1.6100 -0.5656 -1.6177
   19RES   H316 7912   3.897   5.368   6.301 -0.0322  1.7758  3.0269
   19RES   C317 7913   4.131   4.994   6.220  0.2427  0.2800  0.2749
   19RES   C318 7914   4.035   4.909   6.307 -0.2987 -0.3279  0.0019
   19RES   C319 7915   4.070   4.753   6.280  0.4792 -0.2095 -0.0340
   19RES   C320 7916   3.981   4.646   6.339 -0.7953 -0.4531 -0.2579
   19RES   C321 7917   3.835   4.662   6.283 -0.4774  0.3264  0.3413
   19RES   C322 7918   3.740   4.543   6.308 -0.3645 -0.0687 -0.5803
   19RES   C323 7919   3.672   4.543   6.452  0.3055  0.4556 -0.5718
   19RES   H324 7920   4.137   5.099   6.250 -3.1633  0.9619 -1.1937
   19RES   H325 7921   4.225   4.944   6.242  0.9388  0.8651 -1.2437
   19RES   H326 7922   3.930   4.933   6.288  0.5679  2.5011 -1.4553
   19RES   H327 7923   4.175   4.726   6.291  0.7650 -0.2943 -2.7304
   19RES   H328 7924   4.058   4.727   6.175  1.3999  1.4789 -0.5886
   19RES   H329 7925   3.986   4.636   6.448 -0.2114 -0.8453 -0.3186
   19RES   H330 7926   4.027   4.552   6.308 -0.3669 -0.7752  1.2871
   19RES   H331 7927   3.846   4.660   6.174  1.3708 -2.0653  0.5181
   19RES   H332 7928   3.772   4.747   6.308 -1.7493 -0.3622 -0.4695
   19RES   H333 7929   3.797   4.451   6.298  3.5667  2.1974  0.1695
   19RES   H334 7930   3.657   4.556   6.239  0.5873  0.8103 -1.5648
   19RES   H335 7931   3.749   4.541   6.530 -0.4523  0.4280  0.1801
   19RES   H336 7932   3.629   4.444   6.465  1.4401  0.1194  0.7954
   19RES   H337 7933   3.600   4.622   6.469 -0.2891 -0.5870  2.0328
   19RES   C338 7934   4.054   4.956   6.454  0.2435 -0.4491  0.3517
   19RES   C339 7935   3.946   4.919   6.560 -0.3548 -0.4231 -0.2735
   19RES   C340 7936   3.797   4.965   6.516  0.6649  0.3792  0.2653
   19RES   C341 7937   3.761   5.117   6.527 -0.8314  0.7118  0.3820
   19RES   C342 7938   3.626   5.161   6.483  1.1234  0.2986 -0.1922
   19RES   C343 7939   3.511   5.079   6.533 -0.1319  0.5057  0.0070
   19RES   C344 7940   3.375   5.149   6.511 -0.1280 -0.3308  0.1410
   19RES   H345 7941   4.080   5.061   6.470  2.2081 -0.4569 -2.3719
   19RES   H346 7942   4.143   4.906   6.494  0.4464 -0.6737 -0.3778
   19RES   H347 7943   3.949   4.810   6.551 -0.7694 -0.5234  0.6935
   19RES   H348 7944   3.770   4.928   6.418  0.0959 -0.4613  0.7344
   19RES   H349 7945   3.731   4.919   6.590 -0.5254  0.1424 -0.9352
   19RES   H350 7946   3.830   5.166   6.457 -2.8444 -2.2549 -3.8649
   19RES   H351 7947   3.777   5.154   6.628  0.2342  0.6362  0.2459
   19RES   H352 7948   3.611   5.266   6.509  0.4352  0.8305 -2.5233
   19RES   H353 7949   3.612   5.167   6.375 -2.5882 -1.8650  0.0841
   19RES   H354 7950   3.514   4.985   6.479 -0.5232  0.8960 -0.7051
   19RES   H355 7951   3.519   5.048   6.637 -1.6066  1.7546  0.5209
   19RES   H356 7952   3.363   5.198   6.415  2.5730  0.7684  0.3242
   19RES   H357 7953   3.371   5.233   6.581 -3.0343 -0.9705  0.8046
   19RES   H358 7954   3.296   5.082   6.545  0.0600  0.5536  2.4806
   19RES   C359 7955   3.997   4.963   6.701 -0.1810  0.2054  0.1400
   19RES   C360 7956   3.933   4.902   6.821  0.0511  0.2018 -0.0393
   19RES   C361 7957   3.979   4.752   6.843 -0.0746 -0.0198 -0.3155
   19RES   C362 7958   3.902   4.668   6.940 -0.1979 -0.2730  0.5070
   19RES   C363 7959   3.952   4.521   6.946 -0.6271 -0.1843  0.3787
   19RES   C364 7960   4.101   4.494   6.981  0.2862  0.2367 -0.2828
   19RES   C365 7961   4.134   4.349   6.978 -0.2385 -0.1274  0.4497
   19RES   H366 7962   3.986   5.071   6.685  1.3219  0.4695  0.8359
   19RES   H367 7963   4.105   4.951   6.705 -0.5390 -2.5243  2.8905
   19RES   H368 7964   3.827   4.899   6.793 -0.2384 -1.5144  1.1876
   19RES   H369 7965   3.976   4.705   6.745  0.7693  0.4129 -0.5528
   19RES   H370 7966   4.085   4.761   6.865 -0.2978  1.1398  0.3259
   19RES   H371 7967   3.906   4.712   7.039 -1.3191  0.6786  0.1298
   19RES   H372 7968   3.796   4.683   6.921  0.4049 -0.1624 -3.1278
   19RES   H373 7969   3.894   4.463   7.018  1.1928 -1.8075  0.6012
   19RES   H374 7970   3.925   4.469   6.854 -1.9994 -0.5215  0.9643
   19RES   H375 7971   4.170   4.539   6.910  0.1728  0.3569 -0.3151
   19RES   H376 7972   4.121   4.524   7.084 -1.4314  0.1987  0.0743
   19RES   H377 7973   4.238   4.319   6.989 -0.0974  0.0619 -0.4008
   19RES   H378 7974   4.083   4.295   7.059 -0.7606 -2.1480 -1.1541
   19RES   H379 7975   4.107   4.308   6.881  2.0786 -1.4900  0.3408
   19RES   C380 7976   3.937   4.998   6.954 -0.1153  0.2511  0.1451
   19RES   C381 7977   3.840   5.127   6.943  0.0920  0.1396 -0.5430
   19RES   C382 7978   3.688   5.086   6.949  0.0715 -0.5801 -0.3838
   19RES   C383 7979   3.588   5.191   6.903 -0.3033 -0.0018  0.3992
   19RES   C384 7980   3.438   5.149   6.896 -0.0382 -0.0391  0.8993
   19RES   C385 7981   3.335   5.255   6.878  0.1352 -0.3932  0.0067
   19RES   C386 7982   3.337   5.369   6.978  0.4861  0.1725 -1.1271
   19RES   H387 7983   3.910   4.936   7.039 -0.8467  0.2145 -0.1087
   19RES   H388 7984   4.034   5.047   6.955 -0.5884  1.2055  0.8780
   19RES   H389 7985   3.858   5.176   6.848  0.4251  1.6057  0.2514
   19RES   H390 7986   3.667   5.053   7.051 -0.7108 -3.0864 -1.3278
   19RES   H391 7987   3.660   5.003   6.884 -3.7205 -1.8140  2.6485
   19RES   H392 7988   3.600   5.279   6.966  0.1044  0.5859 -0.4959
   19RES   H393 7989   3.619   5.220   6.803 -0.5794 -1.6956 -0.1972
   19RES   H394 7990   3.414   5.089   6.808 -0.1260 -1.4920  1.8830
   19RES   H395 7991   3.410   5.093   6.985 -1.7488 -2.2695 -0.9580
   19RES   H396 7992   3.236   5.209   6.885 -1.5570  2.5784 -3.0242
   19RES   H397 7993   3.334   5.293   6.776  0.9373 -3.2948 -1.1277
   19RES   H398 7994   3.340   5.326   7.078 -1.0922 -0.3573 -1.3000
   19RES   H399 7995   3.241   5.420   6.970  0.5425  0.2001 -1.6920
   19RES   H400 7996   3.413   5.447   6.966  2.4002 -1.1083  2.0212
   19RES   C401 7997   3.873   5.240   7.048 -0.1961 -0.4257  0.4885
   19RES   C402 7998   4.018   5.295   7.044  0.0773 -0.3447  0.8154
   19RES   C403 7999   4.035   5.443   7.097 -0.3406  0.0450 -0.1476
   19RES   C404 8000   4.175   5.514   7.062  0.5066  0.0173  0.3725
   19RES   C405 8001   4.176   5.669   7.070 -0.0856 -0.0273  0.2075
   19RES   C406 8002   4.091   5.759   6.981 -0.0164  0.2904 -0.9678
   19RES   C407 8003   4.131   5.904   6.980  0.5856  0.0808 -0.3291
   19RES   H408 8004   3.851   5.203   7.149  2.2391 -0.6662  0.9666
   19RES   H409 8005   3.806   5.325   7.038  0.4503 -0.2288 -2.4546
   19RES   H410 8006   4.055   5.284   6.942 -0.7157  1.2936  0.3186
   19RES   H411 8007   4.021   5.457   7.204  1.6664 -0.7558  0.2305
   19RES   H412 8008   3.953   5.498   7.050 -0.2418 -0.6506 -1.1486
   19RES   H413 8009   4.192   5.482   6.959 -1.3950 -1.0671  0.3713
   19RES   H414 8010   4.248   5.480   7.134 -0.5739  0.5882  1.7594
   19RES   H415 8011   4.174   5.690   7.177  1.6308 -2.0311  0.6574
   19RES   H416 8012   4.281   5.685   7.046 -0.6589  2.9092 -0.5940
   19RES   H417 8013   4.105   5.716   6.882  0.1656  1.1351 -1.3134
   19RES   H418 8014   3.985   5.752   7.006  0.2634  1.3722  0.5975
   19RES   H419 8015   4.237   5.925   6.994  0.3800 -0.1953  1.9025
   19RES   H420 8016   4.076   5.958   7.057 -0.8478 -0.4721 -0.9418
   19RES   H421 8017   4.088   5.941   6.888 -0.7331  0.8933  0.5961
   19RES   H422 8018   4.098   5.247   7.100  1.7263  1.7166  0.2849
   20RES     C1 8019   0.524   5.346   4.390  0.1180 -0.2256  0.0102
   20RES     C2 8020   0.551   5.326   4.242  0.2884 -0.9797 -0.1609
   20RES     C3 8021   0.458   5.228   4.169  0.0522 -0.0240 -0.0185
   20RES     C4 8022   0.448   5.095   4.230  0.6996  0.1357  0.5632
   20RES     C5 8023   0.375   4.990   4.150 -0.4101  0.0038  0.5954
   20RES     C6 8024   0.345   4.857   4.216  0.4449  0.1282 -0.5205
   20RES     C7 8025   0.463   4.784   4.277 -0.3560 -0.3492  0.0607
   20RES     H8 8026   0.420   5.374   4.406  0.3212  1.3420 -1.2318
   20RES     H9 8027   0.592   5.416   4.437  0.2481 -0.4045  0.0869
   20RES    H10 8028   0.519   5.425   4.210  0.7072 -1.1717 -1.2071
   20RES    H11 8029   0.355   5.263   4.181 -0.6307 -0.5987 -3.5568
   20RES    H12 8030   0.462   5.228   4.060 -0.5065  1.2007 -0.0538
   20RES    H13 8031   0.550   5.055   4.238  1.1533  1.0375 -0.6363
   20RES    H14 8032   0.414   5.115   4.331  0.9192 -1.9173  1.0773
   20RES    H15 8033   0.430   4.980   4.056  0.2078  1.4479  0.7862
   20RES    H16 8034   0.282   5.028   4.106 -1.7912  0.5243  3.8062
   20RES    H17 8035   0.290   4.799   4.141  0.7505 -2.1606  0.9594
   20RES    H18 8036   0.269   4.885   4.290  2.1575  1.5499  0.7346
   20RES    H19 8037   0.518   4.855   4.338 -0.3503  0.2309 -0.6201
   20RES    H20 8038   0.537   4.743   4.207 -0.5175 -1.0765  0.3069
   20RES    H21 8039   0.435   4.697   4.337  0.2113 -1.4252 -1.2005
   20RES    H22 8040   0.545   5.246   4.427  0.6751 -0.7193 -1.5739
   20RES    C23 8041   0.700   5.310   4.209 -0.6896 -0.4546  0.4688
   20RES    C24 8042   0.742   5.329   4.060  0.9442 -0.0872 -0.8023
   20RES    C25 8043   0.881   5.267   4.040  0.5353 -0.0038  0.0701
   20RES    C26 8044   0.881   5.117   4.030 -0.1018  0.1663  0.5976
   20RES    C27 8045   0.842   5.058   3.889 -0.4717  0.3964 -0.7373
   20RES    C28 8046   0.845   4.904   3.877 -0.0011  0.3509 -0.2167
   20RES    C29 8047   0.744   4.819   3.957 -0.4474 -0.3772  0.2077
   20RES    H30 8048   0.744   5.400   4.252 -2.0192 -0.4380  1.8033
   20RES    H31 8049   0.738   5.213   4.240  0.0492 -0.5756 -0.7646
   20RES    H32 8050   0.673   5.270   3.998 -1.6036  0.9341  0.9841
   20RES    H33 8051   0.943   5.290   4.126 -0.5429 -0.1999  0.9165
   20RES    H34 8052   0.922   5.316   3.952 -1.3694  0.7049 -0.4431
   20RES    H35 8053   0.809   5.075   4.101 -1.2552 -1.4775 -1.5021
   20RES    H36 8054   0.985   5.093   4.048 -0.2497  0.2077  1.5416
   20RES    H37 8055   0.909   5.101   3.815  1.9676 -1.9318  0.0153
   20RES    H38 8056   0.741   5.094   3.871 -0.1634  1.6554 -0.0087
   20RES    H39 8057   0.944   4.874   3.910  0.8088  3.6466  0.6205
   20RES    H40 8058   0.840   4.881   3.771  2.9615 -1.3287 -0.0372
   20RES    H41 8059   0.779   4.717   3.971  1.1582 -0.0561 -1.2468
   20RES    H42 8060   0.738   4.854   4.060 -0.1835  1.2515 -0.3165
   20RES    H43 8061   0.642   4.826   3.920  0.3670  3.2029 -1.5514
   20RES    C44 8062   0.733   5.475   4.011  0.3968  0.7056 -0.3250
   20RES    C45 8063   0.736   5.502   3.858 -0.1605 -0.3584  0.2709
   20RES    C46 8064   0.606   5.435   3.798  0.1166  0.3432  0.6906
   20RES    C47 8065   0.582   5.467   3.645  0.5160  0.5714 -0.3911
   20RES    C48 8066   0.503   5.363   3.568 -0.2987  0.3024 -0.9218
   20RES    C49 8067   0.450   5.414   3.431 -0.2392  0.5636  0.3781
   20RES    C50 8068   0.392   5.312   3.330 -0.1204  0.2183 -0.3720
   20RES    H51 8069   0.818   5.526   4.056  1.0692 -0.1990 -0.5619
   20RES    H52 8070   0.639   5.521   4.040  0.2779  1.3003 -1.5949
   20RES    H53 8071   0.822   5.459   3.807 -0.0139  0.0115  0.2094
   20RES    H54 8072   0.512   5.439   3.853  0.7228 -0.1679  1.7755
   20RES    H55 8073   0.629   5.328   3.798  0.3905  0.3552 -2.2424
   20RES    H56 8074   0.522   5.557   3.641  3.0535  2.3707  0.7504
   20RES    H57 8075   0.673   5.498   3.592  0.6415 -1.5139 -1.4823
   20RES    H58 8076   0.421   5.341   3.636  0.0109 -0.2483 -0.7288
   20RES    H59 8077   0.555   5.269   3.551 -0.0292  0.1528  0.6451
   20RES    H60 8078   0.522   5.480   3.383 -0.4907  0.6049  0.0594
   20RES    H61 8079   0.359   5.472   3.451 -1.3895 -0.9125 -0.4726
   20RES    H62 8080   0.475   5.257   3.286 -1.4139 -1.7936 -0.3748
   20RES    H63 8081   0.323   5.360   3.262 -1.2704  1.4884  1.6368
   20RES    H64 8082   0.346   5.225   3.377  1.8320 -0.2622  0.7176
   20RES    C65 8083   0.742   5.656   3.827 -0.4908 -0.4645  0.8454
   20RES    C66 8084   0.891   5.716   3.840  0.3827  0.2730  0.2282
   20RES    C67 8085   0.894   5.863   3.876 -0.1745  0.0244  0.1874
   20RES    C68 8086   0.862   5.960   3.761  0.2419  0.8740 -0.1102
   20RES    C69 8087   0.888   6.111   3.797 -0.4236 -0.2652 -0.4524
   20RES    C70 8088   0.846   6.213   3.697 -0.2287 -0.7913 -1.0635
   20RES    C71 8089   0.901   6.356   3.717  0.3259  0.6030  0.1865
   20RES    H72 8090   0.709   5.674   3.725 -0.8468  0.9541  1.1918
   20RES    H73 8091   0.657   5.698   3.882  0.5565  1.1783  1.2354
   20RES    H74 8092   0.935   5.661   3.924  1.7337 -0.9928 -1.2871
   20RES    H75 8093   0.824   5.876   3.959 -1.9513  2.3512 -1.6334
   20RES    H76 8094   0.989   5.882   3.925 -0.1306 -0.5300  0.3243
   20RES    H77 8095   0.937   5.942   3.683  0.7563 -2.2451  1.0590
   20RES    H78 8096   0.764   5.933   3.722 -0.1959 -0.8465  2.0964
   20RES    H79 8097   0.854   6.118   3.900 -0.4666 -2.0852 -0.3321
   20RES    H80 8098   0.997   6.112   3.808 -0.2534 -0.6635 -2.0347
   20RES    H81 8099   0.738   6.206   3.687 -0.1756  0.1655 -2.5282
   20RES    H82 8100   0.885   6.187   3.599  1.7406  1.6258 -0.9912
   20RES    H83 8101   1.009   6.365   3.719  0.3253  1.1703 -1.3273
   20RES    H84 8102   0.865   6.421   3.636 -0.3664 -1.2053 -0.9883
   20RES    H85 8103   0.853   6.393   3.807 -1.2001  2.2219 -1.2385
   20RES    C86 8104   1.000   5.674   3.731  0.2538  0.5643  0.1911
   20RES    C87 8105   1.091   5.555   3.765 -0.1403 -0.3814 -0.3639
   20RES    C88 8106   1.120   5.482   3.628  0.1509 -0.6818  0.4207
   20RES    C89 8107   1.014   5.378   3.587  0.1353 -0.1861 -0.7175
   20RES    C90 8108   1.049   5.289   3.458 -0.2222  0.4376 -0.4344
   20RES    C91 8109   0.936   5.184   3.417  0.3786  0.1774  0.9625
   20RES    C92 8110   0.827   5.249   3.331  0.0138 -0.0722  1.2331
   20RES    H93 8111   0.948   5.668   3.636  1.7545  1.0158 -0.6641
   20RES    H94 8112   1.061   5.763   3.715  0.4966  0.3733  0.0493
   20RES    H95 8113   1.037   5.485   3.829 -0.2630 -0.9871 -1.1231
   20RES    H96 8114   1.136   5.556   3.549  0.8404 -2.6501 -1.3215
   20RES    H97 8115   1.212   5.424   3.641  0.4673 -0.0927  0.8321
   20RES    H98 8116   0.983   5.314   3.670 -1.6994 -1.6822 -2.4934
   20RES    H99 8117   0.920   5.427   3.561 -1.0058 -2.4047 -0.9336
   20RES   H100 8118   1.133   5.226   3.485 -0.5119  0.6370  0.9868
   20RES   H101 8119   1.080   5.345   3.370 -0.5905  0.2307 -0.6993
   20RES   H102 8120   0.981   5.105   3.357 -3.4832 -1.4764  0.1229
   20RES   H103 8121   0.899   5.141   3.510  0.7965 -0.4181  0.8542
   20RES   H104 8122   0.868   5.331   3.271 -0.2400 -0.7816  0.0632
   20RES   H105 8123   0.745   5.284   3.394 -0.6769 -0.8450  0.7864
   20RES   H106 8124   0.797   5.171   3.260  0.5691 -0.7010  1.6842
   20RES   C107 8125   1.207   5.593   3.859  0.2864 -0.4303 -0.0391
   20RES   C108 8126   1.302   5.473   3.880  0.5638 -1.0188  0.3306
   20RES   C109 8127   1.423   5.525   3.964  0.1216 -0.3031 -0.3849
   20RES   C110 8128   1.401   5.561   4.110  0.4530 -0.2849 -0.1370
   20RES   C111 8129   1.533   5.609   4.188 -0.0309 -0.2785  0.3192
   20RES   C112 8130   1.514   5.614   4.334 -0.1658 -0.2527  0.3104
   20RES   C113 8131   1.638   5.660   4.406 -0.1982 -0.5661  0.7601
   20RES   H114 8132   1.170   5.610   3.960 -1.2594  2.8551 -1.0892
   20RES   H115 8133   1.263   5.679   3.821  1.2710 -1.6445 -1.3988
   20RES   H116 8134   1.349   5.464   3.782 -0.0761  1.2450 -0.2194
   20RES   H117 8135   1.477   5.607   3.917 -0.9743  1.4606  1.3470
   20RES   H118 8136   1.498   5.446   3.959  0.3300 -0.1962  0.8393
   20RES   H119 8137   1.329   5.643   4.116  1.6850  0.7221  1.1331
   20RES   H120 8138   1.355   5.477   4.162 -1.9786 -0.7391 -2.8885
   20RES   H121 8139   1.558   5.714   4.173 -1.0780  0.1139  1.2025
   20RES   H122 8140   1.615   5.546   4.155  0.7978  1.7007 -1.5505
   20RES   H123 8141   1.436   5.684   4.364  1.7151  1.8749  0.4164
   20RES   H124 8142   1.479   5.515   4.362 -1.7101  0.2267  0.1455
   20RES   H125 8143   1.667   5.759   4.371  1.6269 -1.6481 -0.8875
   20RES   H126 8144   1.631   5.665   4.515  2.8925 -0.4136  1.0135
   20RES   H127 8145   1.724   5.594   4.389 -0.7910 -0.7246 -1.8511
   20RES   C128 8146   1.240   5.335   3.934 -0.6894  0.1917 -0.7531
   20RES   C129 8147   1.331   5.209   3.903  0.3193  0.0320 -0.3404
   20RES   C130 8148   1.315   5.177   3.752  0.2593 -0.0265 -0.4998
   20RES   C131 8149   1.404   5.063   3.701  0.4045  0.2163 -0.5079
   20RES   C132 8150   1.379   5.019   3.553 -0.1321  0.1830 -0.2121
   20RES   C133 8151   1.238   4.963   3.522  0.2494  0.4823  0.4512
   20RES   C134 8152   1.202   4.828   3.585  0.1430 -0.1346  0.5594
   20RES   H135 8153   1.228   5.333   4.042 -1.4637  2.8330 -0.7517
   20RES   H136 8154   1.136   5.319   3.905 -0.7625 -3.5161  1.3327
   20RES   H137 8155   1.436   5.231   3.919  0.4969 -2.0409  1.5678
   20RES   H138 8156   1.352   5.257   3.687  2.0392  0.1138  0.6480
   20RES   H139 8157   1.210   5.165   3.727 -0.1431 -0.0878  1.1516
   20RES   H140 8158   1.412   4.978   3.768  3.0200  0.6850 -0.1736
   20RES   H141 8159   1.509   5.090   3.710  0.5225 -0.9606  1.9857
   20RES   H142 8160   1.452   4.945   3.519 -1.9561 -0.1692 -3.5887
   20RES   H143 8161   1.393   5.105   3.487  1.3353 -0.0050 -0.1582
   20RES   H144 8162   1.230   4.956   3.413 -2.5282 -0.7607  0.7023
   20RES   H145 8163   1.160   5.035   3.545 -1.1325 -0.4529 -1.1746
   20RES   H146 8164   1.188   4.851   3.690 -0.7001 -2.1380  0.9270
   20RES   H147 8165   1.289   4.763   3.572 -0.0164 -0.2667  0.1285
   20RES   H148 8166   1.113   4.775   3.550 -1.3354  1.7675  1.3520
   20RES   C149 8167   1.292   5.085   3.990 -0.4211 -0.1459  0.3934
   20RES   C150 8168   1.404   5.018   4.072 -0.0153 -0.2726 -0.2382
   20RES   C151 8169   1.357   4.889   4.131 -0.3210  0.1021 -0.2410
   20RES   C152 8170   1.355   4.769   4.038  0.0175  0.1308 -0.2070
   20RES   C153 8171   1.292   4.645   4.107 -0.2911  0.4025  0.1065
   20RES   C154 8172   1.231   4.541   4.013  0.3566 -0.2793 -0.5478
   20RES   C155 8173   1.326   4.494   3.897 -0.1232 -0.2181  0.2239
   20RES   H156 8174   1.220   5.107   4.069 -0.0399 -1.4100  1.1148
   20RES   H157 8175   1.250   5.007   3.926 -1.1530  0.3657  0.2526
   20RES   H158 8176   1.485   4.984   4.008  1.5475  0.4712  1.3315
   20RES   H159 8177   1.418   4.864   4.218  3.9886 -0.0200 -3.1554
   20RES   H160 8178   1.252   4.893   4.162 -0.0260  0.3171  0.7598
   20RES   H161 8179   1.457   4.743   4.011 -0.1441 -1.0545  0.2714
   20RES   H162 8180   1.296   4.783   3.948  0.2497 -1.2005 -0.5842
   20RES   H163 8181   1.207   4.690   4.158 -0.5616  1.7814 -1.5165
   20RES   H164 8182   1.366   4.604   4.177 -1.4760 -0.8979  0.6179
   20RES   H165 8183   1.137   4.570   3.965  0.5923  0.3463 -0.6369
   20RES   H166 8184   1.199   4.457   4.075  1.0374  0.3523  0.6681
   20RES   H167 8185   1.272   4.418   3.840 -1.0422 -0.2920  1.1810
   20RES   H168 8186   1.421   4.454   3.935  0.6731  0.1274 -1.3555
   20RES   H169 8187   1.344   4.582   3.836  1.5636  0.1492  1.2054
   20RES   C170 8188   1.477   5.113   4.176  0.1668 -0.2277 -0.8364
   20RES   C171 8189   1.619   5.070   4.227  0.5896  0.7296  0.4163
   20RES   C172 8190   1.716   5.092   4.113 -0.0413  0.1384  0.4271
   20RES   C173 8191   1.758   5.238   4.085 -0.4038 -0.4186 -0.5712
   20RES   C174 8192   1.838   5.256   3.953 -0.2288 -0.0573  0.3563
   20RES   C175 8193   1.842   5.402   3.917 -0.6119  0.8443 -0.6179
   20RES   C176 8194   1.926   5.429   3.797  0.1889  0.0731  0.6374
   20RES   H177 8195   1.411   5.105   4.262  0.2932  0.6787 -0.6489
   20RES   H178 8196   1.472   5.219   4.149 -0.7783  0.3075  1.3656
   20RES   H179 8197   1.612   4.963   4.247  0.8106  0.8807  1.2880
   20RES   H180 8198   1.672   5.056   4.020 -1.7315 -0.0904  1.3132
   20RES   H181 8199   1.812   5.043   4.132  0.8350  1.3562 -0.7527
   20RES   H182 8200   1.803   5.288   4.171 -0.6715  0.7281 -1.0825
   20RES   H183 8201   1.660   5.285   4.075 -0.3862 -0.0259  1.0314
   20RES   H184 8202   1.787   5.213   3.867 -0.7801 -0.3905  0.8453
   20RES   H185 8203   1.935   5.209   3.968 -0.2316 -0.5949 -1.1944
   20RES   H186 8204   1.869   5.470   3.998 -0.0776 -0.3980  0.2668
   20RES   H187 8205   1.741   5.437   3.897 -0.0387  1.4104 -2.5962
   20RES   H188 8206   1.941   5.536   3.782  1.0828 -0.2989 -1.4326
   20RES   H189 8207   1.879   5.400   3.703  0.8102 -0.8710  0.6109
   20RES   H190 8208   2.028   5.391   3.795  0.0033 -0.4143 -2.1579
   20RES   C191 8209   1.672   5.150   4.353  0.0674 -0.8843  0.1698
   20RES   C192 8210   1.606   5.107   4.487  0.7131 -0.4219  0.3013
   20RES   C193 8211   1.626   4.952   4.522  0.2946 -0.0575  1.2205
   20RES   C194 8212   1.509   4.895   4.610 -0.4962  0.1316 -0.4378
   20RES   C195 8213   1.394   4.844   4.518  0.5317  0.5756 -0.3564
   20RES   C196 8214   1.277   4.775   4.591 -0.3104  0.6992 -0.1102
   20RES   C197 8215   1.202   4.691   4.485 -0.0321  0.1238  0.0250
   20RES   H198 8216   1.667   5.257   4.336  1.0137 -0.7194  0.8853
   20RES   H199 8217   1.778   5.123   4.357  0.5643  0.7054 -1.4778
   20RES   H200 8218   1.497   5.112   4.487  0.6738 -1.1821  1.0709
   20RES   H201 8219   1.722   4.939   4.572  1.0421  1.9912  0.3436
   20RES   H202 8220   1.641   4.887   4.436 -2.0263 -0.4111  1.0443
   20RES   H203 8221   1.462   4.966   4.678  1.1103  2.9475 -2.1692
   20RES   H204 8222   1.553   4.815   4.669 -0.4750 -0.9390 -1.8834
   20RES   H205 8223   1.356   4.916   4.445  1.5442  0.9829 -0.4916
   20RES   H206 8224   1.448   4.764   4.468  0.8192  0.1093  0.6743
   20RES   H207 8225   1.205   4.839   4.642  1.4139  3.4996 -1.0383
   20RES   H208 8226   1.317   4.707   4.666  0.5715 -0.6722 -1.7866
   20RES   H209 8227   1.258   4.605   4.447  0.1786  0.6102 -0.7815
   20RES   H210 8228   1.183   4.749   4.395 -0.9383  1.0614  0.7982
   20RES   H211 8229   1.103   4.662   4.518 -0.5829  0.4487 -1.3080
   20RES   C212 8230   1.660   5.203   4.603 -0.8482 -0.5797 -0.9517
   20RES   C213 8231   1.612   5.353   4.619 -0.0770 -0.1722 -0.3533
   20RES   C214 8232   1.457   5.384   4.618  0.0092 -0.4574 -0.4437
   20RES   C215 8233   1.377   5.289   4.712  0.1955 -0.0509 -0.4258
   20RES   C216 8234   1.234   5.312   4.707  0.5045 -0.3908  0.2737
   20RES   C217 8235   1.165   5.283   4.574 -0.0192 -0.3990  0.3405
   20RES   C218 8236   1.021   5.342   4.567  0.5080  0.8740  0.5650
   20RES   H219 8237   1.769   5.196   4.611 -1.0403 -1.5952  1.2520
   20RES   H220 8238   1.642   5.150   4.697  1.0171  0.6865  0.1621
   20RES   H221 8239   1.652   5.408   4.534 -0.5825 -0.8087 -1.0153
   20RES   H222 8240   1.435   5.488   4.641 -1.5043 -0.9708  0.5511
   20RES   H223 8241   1.423   5.369   4.515  0.8836  0.6130 -0.8917
   20RES   H224 8242   1.412   5.313   4.812 -1.3103  0.7659 -0.0753
   20RES   H225 8243   1.405   5.187   4.685  1.4275  0.0926  0.2903
   20RES   H226 8244   1.190   5.251   4.786  0.9885  1.0722  1.6963
   20RES   H227 8245   1.216   5.413   4.746 -0.6062 -0.5461  0.1872
   20RES   H228 8246   1.225   5.321   4.491  3.1166 -0.3982  2.5054
   20RES   H229 8247   1.157   5.175   4.563  0.4380 -0.2881 -1.1130
   20RES   H230 8248   1.018   5.442   4.523  0.4737  0.5525 -0.1653
   20RES   H231 8249   0.975   5.351   4.665 -1.2149  1.9924 -0.3227
   20RES   H232 8250   0.959   5.269   4.515 -0.0745  1.0857  0.9524
   20RES   C233 8251   1.680   5.413   4.746 -0.2375  0.1413  0.6011
   20RES   C234 8252   1.832   5.401   4.762  0.2367  0.5935  0.0549
   20RES   C235 8253   1.913   5.485   4.663 -0.1212  0.1247  0.5046
   20RES   C236 8254   1.967   5.415   4.539  0.3721 -0.2357  0.2088
   20RES   C237 8255   2.057   5.503   4.457  0.4977  0.3201  0.0868
   20RES   C238 8256   2.153   5.432   4.358  0.3444 -0.1216 -0.1836
   20RES   C239 8257   2.070   5.343   4.264  0.2992  0.0473  0.3067
   20RES   H240 8258   1.637   5.373   4.838 -0.1783  1.7844  1.3588
   20RES   H241 8259   1.669   5.520   4.730  2.6495  0.0792 -2.3210
   20RES   H242 8260   1.855   5.294   4.760 -1.0364  0.2569  1.9557
   20RES   H243 8261   2.000   5.525   4.717  0.7620  0.0965 -0.8838
   20RES   H244 8262   1.865   5.576   4.627 -0.0719 -1.1976 -3.0319
   20RES   H245 8263   1.878   5.394   4.480 -0.3806  1.2910  0.7723
   20RES   H246 8264   2.017   5.326   4.577 -1.5772 -0.9277  1.2642
   20RES   H247 8265   2.125   5.560   4.521 -1.9338  2.2847  1.0255
   20RES   H248 8266   2.007   5.578   4.396  0.3735  0.4504  0.3467
   20RES   H249 8267   2.204   5.509   4.300  0.3863 -0.0669 -0.0750
   20RES   H250 8268   2.240   5.381   4.400  1.3444  2.2508  0.7074
   20RES   H251 8269   2.031   5.252   4.309 -1.3784  0.9935  0.7944
   20RES   H252 8270   1.992   5.391   4.205  1.4010  2.5098  0.7804
   20RES   H253 8271   2.139   5.318   4.183  1.0320 -1.6150  1.4262
   20RES   C254 8272   1.860   5.455   4.913 -0.0960 -0.1132  0.2160
   20RES   C255 8273   1.984   5.399   4.982 -0.5758  0.4576  0.4074
   20RES   C256 8274   1.975   5.244   5.030 -0.4212 -0.2991  0.5027
   20RES   C257 8275   2.111   5.182   5.073  0.5326 -0.2445 -0.2909
   20RES   C258 8276   2.098   5.035   5.119  0.3871  0.0204  0.1750
   20RES   C259 8277   2.226   5.004   5.204  0.5954 -0.4951 -0.9365
   20RES   C260 8278   2.357   5.009   5.128  0.0025 -0.1287  0.4736
   20RES   H261 8279   1.781   5.428   4.983 -0.9223  0.7135 -0.3789
   20RES   H262 8280   1.851   5.564   4.903 -2.3869 -0.2242  0.6897
   20RES   H263 8281   2.061   5.394   4.905  1.3230  0.7475  2.2129
   20RES   H264 8282   1.924   5.182   4.956  3.4426 -1.7450 -1.0270
   20RES   H265 8283   1.904   5.233   5.112 -1.3397 -0.2266 -0.2688
   20RES   H266 8284   2.174   5.193   4.984  0.3778  0.1767 -0.3521
   20RES   H267 8285   2.156   5.249   5.147  0.7814 -0.8911  0.1416
   20RES   H268 8286   2.096   4.970   5.032 -0.6942 -1.4149  1.2441
   20RES   H269 8287   2.010   5.023   5.183 -0.7959  0.6823 -1.3197
   20RES   H270 8288   2.243   5.079   5.281  1.8653 -0.9939 -0.7323
   20RES   H271 8289   2.221   4.909   5.257  4.1704  0.3429  1.0248
   20RES   H272 8290   2.453   5.003   5.178  1.5058  1.2268 -2.0876
   20RES   H273 8291   2.366   4.920   5.066 -2.2004 -0.6729  0.8974
   20RES   H274 8292   2.362   5.091   5.056 -1.9867 -0.6278 -0.2611
   20RES   C275 8293   2.021   5.482   5.111 -0.4524  0.3460  1.0535
   20RES   C276 8294   2.161   5.546   5.096 -0.0630 -0.2945  0.0160
   20RES   C277 8295   2.238   5.580   5.225  0.2675  0.1661 -0.2744
   20RES   C278 8296   2.328   5.470   5.282 -0.5838  0.5800 -0.0256
   20RES   C279 8297   2.423   5.520   5.395 -0.3527 -0.0901  0.1155
   20RES   C280 8298   2.518   5.415   5.453 -1.7183 -0.2483  0.8969
   20RES   C281 8299   2.628   5.351   5.373  0.1990 -0.5362 -0.7579
   20RES   H282 8300   2.017   5.422   5.202 -0.9141 -2.5895 -0.8093
   20RES   H283 8301   1.950   5.555   5.149 -1.0223 -0.1925  1.0306
   20RES   H284 8302   2.221   5.470   5.045  1.3591 -0.1006  1.3807
   20RES   H285 8303   2.318   5.646   5.192  0.1509  0.3129 -0.2642
   20RES   H286 8304   2.185   5.642   5.297  0.1411  1.6122 -1.6013
   20RES   H287 8305   2.386   5.437   5.196 -1.5233 -0.2462 -0.3577
   20RES   H288 8306   2.271   5.380   5.306  1.0907 -1.2284 -2.5280
   20RES   H289 8307   2.365   5.572   5.472 -0.6264  1.8024 -1.3408
   20RES   H290 8308   2.484   5.598   5.351  0.0925 -0.1949  0.5485
   20RES   H291 8309   2.570   5.485   5.518 -0.9658 -0.0655  0.1038
   20RES   H292 8310   2.464   5.332   5.500 -1.4422 -2.5827 -2.6935
   20RES   H293 8311   2.682   5.428   5.318  2.5504 -0.8436  1.0592
   20RES   H294 8312   2.582   5.289   5.296  1.8614  0.3536 -2.4890
   20RES   H295 8313   2.702   5.294   5.429  0.2866 -0.2630 -0.5959
   20RES   C296 8314   2.144   5.670   4.999 -0.7464  0.0165  0.5708
   20RES   C297 8315   2.263   5.717   4.912  0.2228  0.7799 -0.4589
   20RES   C298 8316   2.236   5.840   4.830 -0.7109  0.0013  0.3489
   20RES   C299 8317   2.137   5.825   4.716 -0.9402 -0.3966 -0.2701
   20RES   C300 8318   2.103   5.956   4.633  0.1662 -0.7276 -0.1156
   20RES   C301 8319   2.021   5.921   4.506 -0.1336 -0.9521 -0.0971
   20RES   C302 8320   1.947   6.043   4.449  0.0961  0.4743  0.8069
   20RES   H303 8321   2.067   5.641   4.928  0.1089  0.1288 -0.4119
   20RES   H304 8322   2.110   5.751   5.064 -0.4886 -0.7533  1.7022
   20RES   H305 8323   2.338   5.752   4.983  0.4027  0.1113 -0.3133
   20RES   H306 8324   2.199   5.915   4.901 -2.5538 -1.5215  1.0201
   20RES   H307 8325   2.327   5.889   4.794 -0.3954  0.1749  1.3606
   20RES   H308 8326   2.044   5.783   4.755 -1.6362  1.1850 -0.1723
   20RES   H309 8327   2.180   5.758   4.642  0.1963  2.2336 -2.0437
   20RES   H310 8328   2.194   6.013   4.617 -0.6753  1.4848  2.6462
   20RES   H311 8329   2.061   6.029   4.702  0.0153 -0.5258 -0.4196
   20RES   H312 8330   2.097   5.893   4.434 -1.5677 -1.4157 -1.4603
   20RES   H313 8331   1.952   5.844   4.540  0.0136 -0.1723  2.1266
   20RES   H314 8332   1.886   6.022   4.362  2.8499  2.1167 -1.6156
   20RES   H315 8333   1.887   6.093   4.525  1.2270 -1.0890  2.7721
   20RES   H316 8334   2.017   6.120   4.416  1.3200 -0.5826  0.8649
   20RES   C317 8335   2.322   5.600   4.831 -0.0474  0.3285 -0.4000
   20RES   C318 8336   2.444   5.621   4.732  0.3899 -0.8325 -0.1787
   20RES   C319 8337   2.581   5.642   4.809  0.8664  1.3364 -0.2554
   20RES   C320 8338   2.646   5.509   4.854 -0.2570 -0.5108  0.1231
   20RES   C321 8339   2.760   5.524   4.954 -0.1223  0.3941 -0.0842
   20RES   C322 8340   2.791   5.386   5.010 -0.0527  0.3895 -0.0640
   20RES   C323 8341   2.924   5.363   5.085  1.0403  0.2364 -0.1034
   20RES   H324 8342   2.237   5.546   4.789 -2.5328  3.2221  0.7114
   20RES   H325 8343   2.360   5.536   4.910 -1.7594  0.0357  0.2173
   20RES   H326 8344   2.423   5.714   4.679  2.8736  1.5964  2.8429
   20RES   H327 8345   2.575   5.719   4.886  0.6685  1.8438 -0.7746
   20RES   H328 8346   2.634   5.696   4.731 -2.4286  1.9695 -2.1389
   20RES   H329 8347   2.689   5.454   4.770  2.7597  0.4628  0.9828
   20RES   H330 8348   2.562   5.449   4.890  1.0425 -2.5338 -0.1528
   20RES   H331 8349   2.734   5.590   5.038 -0.1184  1.4508 -0.8980
   20RES   H332 8350   2.854   5.571   4.924  0.7130 -0.9387  0.4005
   20RES   H333 8351   2.787   5.313   4.928 -1.9342 -1.0695  1.2748
   20RES   H334 8352   2.715   5.362   5.084  1.1815 -2.0206  0.4902
   20RES   H335 8353   3.008   5.368   5.015  0.8253 -2.4769 -0.6170
   20RES   H336 8354   2.935   5.262   5.125  0.2966 -0.3070 -1.2545
   20RES   H337 8355   2.947   5.422   5.174  1.4033 -2.1852  1.4511
   20RES   C338 8356   2.448   5.515   4.618  0.5072  0.0392  0.1244
   20RES   C339 8357   2.558   5.546   4.508  0.4653 -0.7724  0.5382
   20RES   C340 8358   2.552   5.689   4.444  0.5194 -0.4848 -0.3517
   20RES   C341 8359   2.417   5.722   4.374  0.9238  0.1666 -0.0111
   20RES   C342 8360   2.397   5.877   4.344  0.2055  0.2133 -0.2545
   20RES   C343 8361   2.500   5.929   4.238  0.2753  0.6849  0.1716
   20RES   C344 8362   2.460   6.066   4.171 -0.5393 -0.0168  0.4726
   20RES   H345 8363   2.347   5.518   4.578  0.0524  1.7029  1.3295
   20RES   H346 8364   2.467   5.412   4.647  2.2168  0.0056 -1.0364
   20RES   H347 8365   2.648   5.541   4.569 -0.2752 -0.6716  1.6790
   20RES   H348 8366   2.567   5.765   4.521 -0.2400 -0.6546 -0.0362
   20RES   H349 8367   2.636   5.705   4.376 -0.7836  0.8512 -1.6855
   20RES   H350 8368   2.334   5.684   4.433  0.0841  0.3966 -1.0348
   20RES   H351 8369   2.417   5.667   4.280 -1.2199  0.3575 -0.1571
   20RES   H352 8370   2.297   5.891   4.303 -0.7157 -0.2439  1.7436
   20RES   H353 8371   2.398   5.941   4.432  2.6026 -1.3899  0.9493
   20RES   H354 8372   2.601   5.934   4.277  0.7764  0.9825 -1.1625
   20RES   H355 8373   2.502   5.858   4.156  2.1979  2.0425 -0.9968
   20RES   H356 8374   2.355   6.082   4.146 -0.1649  0.7879 -0.5966
   20RES   H357 8375   2.508   6.079   4.074 -0.6584 -0.9902  0.2803
   20RES   H358 8376   2.493   6.152   4.230  1.1263  0.6462 -1.3917
   20RES   C359 8377   2.568   5.436   4.406  0.0814  0.0444  0.0579
   20RES   C360 8378   2.696   5.423   4.317 -0.0639  0.5045  0.1682
   20RES   C361 8379   2.742   5.270   4.319 -0.7889  0.2914 -0.7989
   20RES   C362 8380   2.824   5.226   4.440  1.4299 -0.0490 -0.1623
   20RES   C363 8381   2.942   5.314   4.472  0.2758 -0.2440  0.6587
   20RES   C364 8382   3.026   5.259   4.587 -0.0930 -0.1620 -0.0289
   20RES   C365 8383   2.963   5.277   4.731 -0.1809 -0.1102  0.0128
   20RES   H366 8384   2.482   5.435   4.340  1.1051  1.1584 -1.3216
   20RES   H367 8385   2.553   5.341   4.457 -2.6462  1.1526  1.3970
   20RES   H368 8386   2.770   5.489   4.364  0.9209  0.4472 -1.2760
   20RES   H369 8387   2.650   5.213   4.304 -0.8010 -0.0225  0.4141
   20RES   H370 8388   2.807   5.254   4.233  1.8086 -0.4633  1.2580
   20RES   H371 8389   2.755   5.235   4.524 -0.2045  0.4128 -1.5321
   20RES   H372 8390   2.841   5.119   4.451 -1.0080 -0.2234  2.4499
   20RES   H373 8391   3.020   5.326   4.396  0.3270 -2.4926  0.3188
   20RES   H374 8392   2.914   5.414   4.504  0.1834  0.3792 -1.2762
   20RES   H375 8393   3.065   5.159   4.567 -1.7038 -0.4017 -2.1148
   20RES   H376 8394   3.119   5.317   4.586  0.5194 -1.1342  0.0366
   20RES   H377 8395   3.032   5.232   4.802  1.5243 -0.6217 -1.9124
   20RES   H378 8396   2.940   5.380   4.756  0.5233  0.4278 -1.4834
   20RES   H379 8397   2.878   5.209   4.733  0.7551 -1.2713  1.8558
   20RES   C380 8398   2.674   5.475   4.174 -0.2083  0.1150  0.2903
   20RES   C381 8399   2.805   5.494   4.097  0.0609  0.5023 -0.0331
   20RES   C382 8400   2.770   5.511   3.947 -0.2979 -0.4363  0.1825
   20RES   C383 8401   2.888   5.464   3.861  0.1213 -0.0146 -0.2283
   20RES   C384 8402   2.837   5.455   3.717 -0.1085  0.0544  0.3531
   20RES   C385 8403   2.709   5.376   3.670  0.1848  0.0744 -0.4279
   20RES   C386 8404   2.721   5.229   3.703 -0.2605  0.1740  0.5247
   20RES   H387 8405   2.611   5.400   4.127  1.2860 -0.8082 -0.3013
   20RES   H388 8406   2.620   5.570   4.178 -1.7264 -0.7763  1.1689
   20RES   H389 8407   2.867   5.405   4.107  1.8300  1.4709 -1.9714
   20RES   H390 8408   2.732   5.609   3.919 -3.0497 -1.7489 -0.8846
   20RES   H391 8409   2.693   5.436   3.929 -0.5894 -0.7658  2.6284
   20RES   H392 8410   2.971   5.530   3.886 -0.6763  1.0733 -0.4139
   20RES   H393 8411   2.932   5.369   3.891  1.0401 -0.1398 -1.8888
   20RES   H394 8412   2.820   5.558   3.684 -1.1868 -0.2600 -0.1140
   20RES   H395 8413   2.921   5.418   3.659 -0.5238 -0.7323  0.2504
   20RES   H396 8414   2.701   5.387   3.562 -0.5579  0.8092 -0.3090
   20RES   H397 8415   2.615   5.413   3.713  1.5922  1.8878  1.2253
   20RES   H398 8416   2.815   5.177   3.683 -1.1430 -1.4400  0.5169
   20RES   H399 8417   2.656   5.165   3.644  2.0773 -1.6341 -0.2180
   20RES   H400 8418   2.694   5.229   3.808  0.2004  1.0493  0.6427
   20RES   C401 8419   2.888   5.614   4.153  0.7850 -0.0418 -0.5431
   20RES   C402 8420   3.022   5.571   4.204 -0.1160  0.2179 -0.4054
   20RES   C403 8421   3.119   5.673   4.270 -0.0520 -0.3351 -1.0221
   20RES   C404 8422   3.257   5.613   4.276  0.7324  0.5957 -0.6527
   20RES   C405 8423   3.362   5.705   4.341  0.0589 -0.5149  0.1931
   20RES   C406 8424   3.458   5.781   4.248 -0.1646  0.1575  0.0135
   20RES   C407 8425   3.544   5.888   4.320  0.6148  0.6846  0.1978
   20RES   H408 8426   2.837   5.673   4.229 -1.5102 -3.4559  0.6717
   20RES   H409 8427   2.923   5.675   4.069  0.5639  1.4706  0.4541
   20RES   H410 8428   3.082   5.528   4.124  0.3380 -0.3695  0.2423
   20RES   H411 8429   3.091   5.704   4.371  1.8702 -0.8154 -0.3117
   20RES   H412 8430   3.138   5.765   4.213  2.1051 -0.4924 -0.6152
   20RES   H413 8431   3.282   5.591   4.172  0.7225  0.5748 -0.6501
   20RES   H414 8432   3.269   5.513   4.317 -0.3343  0.4225 -0.7529
   20RES   H415 8433   3.311   5.773   4.409 -1.7584  1.2502 -2.7915
   20RES   H416 8434   3.416   5.641   4.410 -0.1638 -1.8379 -0.8177
   20RES   H417 8435   3.515   5.704   4.196  0.1244  0.0843  0.4375
   20RES   H418 8436   3.403   5.837   4.172  1.8480 -0.1442 -1.6880
   20RES   H419 8437   3.629   5.852   4.378  1.3673  0.3129 -1.0993
   20RES   H420 8438   3.483   5.939   4.394 -1.2322 -0.1110 -0.7274
   20RES   H421 8439   3.587   5.956   4.246 -0.1842 -1.0269 -1.8990
   20RES   H422 8440   3.019   5.485   4.272 -2.9427 -0.4021 -1.2605
   21RES     C1 8441   0.604   7.062   6.349  0.1071 -0.1713 -0.8402
   21RES     C2 8442   0.480   7.000   6.282  0.7635  0.1240  0.3440
   21RES     C3 8443   0.506   6.857   6.224 -0.3333 -0.4652 -0.2650
   21RES     C4 8444   0.629   6.849   6.132 -0.5696 -0.3161 -0.5302
   21RES     C5 8445   0.656   6.705   6.089 -0.7592 -0.0866 -0.1819
   21RES     C6 8446   0.789   6.690   6.000  0.0726 -0.2043 -0.5926
   21RES     C7 8447   0.796   6.557   5.937  0.0722  0.3510 -0.0909
   21RES     H8 8448   0.674   6.988   6.387  1.2357  0.0433 -2.4254
   21RES     H9 8449   0.586   7.130   6.432 -0.3114  0.0054 -1.0752
   21RES    H10 8450   0.404   6.968   6.354 -0.4367  0.2518 -0.8422
   21RES    H11 8451   0.517   6.782   6.302  0.3975  0.0619  0.1462
   21RES    H12 8452   0.419   6.829   6.165  0.2476  0.8910 -1.8371
   21RES    H13 8453   0.612   6.903   6.039  0.3201 -0.0596 -0.5545
   21RES    H14 8454   0.717   6.884   6.187 -1.2483 -2.0563  1.7148
   21RES    H15 8455   0.565   6.681   6.034 -0.5924  0.2273 -0.5941
   21RES    H16 8456   0.656   6.636   6.173 -0.1195  1.6455  1.2607
   21RES    H17 8457   0.882   6.716   6.050  0.9828  0.8754 -2.7607
   21RES    H18 8458   0.791   6.756   5.913  0.7524 -1.2845 -1.3984
   21RES    H19 8459   0.899   6.537   5.907 -0.7351 -1.7456 -1.5665
   21RES    H20 8460   0.733   6.543   5.849  1.1957 -1.7061 -0.5907
   21RES    H21 8461   0.772   6.489   6.019  0.3024 -0.1046 -0.4024
   21RES    H22 8462   0.671   7.119   6.284  0.1986 -0.1391 -0.7179
   21RES    C23 8463   0.411   7.096   6.188 -0.3551 -0.8144 -0.3109
   21RES    C24 8464   0.357   7.228   6.245  0.0574 -0.5218 -0.0424
   21RES    C25 8465   0.230   7.215   6.324 -0.2854  0.0222 -0.1056
   21RES    C26 8466   0.201   7.348   6.399  0.5359  0.0023 -0.0087
   21RES    C27 8467   0.093   7.308   6.498  0.4034  0.2420 -0.3317
   21RES    C28 8468   0.070   7.421   6.597 -0.1303  0.1051  0.1706
   21RES    C29 8469   7.703   7.377   6.708  0.6795  0.5517  0.5565
   21RES    H30 8470   0.481   7.117   6.107  1.4734 -1.3466  1.1045
   21RES    H31 8471   0.320   7.055   6.146 -2.2194  1.6236  1.1967
   21RES    H32 8472   0.431   7.276   6.308  0.4622  0.5887 -1.3403
   21RES    H33 8473   0.260   7.145   6.402 -1.8916  2.4743  2.8873
   21RES    H34 8474   0.142   7.189   6.266 -0.1474  0.3100 -0.4489
   21RES    H35 8475   0.170   7.427   6.331  0.7340  2.5874  2.7924
   21RES    H36 8476   0.284   7.397   6.450 -1.7086  2.2559  1.5919
   21RES    H37 8477   0.147   7.233   6.554  0.1058  0.2021 -0.0984
   21RES    H38 8478   0.006   7.271   6.444  0.1793 -0.4837  0.5151
   21RES    H39 8479   0.031   7.506   6.540  1.2993  0.4442 -0.3311
   21RES    H40 8480   0.159   7.452   6.652 -0.4758  0.6025  0.4430
   21RES    H41 8481   0.008   7.291   6.768  0.0718 -0.3878 -0.4317
   21RES    H42 8482   7.681   7.458   6.777 -1.5875 -0.1608  0.7003
   21RES    H43 8483   7.607   7.355   6.663  0.4256  0.1475  1.2893
   21RES    C44 8484   0.340   7.326   6.119 -0.1774 -0.1369  0.1617
   21RES    C45 8485   0.467   7.374   6.048 -0.2295 -0.7357 -0.0177
   21RES    C46 8486   0.443   7.373   5.895 -0.0166  0.1451  0.3762
   21RES    C47 8487   0.573   7.409   5.824 -0.7137  0.0836  0.2901
   21RES    C48 8488   0.585   7.356   5.679  0.3989 -0.1528 -0.3439
   21RES    C49 8489   0.713   7.400   5.608 -0.0573  0.1531 -0.4554
   21RES    C50 8490   0.741   7.325   5.477  0.4888  0.0712 -0.0775
   21RES    H51 8491   0.290   7.417   6.153 -0.7165 -1.2686  2.4785
   21RES    H52 8492   0.268   7.280   6.052  0.5756 -1.5781  0.3325
   21RES    H53 8493   0.545   7.305   6.080  0.3297  0.7221  1.8597
   21RES    H54 8494   0.365   7.442   5.862  0.9438  2.1175  2.0296
   21RES    H55 8495   0.414   7.274   5.862  1.9720 -0.3221 -0.0398
   21RES    H56 8496   0.582   7.518   5.823  0.6435 -0.0298 -0.8025
   21RES    H57 8497   0.654   7.363   5.879  0.8471 -0.4314 -2.3305
   21RES    H58 8498   0.492   7.390   5.632  0.6164 -0.4751 -1.0149
   21RES    H59 8499   0.585   7.247   5.686 -1.1250 -0.1842 -0.4472
   21RES    H60 8500   0.792   7.385   5.682 -0.9464  0.7229  0.6251
   21RES    H61 8501   0.701   7.504   5.578 -2.7321 -0.1640 -0.6194
   21RES    H62 8502   0.839   7.351   5.437  0.4653  0.2805  0.0014
   21RES    H63 8503   0.665   7.348   5.403 -0.4426 -1.1421  0.4815
   21RES    H64 8504   0.733   7.217   5.476  0.7140  0.0287  1.6473
   21RES    C65 8505   0.514   7.519   6.098  0.2732 -0.2553 -0.2424
   21RES    C66 8506   0.551   7.545   6.249  0.1009  0.8045  0.2243
   21RES    C67 8507   0.558   7.695   6.265  0.6454  0.1412 -0.5580
   21RES    C68 8508   0.557   0.012   6.408  0.7709 -0.8180 -0.5282
   21RES    C69 8509   0.558   0.166   6.422  0.1423 -0.5998 -0.0125
   21RES    C70 8510   0.596   0.210   6.562  0.7253  0.0702 -0.9003
   21RES    C71 8511   0.623   0.356   6.557 -0.2300  0.9667 -0.5544
   21RES    H72 8512   0.596   7.555   6.036  0.3567  0.2304  0.1462
   21RES    H73 8513   0.437   7.593   6.075  1.0912  0.6265 -0.1698
   21RES    H74 8514   0.460   7.516   6.301  0.2385  0.7614  0.4428
   21RES    H75 8515   0.651   0.000   6.217  1.2439 -1.8702 -0.7608
   21RES    H76 8516   0.476   0.017   6.211  0.8633 -0.8546 -1.8034
   21RES    H77 8517   0.465   7.710   6.458  0.2660  4.4531  1.8898
   21RES    H78 8518   0.644   7.696   6.459 -0.6458 -3.2652 -0.1094
   21RES    H79 8519   0.636   0.205   6.356  0.8906 -0.7736  0.7662
   21RES    H80 8520   0.459   0.205   6.394 -2.5637 -4.0482  4.1428
   21RES    H81 8521   0.686   0.161   6.599  1.1097  1.8639  0.6247
   21RES    H82 8522   0.506   0.193   6.621 -0.4378 -0.8306 -2.9176
   21RES    H83 8523   0.712   0.369   6.495  0.2164  0.8845  0.0684
   21RES    H84 8524   0.529   0.402   6.524  0.6563  0.8959 -3.3022
   21RES    H85 8525   0.653   0.391   6.656 -1.4360 -0.9234  0.5047
   21RES    C86 8526   0.678   7.466   6.311 -0.5590 -0.2975  0.1679
   21RES    C87 8527   0.825   7.500   6.258  0.8298  0.5554 -0.8015
   21RES    C88 8528   0.930   7.503   6.362  0.2304 -0.6764  0.3166
   21RES    C89 8529   0.921   7.622   6.462  0.7315  0.4371  0.9627
   21RES    C90 8530   1.044   7.639   6.539 -0.4076  0.3551  0.1498
   21RES    C91 8531   1.015   0.004   6.665  0.1158 -0.5408  0.7405
   21RES    C92 8532   1.147   0.013   6.742 -0.1216  0.6645  0.1690
   21RES    H93 8533   0.664   7.472   6.419 -0.8566 -0.3579  0.1340
   21RES    H94 8534   0.655   7.361   6.292  1.2022 -0.4285 -1.3420
   21RES    H95 8535   0.821   7.600   6.216  1.0746  0.8646 -0.0906
   21RES    H96 8536   0.932   7.411   6.420  1.4554 -2.4632 -2.5118
   21RES    H97 8537   1.023   7.508   6.304  0.5241 -2.3548  0.6310
   21RES    H98 8538   0.885   7.714   6.417 -0.3679 -0.2191  0.4585
   21RES    H99 8539   0.848   7.590   6.536 -1.0913  0.9306 -0.5653
   21RES   H100 8540   1.124   7.674   6.474  0.0849  2.4981  1.8464
   21RES   H101 8541   1.081   7.538   6.559 -0.4627  0.3118  0.0327
   21RES   H102 8542   0.972   0.097   6.628 -0.6290 -1.8126 -1.6817
   21RES   H103 8543   0.935   7.693   6.729  0.1439  1.3867  1.9562
   21RES   H104 8544   1.229   0.066   6.693  1.2914 -0.9679  0.7315
   21RES   H105 8545   1.174   7.641   6.778 -1.5452  0.1968  0.0085
   21RES   H106 8546   1.126   0.074   6.831 -0.7233 -0.4299  0.7864
   21RES   C107 8547   0.867   7.401   6.145 -0.3736 -0.7965  0.3693
   21RES   C108 8548   0.887   7.253   6.182 -0.4214  0.1044 -0.4242
   21RES   C109 8549   0.826   7.160   6.079  0.3199 -0.2253 -0.4262
   21RES   C110 8550   0.891   7.150   5.936 -0.0020 -0.1271  0.2239
   21RES   C111 8551   0.822   7.048   5.845 -0.2865  0.3417 -0.7541
   21RES   C112 8552   0.896   7.041   5.705 -0.2258 -0.1510  0.4772
   21RES   C113 8553   0.818   6.957   5.607  0.6246 -0.1672  0.2395
   21RES   H114 8554   0.953   7.433   6.086 -0.5531 -0.7890  0.1073
   21RES   H115 8555   0.791   7.413   6.067  0.7287  0.6585 -0.5044
   21RES   H116 8556   0.830   7.237   6.274  1.2691 -1.3222  0.4270
   21RES   H117 8557   0.724   7.199   6.078  1.0436  1.8753  2.0654
   21RES   H118 8558   0.825   7.061   6.125 -0.7253  0.6560  1.5069
   21RES   H119 8559   0.885   7.251   5.894 -0.4451  0.5020  1.7646
   21RES   H120 8560   0.995   7.118   5.937 -0.3611 -1.2934 -0.0982
   21RES   H121 8561   0.723   7.093   5.837 -1.0254 -0.8364  1.4616
   21RES   H122 8562   0.806   6.953   5.895  0.0397  0.1795 -0.9567
   21RES   H123 8563   0.934   7.134   5.664  0.1178 -1.3018 -1.9371
   21RES   H124 8564   0.990   6.987   5.716 -1.4845 -2.3797  0.7749
   21RES   H125 8565   0.727   7.005   5.570  0.2080 -0.9606  0.2084
   21RES   H126 8566   0.863   6.948   5.508  1.3387  1.2406  0.4263
   21RES   H127 8567   0.789   6.857   5.640 -1.3251 -0.6762 -2.7186
   21RES   C128 8568   1.044   7.226   6.213 -0.1394  0.1213 -0.4123
   21RES   C129 8569   1.070   7.090   6.285  0.3074  0.6129 -0.3180
   21RES   C130 8570   1.040   7.101   6.430  0.2539 -0.0166 -0.2712
   21RES   C131 8571   1.049   6.968   6.506 -0.0854  0.0984  0.2331
   21RES   C132 8572   1.132   6.976   6.639  0.1142  0.1685  0.2528
   21RES   C133 8573   1.153   6.848   6.705 -0.3110  0.4887 -0.4412
   21RES   C134 8574   1.244   6.752   6.632 -0.5302  0.6120  0.9192
   21RES   H135 8575   1.104   7.243   6.124 -0.4941  1.0352 -0.4799
   21RES   H136 8576   1.086   7.296   6.285  0.4933 -0.2678 -0.3992
   21RES   H137 8577   1.011   7.015   6.233  0.3225 -1.3227  2.3858
   21RES   H138 8578   0.944   7.146   6.456  0.8128 -0.0253  1.8319
   21RES   H139 8579   1.104   7.177   6.474  0.0427 -1.1847  2.1371
   21RES   H140 8580   1.079   6.894   6.432  0.8066  1.1173 -0.4373
   21RES   H141 8581   0.946   6.945   6.536 -0.2709 -0.6700 -0.9474
   21RES   H142 8582   1.084   7.050   6.704 -0.0717  0.2587  0.0108
   21RES   H143 8583   1.230   7.016   6.610 -0.0373 -0.3576 -0.9972
   21RES   H144 8584   1.058   6.797   6.721 -0.7801  1.1470 -1.0581
   21RES   H145 8585   1.183   6.874   6.806 -1.5751 -0.1074  0.0934
   21RES   H146 8586   1.237   6.652   6.675  0.9463 -1.2389 -2.8762
   21RES   H147 8587   1.349   6.778   6.637 -0.6925  1.0860  1.9168
   21RES   H148 8588   1.223   6.742   6.525  1.2101  2.8906  0.3165
   21RES   C149 8589   1.221   7.059   6.269  0.0600  0.2275  0.0549
   21RES   C150 8590   1.245   6.974   6.142 -0.3866  0.1995  0.4743
   21RES   C151 8591   1.209   6.826   6.151  0.3810 -0.1984 -0.1513
   21RES   C152 8592   1.282   6.742   6.248  0.3282  1.0547 -0.2718
   21RES   C153 8593   1.237   6.599   6.269 -0.0993  0.3684  0.1357
   21RES   C154 8594   1.281   6.496   6.154  0.2614 -0.1713  0.2354
   21RES   C155 8595   1.167   6.469   6.047 -0.2518 -0.0719  0.0015
   21RES   H156 8596   1.278   7.151   6.253  0.6601 -0.3226 -1.0027
   21RES   H157 8597   1.261   7.009   6.357 -1.0708 -1.4716 -0.3755
   21RES   H158 8598   1.178   7.008   6.063  1.1866  1.0187 -0.5496
   21RES   H159 8599   1.102   6.819   6.173 -0.0088  1.3688 -1.4515
   21RES   H160 8600   1.201   6.774   6.056 -0.2660  0.7234 -0.6091
   21RES   H161 8601   1.274   6.802   6.339 -4.0145  0.5980 -0.2647
   21RES   H162 8602   1.387   6.738   6.219  0.1128 -1.3260 -0.7993
   21RES   H163 8603   1.129   6.598   6.280 -0.2348 -0.4565 -1.0772
   21RES   H164 8604   1.287   6.567   6.361  2.0809 -0.2640 -1.2215
   21RES   H165 8605   1.300   6.397   6.195  1.3817 -0.5155 -1.0722
   21RES   H166 8606   1.375   6.530   6.111  0.8187  0.2053  1.7064
   21RES   H167 8607   1.069   6.436   6.081 -1.0092  1.2475 -0.8645
   21RES   H168 8608   1.202   6.392   5.978 -1.0623 -0.1590 -0.3054
   21RES   H169 8609   1.149   6.563   5.994  1.1958 -1.1145 -2.4314
   21RES   C170 8610   1.395   6.990   6.094 -0.0104 -0.3911  0.4957
   21RES   C171 8611   1.423   7.120   6.014  0.2346  0.5009  0.2521
   21RES   C172 8612   1.576   7.133   5.995 -0.7214 -0.5647 -0.3188
   21RES   C173 8613   1.658   7.178   6.120 -0.5240 -0.0001 -0.1961
   21RES   C174 8614   1.808   7.191   6.082  0.0666 -0.4470  0.3942
   21RES   C175 8615   1.902   7.186   6.196  0.3016 -0.2113 -0.5967
   21RES   C176 8616   2.043   7.166   6.153 -0.6155 -0.6943 -0.4077
   21RES   H177 8617   1.427   6.909   6.028  1.0116  0.9570 -0.7096
   21RES   H178 8618   1.459   6.994   6.182  0.1771 -2.1268  0.4560
   21RES   H179 8619   1.404   7.204   6.081 -0.9474  1.8730 -1.7550
   21RES   H180 8620   1.597   7.212   5.923  2.6665  0.6566  1.8544
   21RES   H181 8621   1.619   7.039   5.960 -2.3048 -1.0747 -0.9016
   21RES   H182 8622   1.655   7.101   6.197 -0.2034 -0.1937 -0.3722
   21RES   H183 8623   1.631   7.277   6.157 -0.6939  0.0493 -0.4506
   21RES   H184 8624   1.828   7.275   6.016 -1.4261 -0.7659 -0.5051
   21RES   H185 8625   1.832   7.103   6.023 -1.4040 -2.4947  2.7545
   21RES   H186 8626   1.863   7.116   6.271  0.2088  1.8603  1.3468
   21RES   H187 8627   1.890   7.277   6.254 -1.3056 -1.4393  1.0974
   21RES   H188 8628   2.118   7.140   6.227 -1.3024 -0.6977  0.2890
   21RES   H189 8629   2.078   7.253   6.096 -0.2450  0.3918  1.4262
   21RES   H190 8630   2.048   7.085   6.080  0.0669 -0.0598 -1.0885
   21RES   C191 8631   1.332   7.134   5.884  0.1824 -0.7334 -0.0896
   21RES   C192 8632   1.325   7.273   5.813  0.0261  0.5970  0.0167
   21RES   C193 8633   1.261   7.262   5.670  1.0640  0.0324 -0.3174
   21RES   C194 8634   1.241   7.376   5.567  0.2295 -0.5958 -0.0447
   21RES   C195 8635   1.194   7.321   5.433 -0.1680 -0.0464 -0.0035
   21RES   C196 8636   1.211   7.419   5.313 -0.1601  0.3501  0.0344
   21RES   C197 8637   1.186   7.358   5.179 -0.6264 -0.1982  0.2045
   21RES   H198 8638   1.227   7.107   5.899  0.6520 -1.7874  1.3319
   21RES   H199 8639   1.364   7.057   5.813  1.5415 -1.1901  0.9965
   21RES   H200 8640   1.426   7.304   5.787  0.5409 -0.3647  0.8412
   21RES   H201 8641   1.158   7.229   5.682  0.9394  0.0740 -1.2488
   21RES   H202 8642   1.309   7.184   5.612  0.5952  0.6345 -1.5213
   21RES   H203 8643   1.340   7.421   5.558 -0.2603  0.5806  0.3636
   21RES   H204 8644   1.167   7.444   5.609 -0.4366 -1.2601 -0.1363
   21RES   H205 8645   1.233   7.221   5.416 -2.1122 -0.8291 -0.0158
   21RES   H206 8646   1.085   7.312   5.439 -0.0898 -1.3045 -0.3469
   21RES   H207 8647   1.307   7.469   5.310 -0.5401  1.0738 -0.0558
   21RES   H208 8648   1.139   7.500   5.321 -0.5524  0.1752 -1.4718
   21RES   H209 8649   1.202   7.433   5.102 -0.5344  0.4039  0.8076
   21RES   H210 8650   1.087   7.313   5.174 -0.3968 -0.7060  0.2185
   21RES   H211 8651   1.265   7.286   5.158 -0.9545 -0.3951 -0.3720
   21RES   C212 8652   1.251   7.374   5.902 -0.4179  0.1170  0.1390
   21RES   C213 8653   1.290   7.523   5.885  0.2011  0.3459 -0.0099
   21RES   C214 8654   1.175   7.612   5.944 -0.7354  0.9379  0.1110
   21RES   C215 8655   1.059   7.635   5.853 -0.5855  0.0755  0.7601
   21RES   C216 8656   0.960   0.006   5.913 -0.4675 -0.2024  0.0790
   21RES   C217 8657   0.818   7.697   5.875  0.1590  0.1686 -0.0091
   21RES   C218 8658   0.712   0.075   5.917  0.5977  0.3907  0.2135
   21RES   H219 8659   1.251   7.343   6.006 -0.4479 -0.7055 -0.1053
   21RES   H220 8660   1.148   7.373   5.866 -0.7621  0.5293  1.0926
   21RES   H221 8661   1.316   7.535   5.780 -1.9419 -0.1917 -0.6279
   21RES   H222 8662   1.144   7.567   6.038  0.4104  0.3131  0.2041
   21RES   H223 8663   1.215   7.708   5.975  0.1158  0.6849 -0.1967
   21RES   H224 8664   1.014   7.538   5.833  0.6424  0.0214 -2.0108
   21RES   H225 8665   1.090   7.663   5.752  0.4026 -0.9352  0.7778
   21RES   H226 8666   0.962   7.719   6.021  1.2269 -1.3963 -0.0743
   21RES   H227 8667   0.989   0.110   5.901  1.8121 -0.6950  0.8413
   21RES   H228 8668   0.810   7.710   5.767  2.5483  0.2983 -0.2080
   21RES   H229 8669   0.790   7.602   5.920  0.3615 -0.0339 -0.3077
   21RES   H230 8670   0.731   0.174   5.877 -0.2698  1.1159  1.5645
   21RES   H231 8671   0.719   0.085   6.025 -0.0331 -3.6580  0.7179
   21RES   H232 8672   0.609   0.042   5.900  1.6635 -3.4766  0.6786
   21RES   C233 8673   1.421   7.537   5.972 -0.0734 -0.3392  0.0298
   21RES   C234 8674   1.480   7.684   5.993 -0.5306  0.8854 -0.3446
   21RES   C235 8675   1.612   7.681   6.070 -0.1157  0.1101  0.2157
   21RES   C236 8676   1.596   7.612   6.209  0.0713 -0.1098 -0.0971
   21RES   C237 8677   1.690   7.685   6.314 -0.4977 -0.4840  0.2668
   21RES   C238 8678   1.654   7.642   6.452 -0.0536  0.1663  0.7092
   21RES   C239 8679   1.688   7.497   6.478  0.3831  0.1669  0.0775
   21RES   H240 8680   1.494   7.471   5.925 -0.0443 -0.7360  0.6238
   21RES   H241 8681   1.397   7.498   6.071 -2.1213  2.4588  0.7194
   21RES   H242 8682   1.406   0.025   6.036 -1.0527 -0.4739  0.9563
   21RES   H243 8683   1.656   0.054   6.078  2.4468 -0.8052 -1.7472
   21RES   H244 8684   1.687   7.625   6.015  1.6980  2.1212  0.5340
   21RES   H245 8685   1.623   7.507   6.207  0.0779 -0.0929 -1.3019
   21RES   H246 8686   1.498   7.624   6.255  1.0514 -3.0102  2.8951
   21RES   H247 8687   1.666   0.064   6.300  0.2820 -0.3753 -0.2507
   21RES   H248 8688   1.797   7.690   6.295 -0.7108  1.5093 -0.5460
   21RES   H249 8689   1.708   7.709   6.519  1.4833 -2.4398  2.1412
   21RES   H250 8690   1.546   7.653   6.468 -0.8932 -0.7552 -3.7022
   21RES   H251 8691   1.781   7.458   6.436 -1.4004 -4.5708  0.2220
   21RES   H252 8692   1.686   7.475   6.585 -0.5792  1.0938  0.2511
   21RES   H253 8693   1.607   7.435   6.441 -0.0365  1.0965 -0.5964
   21RES   C254 8694   1.504   0.029   5.858 -0.2444 -0.0366 -0.0865
   21RES   C255 8695   1.542   0.180   5.854  0.2250 -0.1984 -0.1228
   21RES   C256 8696   1.436   0.271   5.932  0.0922 -0.0987  0.4677
   21RES   C257 8697   1.478   0.294   6.075 -0.1411 -0.1832 -0.1140
   21RES   C258 8698   1.395   0.405   6.146 -0.2588  0.1112 -0.0182
   21RES   C259 8699   1.451   0.453   6.279 -0.0538  0.1818 -0.8577
   21RES   C260 8700   1.363   0.556   6.342 -0.3504  0.4062 -0.3346
   21RES   H261 8701   1.411   0.024   5.802  0.9093 -1.6012 -1.9108
   21RES   H262 8702   1.575   7.698   5.799 -2.2313  0.0235 -2.6201
   21RES   H263 8703   1.636   0.189   5.909 -0.2366  0.6011  0.5478
   21RES   H264 8704   1.343   0.215   5.923  0.4021 -0.4829 -0.3191
   21RES   H265 8705   1.434   0.366   5.880  2.5847  0.7698  1.8412
   21RES   H266 8706   1.481   0.203   6.134  0.2310 -1.2104 -1.7018
   21RES   H267 8707   1.580   0.329   6.062 -0.5132  1.3921  0.9830
   21RES   H268 8708   1.294   0.374   6.175 -0.7211  2.0217  0.4951
   21RES   H269 8709   1.394   0.486   6.074  0.4263 -0.8647 -1.1320
   21RES   H270 8710   1.482   0.378   6.353 -1.7830  1.6918  1.4859
   21RES   H271 8711   1.532   0.519   6.248 -0.1008  1.0455  0.7978
   21RES   H272 8712   1.422   0.623   6.403  0.7997  0.0823 -1.0800
   21RES   H273 8713   1.302   0.622   6.279  0.8123  0.5792 -1.2838
   21RES   H274 8714   1.295   0.505   6.410  0.1719  0.9262  0.5850
   21RES   C275 8715   1.574   0.223   5.712 -0.3736  0.7913  0.0158
   21RES   C276 8716   1.687   0.152   5.641 -0.0299  0.5644 -0.7735
   21RES   C277 8717   1.816   0.125   5.734 -0.0402  0.2113 -0.2564
   21RES   C278 8718   1.872   0.259   5.779 -0.4838  0.5209 -0.0503
   21RES   C279 8719   1.999   0.236   5.855  0.0752 -0.6643  0.3338
   21RES   C280 8720   2.068   0.365   5.889 -0.0187 -0.0190  0.2670
   21RES   C281 8721   2.212   0.353   5.950  0.6354 -0.4644 -0.1441
   21RES   H282 8722   1.599   0.329   5.707  2.6448  0.1819  1.2541
   21RES   H283 8723   1.488   0.220   5.645 -0.5978 -1.1955  0.3603
   21RES   H284 8724   1.659   0.051   5.611  0.6410  0.1809 -0.0995
   21RES   H285 8725   1.797   0.053   5.813 -1.4752  2.0541  1.1260
   21RES   H286 8726   1.894   0.071   5.681 -0.9609 -0.3553 -1.0622
   21RES   H287 8727   1.822   0.332   5.842  0.6637 -1.2858  3.0991
   21RES   H288 8728   1.901   0.307   5.686  1.1041 -0.7397 -0.2279
   21RES   H289 8729   2.066   0.176   5.793  1.1077  0.1901  0.6121
   21RES   H290 8730   1.982   0.186   5.950 -3.3000 -2.0787 -0.9391
   21RES   H291 8731   2.087   0.422   5.798  2.0323  1.9246  1.8686
   21RES   H292 8732   2.001   0.415   5.960  0.7054  0.4948  0.6008
   21RES   H293 8733   2.209   0.276   6.027 -0.1010  0.5217  0.8236
   21RES   H294 8734   2.256   0.444   5.990 -1.0618  0.5096 -0.4658
   21RES   H295 8735   2.278   0.306   5.877 -1.9081 -1.1742 -2.0399
   21RES   C296 8736   1.719   0.225   5.512  0.3470  0.1497  0.4331
   21RES   C297 8737   1.622   0.216   5.393 -0.3172 -0.0212 -1.4834
   21RES   C298 8738   1.591   0.067   5.362 -0.0085  0.0011 -0.9859
   21RES   C299 8739   1.716   7.703   5.327  0.4510  0.0296 -0.6479
   21RES   C300 8740   1.685   7.551   5.324 -0.5838 -0.4899 -0.8480
   21RES   C301 8741   1.595   7.513   5.204 -0.7014  0.3391 -0.1593
   21RES   C302 8742   1.568   7.361   5.207  0.1277  0.0008 -0.5668
   21RES   H303 8743   1.732   0.333   5.524 -1.5930  0.4969 -0.3642
   21RES   H304 8744   1.817   0.195   5.474 -0.8378 -1.8420 -1.1196
   21RES   H305 8745   1.527   0.260   5.423 -0.0546  0.9228 -2.0034
   21RES   H306 8746   1.518   0.029   5.434  0.0577  1.3673 -0.1820
   21RES   H307 8747   1.532   0.055   5.271 -1.8941 -3.0836  0.5545
   21RES   H308 8748   1.795   7.725   5.400 -0.3269  0.6326  0.0290
   21RES   H309 8749   1.753   0.009   5.230  1.6476 -0.4426 -0.3663
   21RES   H310 8750   1.644   7.534   5.424  0.1258 -1.0545 -0.6505
   21RES   H311 8751   1.777   7.493   5.318  0.9422  1.8157 -0.3987
   21RES   H312 8752   1.499   7.565   5.212  0.2886  2.1243  0.1966
   21RES   H313 8753   1.636   7.534   5.106  2.2224  1.6226  1.2926
   21RES   H314 8754   1.511   7.337   5.297  1.0637 -1.1893 -0.2776
   21RES   H315 8755   1.512   7.324   5.121  1.5988  0.1382 -1.6082
   21RES   H316 8756   1.658   7.299   5.201 -1.0436 -1.7950  0.1172
   21RES   C317 8757   1.649   0.300   5.269 -0.3950 -0.1815 -0.1873
   21RES   C318 8758   1.649   0.454   5.291 -0.1115  0.5285 -0.4709
   21RES   C319 8759   1.743   0.524   5.179 -0.1492 -0.4155 -0.2340
   21RES   C320 8760   1.891   0.541   5.221 -0.4259  0.1830 -0.4120
   21RES   C321 8761   1.977   0.594   5.107  0.4544  0.3454  0.3127
   21RES   C322 8762   2.130   0.579   5.130 -0.2015 -0.5852 -0.3629
   21RES   C323 8763   2.196   0.677   5.028 -0.5375  0.0233 -0.3177
   21RES   H324 8764   1.577   0.279   5.189 -0.1217 -0.5764 -0.3341
   21RES   H325 8765   1.745   0.268   5.227 -1.1557  0.2464 -2.3338
   21RES   H326 8766   1.699   0.480   5.384  0.1217  1.6948 -0.9081
   21RES   H327 8767   1.715   0.627   5.154 -1.0717 -0.4179  0.7518
   21RES   H328 8768   1.735   0.464   5.088 -0.8321  1.9558 -1.7962
   21RES   H329 8769   1.926   0.445   5.258 -0.2190  0.6372  0.5931
   21RES   H330 8770   1.898   0.618   5.298 -0.6837 -0.1421 -0.0631
   21RES   H331 8771   1.965   0.702   5.098  1.0487  0.5312  1.6643
   21RES   H332 8772   1.963   0.549   5.009 -0.9671 -0.6381  0.9407
   21RES   H333 8773   2.169   0.477   5.131  0.3634 -0.3589  1.6370
   21RES   H334 8774   2.155   0.610   5.231  0.8098 -1.0388 -0.4675
   21RES   H335 8775   2.202   0.647   4.923 -0.3160  0.3028 -0.3885
   21RES   H336 8776   2.300   0.701   5.052 -0.1899  0.1254 -1.8302
   21RES   H337 8777   2.147   0.774   5.017  0.6631  0.5311 -1.3306
   21RES   C338 8778   1.503   0.513   5.304  0.2991  0.3173 -0.1345
   21RES   C339 8779   1.477   0.663   5.333 -0.2446  0.1302  0.1755
   21RES   C340 8780   1.571   0.712   5.452 -0.1112  0.4006  0.0019
   21RES   C341 8781   1.551   0.650   5.589  0.2023 -0.2463 -0.5364
   21RES   C342 8782   1.668   0.656   5.679 -0.9692  1.1648  0.2055
   21RES   C343 8783   1.616   0.648   5.827  0.2601 -0.2808  0.2273
   21RES   C344 8784   1.727   0.642   5.928 -0.3680  1.2936 -0.0501
   21RES   H345 8785   1.451   0.456   5.380 -1.3118  0.4077 -1.1479
   21RES   H346 8786   1.447   0.486   5.215 -0.3585  0.4192  0.2508
   21RES   H347 8787   1.503   0.726   5.248  1.1772  0.4315  0.8182
   21RES   H348 8788   1.676   0.704   5.421  0.0300  0.2224  0.5252
   21RES   H349 8789   1.563   0.820   5.463  1.6488  0.4244  1.3978
   21RES   H350 8790   1.517   0.547   5.575 -0.2664  0.0494 -1.6089
   21RES   H351 8791   1.467   0.703   5.634 -0.0132  0.6897 -2.0086
   21RES   H352 8792   1.728   0.570   5.646 -0.2536  0.9656  1.9969
   21RES   H353 8793   1.731   0.744   5.670 -1.1152  1.1662 -0.9617
   21RES   H354 8794   1.549   0.732   5.844 -0.5551 -0.3007 -2.5835
   21RES   H355 8795   1.554   0.559   5.826  0.5244 -0.5077  1.8389
   21RES   H356 8796   1.793   0.564   5.891 -0.0253  2.1628 -1.3023
   21RES   H357 8797   1.698   0.619   6.030  1.1898  1.3110  0.4041
   21RES   H358 8798   1.785   0.734   5.933 -0.1814  1.1837 -0.1793
   21RES   C359 8799   1.332   0.700   5.360  0.1723 -0.3913  0.1485
   21RES   C360 8800   1.224   0.717   5.251  1.0030 -0.4835  0.2467
   21RES   C361 8801   1.076   0.717   5.307  0.0061 -0.1341 -0.2686
   21RES   C362 8802   0.975   0.690   5.194  0.4976  0.8887 -0.7494
   21RES   C363 8803   0.835   0.638   5.248  0.3642  0.1315  0.5136
   21RES   C364 8804   0.734   0.651   5.134  0.7025 -0.0128  0.1933
   21RES   C365 8805   0.604   0.574   5.161 -0.9868  0.1657  0.1231
   21RES   H366 8806   1.322   0.785   5.428  0.1802 -0.7960  0.6551
   21RES   H367 8807   1.296   0.619   5.424 -1.1682  0.6563  0.7362
   21RES   H368 8808   1.235   0.638   5.177  0.4675 -0.3088 -0.0213
   21RES   H369 8809   1.055   0.642   5.383 -1.1620 -0.1012 -0.5486
   21RES   H370 8810   1.056   0.817   5.344 -0.5506  0.0688 -1.0957
   21RES   H371 8811   0.953   0.774   5.128  0.2083  1.1409 -0.3391
   21RES   H372 8812   1.021   0.608   5.140  1.1483 -0.1405  1.3235
   21RES   H373 8813   0.850   0.534   5.277  0.1536  0.7122  2.8048
   21RES   H374 8814   0.789   0.695   5.329  1.2113 -0.6597  1.5642
   21RES   H375 8815   0.721   0.758   5.120  0.8450  0.0115  0.2404
   21RES   H376 8816   0.772   0.617   5.037 -0.6814  1.6876 -0.9840
   21RES   H377 8817   0.553   0.608   5.252 -2.7882  3.0130 -1.8812
   21RES   H378 8818   0.533   0.585   5.079  0.1621 -1.7672 -1.1602
   21RES   H379 8819   0.615   0.467   5.178 -1.8350  0.1976  0.9734
   21RES   C380 8820   1.246   0.852   5.173  0.1596 -0.2041  0.6961
   21RES   C381 8821   1.235   0.849   5.014  0.2215 -0.3958  0.8784
   21RES   C382 8822   1.213   0.993   4.961  0.2717  0.5566 -0.3342
   21RES   C383 8823   1.071   1.036   4.975 -0.3027  0.2818 -0.0182
   21RES   C384 8824   1.078   1.188   4.957  0.0733  0.0637  1.0104
   21RES   C385 8825   0.944   1.257   4.956 -0.2538  0.1195 -0.3469
   21RES   C386 8826   0.948   1.400   4.901  0.8543 -0.0736 -0.3926
   21RES   H387 8827   1.187   0.936   5.210 -0.7867 -1.2842  1.6872
   21RES   H388 8828   1.341   0.898   5.202 -0.2015  0.8065  0.2947
   21RES   H389 8829   1.151   0.791   4.974  1.7250 -1.0255 -1.4686
   21RES   H390 8830   1.241   0.987   4.856 -1.4614 -0.8382 -0.7465
   21RES   H391 8831   1.284   1.057   5.013 -0.5984  0.2495  1.2512
   21RES   H392 8832   1.014   0.981   4.900  1.8268 -2.0680  0.0254
   21RES   H393 8833   1.026   1.016   5.072  0.7346 -2.6046 -0.0923
   21RES   H394 8834   1.139   1.222   5.041 -0.6566 -0.5350  1.7987
   21RES   H395 8835   1.138   1.213   4.870 -0.4546 -0.0131  0.6256
   21RES   H396 8836   0.904   1.259   5.057  1.7456  1.8249  0.4604
   21RES   H397 8837   0.865   1.216   4.893  1.1680 -2.0559 -0.7616
   21RES   H398 8838   0.968   1.407   4.794 -0.0891  3.2176 -0.3890
   21RES   H399 8839   1.032   1.447   4.952  2.7547 -1.2359 -2.3581
   21RES   H400 8840   0.855   1.449   4.927 -0.5072 -3.3713  1.3409
   21RES   C401 8841   1.364   0.791   4.962  0.2500  0.0709  0.1001
   21RES   C402 8842   1.352   0.722   4.823 -0.1442 -0.2231  0.7628
   21RES   C403 8843   1.476   0.637   4.790 -0.7469 -0.5040 -0.2334
   21RES   C404 8844   1.606   0.722   4.794  0.1756  0.9200 -0.1831
   21RES   C405 8845   1.731   0.642   4.748  0.2739 -0.3851  0.1718
   21RES   C406 8846   1.861   0.712   4.775  0.4130  0.1427  0.0520
   21RES   C407 8847   1.978   0.629   4.719 -0.3952  0.7687 -0.2951
   21RES   H408 8848   1.380   0.706   5.029 -2.8269 -0.2078  0.5605
   21RES   H409 8849   1.444   0.864   4.968  1.3884 -0.8297 -3.1047
   21RES   H410 8850   1.334   0.809   4.760  0.1389 -0.3574  0.4912
   21RES   H411 8851   1.466   0.609   4.685  1.6422  1.6213 -1.0822
   21RES   H412 8852   1.476   0.545   4.848  0.0955  0.4114  1.2491
   21RES   H413 8853   1.630   0.757   4.894  0.9101  0.5937 -0.2434
   21RES   H414 8854   1.589   0.817   4.742  0.6796  0.5949 -0.9455
   21RES   H415 8855   1.741   0.542   4.790 -0.5602 -0.0332  1.2290
   21RES   H416 8856   1.719   0.633   4.640 -0.5014  1.1172  0.1186
   21RES   H417 8857   1.869   0.811   4.730  1.3139  0.1788  0.2632
   21RES   H418 8858   1.879   0.732   4.881 -2.0541  0.4691  0.4284
   21RES   H419 8859   2.015   0.550   4.784 -0.8993  0.2736 -0.6039
   21RES   H420 8860   2.060   0.694   4.687  0.1434 -1.0053 -2.6418
   21RES   H421 8861   1.959   0.574   4.627  2.6737 -1.8601  0.5609
   21RES   H422 8862   1.255   0.673   4.823 -0.6154  0.6740 -0.6135
   22RES     C1 8863   4.282   6.715   6.006  0.5124 -0.1757  0.2513
   22RES     C2 8864   4.319   6.704   5.855 -0.2615  0.0408 -0.2515
   22RES     C3 8865   4.388   6.569   5.824  1.0052  0.2958 -0.1498
   22RES     C4 8866   4.303   6.444   5.810  0.7654  0.0177 -1.0453
   22RES     C5 8867   4.392   6.326   5.741 -0.1435  0.8252  0.1478
   22RES     C6 8868   4.298   6.218   5.702  0.0771  0.7257  0.2561
   22RES     C7 8869   4.370   6.094   5.645  0.0424  0.5330 -0.0307
   22RES     H8 8870   4.212   6.639   6.042  0.9295  0.0956  1.6848
   22RES     H9 8871   4.247   6.813   6.038  1.2259  0.4316 -0.8070
   22RES    H10 8872   4.230   6.705   5.793 -1.6267 -0.6670  1.6388
   22RES    H11 8873   4.417   6.584   5.720 -2.4144 -0.1844 -1.2124
   22RES    H12 8874   4.477   6.545   5.882 -0.6245 -1.0695  1.8702
   22RES    H13 8875   4.269   6.406   5.906  2.8011  0.4641 -0.1151
   22RES    H14 8876   4.213   6.469   5.754 -1.7504  0.3388  2.9525
   22RES    H15 8877   4.463   6.288   5.814  1.0664 -0.2362 -1.5483
   22RES    H16 8878   4.453   6.369   5.662  1.8615  0.1029  1.2622
   22RES    H17 8879   4.238   6.254   5.618 -0.2103 -1.8395 -0.6833
   22RES    H18 8880   4.228   6.187   5.780  0.8306  0.4435  0.8287
   22RES    H19 8881   4.445   6.114   5.569 -1.1817 -3.7626 -2.5848
   22RES    H20 8882   4.287   6.042   5.597  0.4824 -0.5237  0.3284
   22RES    H21 8883   4.416   6.025   5.716 -2.1351 -0.2140  0.7018
   22RES    H22 8884   4.368   6.688   6.068  0.3809 -0.9348  0.1140
   22RES    C23 8885   4.395   6.829   5.804  0.5293  0.3555 -0.8667
   22RES    C24 8886   4.542   6.845   5.860 -0.2910  0.1432 -0.4050
   22RES    C25 8887   4.554   6.980   5.942  0.4735 -0.3155  0.4509
   22RES    C26 8888   4.541   7.110   5.872 -0.6557  0.2473  0.1712
   22RES    C27 8889   4.550   7.234   5.970 -0.4911 -0.3888 -0.4700
   22RES    C28 8890   4.548   7.373   5.908 -0.2891 -0.4908  0.5667
   22RES    C29 8891   4.585   7.492   5.992 -0.0538 -0.3355 -0.2994
   22RES    H30 8892   4.403   6.824   5.695  0.3699 -0.1119 -0.8572
   22RES    H31 8893   4.336   6.918   5.824 -3.8339 -2.6625  0.5227
   22RES    H32 8894   4.555   6.763   5.931  0.6479  0.2610 -0.4328
   22RES    H33 8895   4.650   6.980   5.993  0.0269 -1.8704  1.3242
   22RES    H34 8896   4.484   6.994   6.025  2.3191  0.3407  1.9393
   22RES    H35 8897   4.445   7.095   5.823  0.3670  0.0142 -1.8554
   22RES    H36 8898   4.628   7.124   5.807 -1.0965 -0.1905 -0.5115
   22RES    H37 8899   4.641   7.233   6.030  1.2092 -3.7258 -2.9265
   22RES    H38 8900   4.473   7.218   6.045  0.2948 -1.0233  0.2075
   22RES    H39 8901   4.451   7.388   5.859  0.1800 -3.6030 -1.4507
   22RES    H40 8902   4.622   7.377   5.829  0.3972  2.0310  1.2963
   22RES    H41 8903   4.682   7.495   6.043 -0.4645  4.2082  0.3820
   22RES    H42 8904   4.591   7.581   5.929  0.8023  0.0422  0.2986
   22RES    H43 8905   4.520   7.508   6.078 -0.0532  1.2161 -0.5684
   22RES    C44 8906   4.651   6.820   5.751 -0.0935 -0.5125  0.3096
   22RES    C45 8907   4.782   6.764   5.797 -0.5590  0.2670 -0.0556
   22RES    C46 8908   4.769   6.612   5.823 -0.5292 -0.0651 -0.0280
   22RES    C47 8909   4.758   6.520   5.700  0.1651 -0.2587  0.7921
   22RES    C48 8910   4.794   6.372   5.737  0.3005  0.5420 -0.1301
   22RES    C49 8911   4.786   6.267   5.620  0.6735 -0.3271  0.4548
   22RES    C50 8912   4.848   6.140   5.662  0.5398  0.0446 -0.1573
   22RES    H51 8913   4.663   6.914   5.696  2.0184 -1.1355 -0.3357
   22RES    H52 8914   4.605   6.748   5.684 -2.0110 -0.0752  1.1183
   22RES    H53 8915   4.797   6.814   5.892 -2.0044  0.2748  0.1846
   22RES    H54 8916   4.700   6.582   5.901 -1.9836 -1.3936 -1.7812
   22RES    H55 8917   4.866   6.589   5.867  1.1101  3.0173 -1.8040
   22RES    H56 8918   4.656   6.522   5.661 -0.6010 -1.8887  2.6044
   22RES    H57 8919   4.825   6.552   5.620 -0.1279  0.4043  0.8058
   22RES    H58 8920   4.722   6.344   5.814  1.6577 -3.1147 -0.1104
   22RES    H59 8921   4.896   6.368   5.775  0.3813 -0.3853 -0.4243
   22RES    H60 8922   4.856   6.301   5.543  0.8304 -1.8406 -0.0948
   22RES    H61 8923   4.688   6.252   5.575  0.9468  1.0793 -0.6776
   22RES    H62 8924   4.789   6.095   5.741 -1.5435  0.9391 -1.1529
   22RES    H63 8925   4.951   6.151   5.694  0.7838  0.2839 -0.9932
   22RES    H64 8926   4.851   6.069   5.579 -0.2177 -0.7462  0.4887
   22RES    C65 8927   4.905   6.798   5.704  0.4811  0.0212 -0.3129
   22RES    C66 8928   5.004   6.893   5.774 -0.3417 -0.6818  1.3535
   22RES    C67 8929   4.962   7.042   5.740 -0.3554 -0.5984 -0.6800
   22RES    C68 8930   5.002   7.152   5.838  0.5014  0.4247 -0.2359
   22RES    C69 8931   4.963   7.292   5.790  0.0224 -0.1355  0.5964
   22RES    C70 8932   4.972   7.414   5.881  0.1243  0.1429 -0.3085
   22RES    C71 8933   5.113   7.464   5.910  0.1584  0.2177  0.7839
   22RES    H72 8934   4.955   6.703   5.683 -1.1783 -0.9615  0.0430
   22RES    H73 8935   4.874   6.832   5.605  0.2497 -1.4034 -0.7473
   22RES    H74 8936   5.002   6.870   5.880 -0.2434  0.3592  1.5843
   22RES    H75 8937   5.018   7.075   5.652  2.1340  2.8493  2.0482
   22RES    H76 8938   4.857   7.047   5.710 -0.6742  0.2664  0.5320
   22RES    H77 8939   4.938   7.136   5.925 -0.0429  1.4156 -0.4554
   22RES    H78 8940   5.103   7.136   5.876  0.6174  0.6148 -0.4709
   22RES    H79 8941   5.025   7.328   5.708 -1.6547  0.6428 -0.3320
   22RES    H80 8942   4.871   7.280   5.733  1.3548  1.6131 -2.0096
   22RES    H81 8943   4.933   7.386   5.978 -0.6937 -0.3812 -0.7806
   22RES    H82 8944   4.909   7.489   5.834  1.0967 -0.0472 -1.9977
   22RES    H83 8945   5.170   7.474   5.818 -1.2255  1.0179 -0.0057
   22RES    H84 8946   5.116   7.559   5.963  0.9919  0.0337  1.0626
   22RES    H85 8947   5.168   7.389   5.966 -0.5244 -1.2141 -0.4275
   22RES    C86 8948   5.153   6.866   5.726  0.0556  0.2365  0.7520
   22RES    C87 8949   5.229   6.763   5.809 -0.1943  0.0067  0.6944
   22RES    C88 8950   5.317   6.669   5.719  0.4687  0.3807 -0.0394
   22RES    C89 8951   5.224   6.569   5.650 -0.3611  0.0699 -0.1583
   22RES    C90 8952   5.303   6.473   5.559 -0.5099 -0.3354  0.0167
   22RES    C91 8953   5.224   6.373   5.474 -0.6708  0.4270 -0.6113
   22RES    C92 8954   5.311   6.260   5.411  0.1983 -0.1596 -0.7139
   22RES    H93 8955   5.149   6.828   5.624  0.9967 -1.1828  1.2335
   22RES    H94 8956   5.204   6.963   5.728  1.4524 -0.4469 -0.5931
   22RES    H95 8957   5.151   6.709   5.863 -0.3461 -0.7613 -0.2679
   22RES    H96 8958   5.377   6.725   5.648 -0.8974  2.6006  0.5035
   22RES    H97 8959   5.389   6.604   5.768 -0.6508 -0.2075  0.8647
   22RES    H98 8960   5.169   6.514   5.725 -0.6570  1.7288  0.8513
   22RES    H99 8961   5.157   6.619   5.580  1.7408 -1.3249 -3.2936
   22RES   H100 8962   5.371   6.413   5.620 -0.7944 -1.4116 -0.7202
   22RES   H101 8963   5.365   6.530   5.490  1.2846 -0.6994  1.2981
   22RES   H102 8964   5.157   6.323   5.544  1.9144 -1.3179  0.6909
   22RES   H103 8965   5.161   6.412   5.394 -0.1776  0.8044 -0.8225
   22RES   H104 8966   5.352   6.283   5.313  0.1257  0.4691 -0.5982
   22RES   H105 8967   5.240   6.179   5.391 -0.5905  0.5522 -0.8252
   22RES   H106 8968   5.384   6.208   5.474 -0.0558 -1.2802 -1.3307
   22RES   C107 8969   5.313   6.830   5.926 -0.3530 -0.3990 -0.1679
   22RES   C108 8970   5.363   6.744   6.041  0.8278 -0.1472 -0.2759
   22RES   C109 8971   5.480   6.813   6.119 -0.0200  0.3945  0.0796
   22RES   C110 8972   5.577   6.709   6.183  0.2985  0.0799  0.3996
   22RES   C111 8973   5.679   6.777   6.271  1.2061 -0.3639 -0.0562
   22RES   C112 8974   5.778   6.688   6.339 -0.0613  0.5834  0.2414
   22RES   C113 8975   5.856   6.770   6.442 -0.0868  0.0103 -0.3202
   22RES   H114 8976   5.252   6.910   5.967 -0.8571 -1.2596  0.7955
   22RES   H115 8977   5.394   6.887   5.882 -0.8817  0.3187 -0.2224
   22RES   H116 8978   5.420   6.663   5.995  0.9970  0.6773 -1.5458
   22RES   H117 8979   5.428   6.874   6.193  0.0704 -0.3879  0.7946
   22RES   H118 8980   5.544   6.877   6.058 -1.8782  1.0967 -1.1772
   22RES   H119 8981   5.515   6.643   6.244 -0.2872  1.4539  1.3103
   22RES   H120 8982   5.627   6.653   6.104  0.1056 -0.6074  0.7565
   22RES   H121 8983   5.609   6.813   6.346  0.8767 -0.4185 -0.3337
   22RES   H122 8984   5.737   6.851   6.216  1.0616  0.1192  0.4450
   22RES   H123 8985   5.729   6.607   6.393  0.4402 -0.9922 -1.5622
   22RES   H124 8986   5.844   6.636   6.270  2.8944  2.5295  1.5283
   22RES   H125 8987   5.792   6.827   6.509  1.2661  1.2344 -0.0655
   22RES   H126 8988   5.918   6.707   6.506  0.4265  0.9286  0.0870
   22RES   H127 8989   5.931   6.833   6.394  1.8080 -1.9757 -0.0446
   22RES   C128 8990   5.253   6.673   6.120 -0.1193 -0.0711  0.5126
   22RES   C129 8991   5.131   6.752   6.184  0.4129  0.1090  0.2775
   22RES   C130 8992   5.168   6.877   6.271 -0.5031 -0.5558  0.0060
   22RES   C131 8993   5.052   6.983   6.284  0.5167  1.1281 -0.3337
   22RES   C132 8994   5.112   7.120   6.307 -0.1630 -0.0740 -0.5834
   22RES   C133 8995   5.002   7.225   6.334  0.4135 -0.3765 -0.4082
   22RES   C134 8996   4.952   7.277   6.207  0.3072 -0.0283 -0.5720
   22RES   H135 8997   5.193   6.617   6.048  1.4825 -1.6922  0.4024
   22RES   H136 8998   5.302   6.604   6.188 -0.0246 -0.7805 -0.2664
   22RES   H137 8999   5.085   6.794   6.095  1.2100  1.1437  0.3409
   22RES   H138 9000   5.247   6.927   6.215  0.1167 -1.4412  0.0691
   22RES   H139 9001   5.197   6.841   6.370  1.5321 -0.7236 -0.6314
   22RES   H140 9002   4.978   6.966   6.362  1.2914 -0.8412  0.0162
   22RES   H141 9003   4.991   6.989   6.194 -1.2121  0.6413  0.7886
   22RES   H142 9004   5.176   7.150   6.224  3.0209  0.1945  1.8480
   22RES   H143 9005   5.170   7.120   6.400 -0.3721 -0.1785 -0.4536
   22RES   H144 9006   5.052   7.301   6.395 -0.6322 -1.7451  2.2435
   22RES   H145 9007   4.926   7.183   6.400  0.5272  1.3104  0.8174
   22RES   H146 9008   4.901   7.203   6.146  0.3286  0.4031 -1.1128
   22RES   H147 9009   5.027   7.321   6.142  0.2754  1.4793  0.3933
   22RES   H148 9010   4.870   7.347   6.227  1.0220 -0.3554  4.1504
   22RES   C149 9011   5.047   6.651   6.266  0.5321  0.8663 -0.2433
   22RES   C150 9012   4.931   6.584   6.179  0.6936 -0.4383  0.0598
   22RES   C151 9013   4.810   6.683   6.170 -0.0969 -0.2908 -0.5671
   22RES   C152 9014   4.737   6.714   6.303 -0.0728  0.5137 -0.5250
   22RES   C153 9015   4.605   6.794   6.281 -0.2876  0.2728 -0.0000
   22RES   C154 9016   4.491   6.752   6.373  0.5197 -0.4319 -0.4860
   22RES   C155 9017   4.362   6.838   6.347 -0.0527  0.2070  0.7970
   22RES   H156 9018   5.106   6.570   6.310  0.1314  1.3649  1.2468
   22RES   H157 9019   5.005   6.693   6.357 -1.3435 -1.7083  0.1385
   22RES   H158 9020   4.974   6.572   6.080 -0.0618 -0.5597 -0.2543
   22RES   H159 9021   4.845   6.775   6.123 -0.4639 -0.5779 -1.4257
   22RES   H160 9022   4.736   6.640   6.103 -0.1316 -2.9441  1.1134
   22RES   H161 9023   4.810   6.775   6.355  0.5715 -0.3760 -0.3722
   22RES   H162 9024   4.713   6.627   6.365 -2.1997  1.7166  0.3927
   22RES   H163 9025   4.573   6.781   6.178  0.7161 -0.9994 -0.1501
   22RES   H164 9026   4.637   6.898   6.295  2.1566 -0.3867 -0.4258
   22RES   H165 9027   4.522   6.742   6.477 -0.4126 -2.8936 -0.4104
   22RES   H166 9028   4.473   6.652   6.334  1.0938  0.4966 -3.2908
   22RES   H167 9029   4.275   6.800   6.401  0.5960 -2.6547 -0.1240
   22RES   H168 9030   4.332   6.859   6.245 -0.2074 -1.3108  0.5218
   22RES   H169 9031   4.384   6.932   6.399 -1.0412  0.1174  1.3852
   22RES   C170 9032   4.883   6.442   6.217  0.0753  0.1997 -0.5612
   22RES   C171 9033   4.987   6.326   6.206 -0.1126  0.2358  0.4048
   22RES   C172 9034   4.928   6.195   6.263 -0.2194 -0.0694 -0.0800
   22RES   C173 9035   4.932   6.184   6.415 -0.2257  0.6908 -0.3725
   22RES   C174 9036   4.854   6.062   6.464 -0.1436  0.9200  0.0851
   22RES   C175 9037   4.911   5.930   6.418  0.1718  0.2095  0.3231
   22RES   C176 9038   4.865   5.810   6.497 -0.1253 -0.4774  0.0715
   22RES   H177 9039   4.790   6.414   6.168 -0.9122 -1.0128  1.9123
   22RES   H178 9040   4.856   6.446   6.322 -0.9884  0.4600 -0.8487
   22RES   H179 9041   5.071   6.356   6.268 -0.4818 -0.7053  1.3848
   22RES   H180 9042   4.984   6.112   6.220  1.9574  2.3087 -1.9734
   22RES   H181 9043   4.823   6.187   6.235 -1.0703 -0.9194  3.1195
   22RES   H182 9044   4.889   6.263   6.475  2.6310  2.2371 -0.2950
   22RES   H183 9045   5.038   6.175   6.437  0.4717  0.6976 -3.4529
   22RES   H184 9046   4.747   6.070   6.444 -0.2789  2.0054  1.2051
   22RES   H185 9047   4.857   6.066   6.573 -0.7132 -3.2686  0.3269
   22RES   H186 9048   5.020   5.932   6.422  0.2926 -1.9151 -1.1962
   22RES   H187 9049   4.894   5.923   6.311 -2.3616 -1.1941  0.7778
   22RES   H188 9050   4.899   5.828   6.599 -1.3482  0.1548  0.3732
   22RES   H189 9051   4.926   5.721   6.479  1.1091  0.5240 -0.7808
   22RES   H190 9052   4.762   5.777   6.506 -1.1764  2.8582  0.8517
   22RES   C191 9053   5.047   6.307   6.061 -0.5758  0.2070 -0.3498
   22RES   C192 9054   5.182   6.233   6.057  0.2923  0.9293  0.6621
   22RES   C193 9055   5.215   6.207   5.908  0.1982  0.3152 -0.2044
   22RES   C194 9056   5.196   6.055   5.872  0.0036 -0.4860  0.1837
   22RES   C195 9057   5.228   6.021   5.724  0.0084 -0.1224 -0.8063
   22RES   C196 9058   5.180   5.883   5.670  0.4614 -0.4129 -0.4561
   22RES   C197 9059   5.283   5.777   5.727 -0.0275  0.2077 -0.2844
   22RES   H198 9060   5.063   6.406   6.020  1.0864  0.4536  0.8724
   22RES   H199 9061   4.969   6.266   5.996 -0.9853  1.3245 -0.5802
   22RES   H200 9062   5.174   6.141   6.114  1.5587  0.3409 -0.0791
   22RES   H201 9063   5.308   6.251   5.872 -0.5428  0.4942 -1.9852
   22RES   H202 9064   5.148   6.268   5.847 -0.7138 -1.5476 -1.1393
   22RES   H203 9065   5.094   6.021   5.891  0.3910 -1.2842  0.8468
   22RES   H204 9066   5.255   5.998   5.943  0.3852  1.4597  1.4616
   22RES   H205 9067   5.194   6.087   5.644 -0.1074 -1.9193 -2.2500
   22RES   H206 9068   5.336   6.023   5.710  0.1523  0.1113  0.2633
   22RES   H207 9069   5.187   5.891   5.561 -1.2718  0.8326 -0.4952
   22RES   H208 9070   5.074   5.867   5.689  0.1076  0.5197 -1.5278
   22RES   H209 9071   5.387   5.797   5.700 -0.5558  1.0673 -1.7653
   22RES   H210 9072   5.265   5.676   5.688 -0.5032  0.4167 -0.6134
   22RES   H211 9073   5.268   5.778   5.834 -0.3956  1.1433 -0.3465
   22RES   C212 9074   5.290   6.325   6.111 -0.3449 -0.0197  0.8352
   22RES   C213 9075   5.418   6.247   6.139 -0.2823 -0.0196  0.7016
   22RES   C214 9076   5.535   6.324   6.074  0.3121 -0.3017  0.7531
   22RES   C215 9077   5.671   6.255   6.077 -0.2023 -0.0669 -0.2366
   22RES   C216 9078   5.794   6.337   6.051  0.2631 -0.4125  0.0149
   22RES   C217 9079   5.791   6.398   5.909 -0.3983 -0.2155  0.2483
   22RES   C218 9080   5.904   6.501   5.896  0.2884  0.9378  0.5812
   22RES   H219 9081   5.260   6.382   6.200 -0.6444 -0.4734  1.0291
   22RES   H220 9082   5.299   6.415   6.051 -0.1635  0.2971  1.3386
   22RES   H221 9083   5.417   6.145   6.100  2.2823  0.1323  0.1841
   22RES   H222 9084   5.507   6.367   5.978 -1.2752 -1.3782  0.7112
   22RES   H223 9085   5.544   6.416   6.133 -1.2244 -0.2788  0.9780
   22RES   H224 9086   5.658   6.170   6.010 -1.7415  0.7539 -1.0083
   22RES   H225 9087   5.676   6.207   6.174  1.3755  0.6578  0.0456
   22RES   H226 9088   5.804   6.424   6.116 -1.4000  0.6254 -1.0793
   22RES   H227 9089   5.891   6.289   6.067  0.3271 -0.1746  0.3444
   22RES   H228 9090   5.813   6.314   5.843  1.7078  1.1346 -0.8310
   22RES   H229 9091   5.690   6.436   5.889 -0.3342 -0.9442 -1.5726
   22RES   H230 9092   5.998   6.457   5.931  0.0603  0.0165  0.0678
   22RES   H231 9093   5.881   6.601   5.932 -0.2648  0.6914  0.9186
   22RES   H232 9094   5.914   6.496   5.788 -0.1895 -1.2825  0.6058
   22RES   C233 9095   5.445   6.216   6.292 -0.1846  0.1827  0.7063
   22RES   C234 9096   5.348   6.111   6.355  0.1551 -0.7159  0.4725
   22RES   C235 9097   5.334   5.972   6.291 -0.0731  0.3499 -0.4876
   22RES   C236 9098   5.462   5.892   6.310 -0.0157 -0.5587  0.1530
   22RES   C237 9099   5.520   5.826   6.181 -0.1820  0.5099 -0.9487
   22RES   C238 9100   5.645   5.737   6.204 -0.4473 -0.0124 -0.3715
   22RES   C239 9101   5.618   5.622   6.297 -0.4672  0.4723  0.7500
   22RES   H240 9102   5.437   6.309   6.347  2.8030  0.3116  0.9732
   22RES   H241 9103   5.547   6.185   6.313 -0.2117  0.6128  1.4695
   22RES   H242 9104   5.248   6.151   6.344 -0.2619 -1.1062  2.5355
   22RES   H243 9105   5.311   5.978   6.185 -0.2870  2.2081 -0.3548
   22RES   H244 9106   5.257   5.907   6.331 -0.9267  1.7217  0.1575
   22RES   H245 9107   5.448   5.816   6.386 -0.5138  0.0219  0.6545
   22RES   H246 9108   5.542   5.960   6.341 -2.2304  2.4289 -0.3867
   22RES   H247 9109   5.542   5.906   6.110  1.7168 -0.1642 -1.1535
   22RES   H248 9110   5.445   5.763   6.134  0.7921 -0.1166 -1.6864
   22RES   H249 9111   5.676   5.712   6.103  1.7937  2.0876 -0.2408
   22RES   H250 9112   5.724   5.803   6.239  0.4225 -1.0505 -0.3557
   22RES   H251 9113   5.585   5.641   6.399 -1.4481  0.5669  0.4209
   22RES   H252 9114   5.549   5.554   6.249  3.2280 -2.2183 -1.0079
   22RES   H253 9115   5.710   5.566   6.316 -0.9748 -1.3800 -2.0901
   22RES   C254 9116   5.371   6.098   6.514 -0.2958  0.8985  0.4583
   22RES   C255 9117   5.371   6.232   6.590 -0.9289  0.6867  0.4828
   22RES   C256 9118   5.399   6.210   6.747  0.7754 -0.6157 -0.3438
   22RES   C257 9119   5.526   6.138   6.795  0.1246  0.0206  1.1669
   22RES   C258 9120   5.563   6.136   6.945  0.4146  0.4773 -0.3057
   22RES   C259 9121   5.716   6.107   6.980 -0.1204  0.0424  0.4990
   22RES   C260 9122   5.767   6.177   7.108  0.0832 -0.2534  0.1808
   22RES   H261 9123   5.465   6.046   6.533  0.3221  0.8627 -2.4276
   22RES   H262 9124   5.294   6.036   6.559  0.4288  0.5478  1.2263
   22RES   H263 9125   5.452   6.296   6.553 -1.7325  1.4009 -0.0466
   22RES   H264 9126   5.317   6.165   6.803  0.5292  0.4224  0.1440
   22RES   H265 9127   5.413   6.310   6.788  0.1367 -0.3809 -0.6908
   22RES   H266 9128   5.509   6.038   6.755  2.7539  0.2170 -0.5148
   22RES   H267 9129   5.601   6.190   6.737 -1.6408  0.1677 -1.0253
   22RES   H268 9130   5.502   6.085   7.019  0.5958 -1.4770 -1.4738
   22RES   H269 9131   5.545   6.243   6.958  1.6161  0.8721 -1.6908
   22RES   H270 9132   5.736   6.000   6.979  0.3659  0.1207 -2.0213
   22RES   H271 9133   5.776   6.146   6.898 -1.4385 -0.1209 -0.5517
   22RES   H272 9134   5.874   6.158   7.123 -0.2947 -2.7086 -0.0756
   22RES   H273 9135   5.761   6.286   7.101  2.4913 -0.0398  0.9060
   22RES   H274 9136   5.705   6.134   7.186 -1.5577 -0.2096 -1.0907
   22RES   C275 9137   5.241   6.313   6.577 -0.2632 -0.3345  0.0669
   22RES   C276 9138   5.225   6.454   6.635 -0.0782  0.3472  0.0609
   22RES   C277 9139   5.078   6.505   6.618 -0.1552 -0.6098 -0.0220
   22RES   C278 9140   4.973   6.482   6.727 -0.0081 -0.3483  0.2662
   22RES   C279 9141   4.830   6.531   6.694  0.4406  0.1210  0.3505
   22RES   C280 9142   4.732   6.505   6.807 -0.0555  0.4607 -0.1680
   22RES   C281 9143   4.590   6.506   6.756  0.2170  0.6119  0.2645
   22RES   H282 9144   5.156   6.251   6.605 -0.5421  0.5451  1.2228
   22RES   H283 9145   5.232   6.337   6.471 -0.4916 -1.8714 -0.2754
   22RES   H284 9146   5.241   6.436   6.741  0.1865 -2.5300 -0.3994
   22RES   H285 9147   5.089   6.613   6.612  0.7554 -0.8063 -2.3542
   22RES   H286 9148   5.053   6.467   6.519  3.1221  1.6433 -1.8188
   22RES   H287 9149   5.009   6.513   6.825  2.4113 -0.9220 -0.4170
   22RES   H288 9150   4.972   6.373   6.731  1.0048 -0.3633  0.3295
   22RES   H289 9151   4.794   6.473   6.608 -0.9163 -0.1259  1.0741
   22RES   H290 9152   4.823   6.639   6.681 -2.5409  0.0199  0.7547
   22RES   H291 9153   4.750   6.403   6.842  2.8471 -0.2542 -3.3882
   22RES   H292 9154   4.754   6.573   6.889  0.1077 -1.0320  1.0622
   22RES   H293 9155   4.565   6.586   6.687  0.5928  1.5155  1.1750
   22RES   H294 9156   4.512   6.509   6.832  0.2860 -0.6098  0.3908
   22RES   H295 9157   4.560   6.416   6.702  1.7553  0.9229 -1.1533
   22RES   C296 9158   5.340   6.549   6.585 -0.0422 -0.3190 -0.2976
   22RES   C297 9159   5.350   6.682   6.657 -0.1674  0.9889 -0.1250
   22RES   C298 9160   5.433   6.789   6.578 -0.1447  0.1116  0.2126
   22RES   C299 9161   5.379   6.933   6.581  0.4685 -0.0609 -0.7401
   22RES   C300 9162   5.448   7.034   6.482 -0.4308 -0.2630  0.1043
   22RES   C301 9163   5.418   7.178   6.519  0.0950  0.0242 -0.0242
   22RES   C302 9164   5.466   7.290   6.423 -0.2381  0.3912 -0.1229
   22RES   H303 9165   5.438   6.502   6.581  0.6964  1.2109 -0.0899
   22RES   H304 9166   5.317   6.583   6.484 -0.0683  0.8543  0.0997
   22RES   H305 9167   5.248   6.720   6.666 -0.1701  1.0709 -0.4732
   22RES   H306 9168   5.536   6.766   6.605  0.4638  2.8033  0.3511
   22RES   H307 9169   5.413   6.765   6.474 -1.3469 -0.2513  0.5226
   22RES   H308 9170   5.393   6.980   6.678 -1.6645 -2.5145  0.8299
   22RES   H309 9171   5.272   6.941   6.566  0.5572  0.5107 -1.0962
   22RES   H310 9172   5.434   7.022   6.374 -0.3956  1.7254 -0.1556
   22RES   H311 9173   5.555   7.017   6.494  0.0639  2.0273 -0.7118
   22RES   H312 9174   5.310   7.183   6.527  0.2172  0.2415  1.7239
   22RES   H313 9175   5.446   7.200   6.622  0.4907  1.2048 -0.3699
   22RES   H314 9176   5.426   7.271   6.323  0.4293 -0.2235 -0.2742
   22RES   H315 9177   5.419   7.379   6.464  1.2356  0.7093  0.9187
   22RES   H316 9178   5.574   7.298   6.417 -0.1897 -0.6251 -0.7582
   22RES   C317 9179   5.395   6.663   6.808 -0.3710  0.2859  0.2573
   22RES   C318 9180   5.297   6.700   6.916 -0.3327  0.1577  0.2644
   22RES   C319 9181   5.333   6.645   7.057  0.0324 -0.6499  0.3973
   22RES   C320 9182   5.359   6.495   7.080 -0.2955  0.1212  0.8819
   22RES   C321 9183   5.293   6.436   7.204 -0.1710 -0.2954  0.5843
   22RES   C322 9184   5.338   6.287   7.237 -0.6526 -0.4653 -0.5637
   22RES   C323 9185   5.263   6.239   7.365  0.2770  0.3267  0.2446
   22RES   H324 9186   5.488   6.714   6.832  0.8922 -1.1321 -1.5112
   22RES   H325 9187   5.417   6.558   6.823  1.4354  0.8917  2.0671
   22RES   H326 9188   5.197   6.668   6.884 -0.2078  1.0520 -1.0339
   22RES   H327 9189   5.247   6.672   7.118  0.9168  0.0613  1.3379
   22RES   H328 9190   5.415   6.706   7.095 -0.8648 -1.0297  3.0509
   22RES   H329 9191   5.465   6.472   7.077 -0.2365  0.4139  0.7296
   22RES   H330 9192   5.334   6.437   6.992 -1.3306  3.0903 -0.8632
   22RES   H331 9193   5.185   6.450   7.198 -0.3825 -1.2412  1.9237
   22RES   H332 9194   5.309   6.503   7.289 -2.2059  0.5428  0.3396
   22RES   H333 9195   5.447   6.283   7.235 -0.6663 -0.5483 -1.2456
   22RES   H334 9196   5.298   6.226   7.157 -1.8134  0.1333 -0.4627
   22RES   H335 9197   5.155   6.248   7.349  0.3859  0.1991 -0.5885
   22RES   H336 9198   5.298   6.293   7.453  1.2565 -1.3823  0.9285
   22RES   H337 9199   5.281   6.133   7.378 -2.2863 -0.2667 -0.7880
   22RES   C338 9200   5.279   6.852   6.919 -0.2546  0.1137 -0.4529
   22RES   C339 9201   5.167   6.906   7.013  0.6382  0.3369 -0.3677
   22RES   C340 9202   5.068   6.999   6.939  0.4192  0.0963 -0.2813
   22RES   C341 9203   4.972   6.920   6.848 -0.0920 -0.1912  0.4281
   22RES   C342 9204   4.884   7.022   6.769 -1.2012 -0.7426  0.7877
   22RES   C343 9205   4.766   6.967   6.692  0.2426  0.0442 -0.0679
   22RES   C344 9206   4.678   7.067   6.615  0.3454 -0.1728  0.2438
   22RES   H345 9207   5.251   6.876   6.817  1.7931 -0.1457 -1.1030
   22RES   H346 9208   5.374   6.903   6.935  0.0139 -0.6166  0.3372
   22RES   H347 9209   5.094   6.829   7.040  1.5663 -0.7016 -0.7686
   22RES   H348 9210   5.007   7.063   7.003 -3.2686 -1.2626 -2.2845
   22RES   H349 9211   5.127   7.073   6.886 -0.0754  0.4794 -0.3017
   22RES   H350 9212   4.907   6.850   6.899 -1.2140 -0.0723 -0.8141
   22RES   H351 9213   5.027   6.867   6.770  0.7746 -0.2490  1.0720
   22RES   H352 9214   4.843   7.094   6.840 -1.2012  0.8889 -0.7982
   22RES   H353 9215   4.946   7.079   6.699 -0.0803 -1.8564  0.8617
   22RES   H354 9216   4.803   6.897   6.616 -1.8416 -1.2556  0.0674
   22RES   H355 9217   4.693   6.912   6.752 -0.4981  1.6825  0.5652
   22RES   H356 9218   4.634   7.139   6.685  1.4065  0.9446 -0.2266
   22RES   H357 9219   4.597   7.005   6.576  1.2603 -0.1491 -1.7564
   22RES   H358 9220   4.720   7.123   6.531  0.7981 -1.8846 -0.6847
   22RES   C359 9221   5.230   6.977   7.137  0.5919 -0.1421 -0.1794
   22RES   C360 9222   5.130   7.023   7.238 -0.2717  1.0118 -0.1291
   22RES   C361 9223   5.062   6.913   7.319 -0.7336  0.0632 -0.0512
   22RES   C362 9224   5.162   6.835   7.411 -0.4694 -0.0564 -0.3912
   22RES   C363 9225   5.097   6.745   7.510  0.6413 -0.4085  0.5105
   22RES   C364 9226   5.192   6.658   7.580 -0.0321  0.5455 -0.2645
   22RES   C365 9227   5.130   6.543   7.667  0.3684  0.7915 -0.4993
   22RES   H366 9228   5.286   7.065   7.106 -1.0669  1.4471  1.2636
   22RES   H367 9229   5.300   6.905   7.181 -1.6520 -2.2036  0.1456
   22RES   H368 9230   5.055   7.078   7.182 -1.6194 -1.7828 -1.1389
   22RES   H369 9231   4.987   6.961   7.382 -0.0010  0.9609  0.1562
   22RES   H370 9232   5.013   6.840   7.256  0.8444 -0.4350 -0.7317
   22RES   H371 9233   5.223   6.762   7.358  0.6537 -0.2902  1.1937
   22RES   H372 9234   5.224   6.903   7.469 -1.2833  1.5197 -1.3286
   22RES   H373 9235   5.035   6.801   7.580 -0.4433 -0.6148 -0.2614
   22RES   H374 9236   5.027   6.679   7.458 -0.0108  0.5495  0.1555
   22RES   H375 9237   5.262   6.617   7.507  0.5215  1.6447 -0.3682
   22RES   H376 9238   5.264   6.723   7.630 -0.5340  0.4619  0.5681
   22RES   H377 9239   5.065   6.583   0.018 -0.6689 -0.8314 -0.5045
   22RES   H378 9240   5.042   6.511   7.612 -0.2172  2.5662 -0.6408
   22RES   H379 9241   5.190   6.464   7.713  1.0599  1.1385 -0.7818
   22RES   C380 9242   5.199   7.133   7.336  0.2782  0.1997 -0.5242
   22RES   C381 9243   5.118   7.197   7.446  0.2348  0.7434  0.6009
   22RES   C382 9244   5.208   7.286   7.533  0.7832 -0.3425 -1.0235
   22RES   C383 9245   5.288   7.214   7.639 -0.2471 -0.6934  0.2215
   22RES   C384 9246   5.399   7.307   7.691 -0.2083  0.4895 -0.7856
   22RES   C385 9247   5.480   7.220   0.065  0.2983  0.4645  0.1104
   22RES   C386 9248   5.611   7.278   0.107  0.1513 -0.2673 -0.4014
   22RES   H387 9249   5.281   7.075   7.379 -1.5317 -2.3510 -0.3864
   22RES   H388 9250   5.240   7.212   7.274  0.0881  1.3350  0.7745
   22RES   H389 9251   5.073   7.127   7.516  0.0241  0.3174  0.0524
   22RES   H390 9252   5.152   7.367   7.581  0.8344 -1.1526  0.4445
   22RES   H391 9253   5.275   7.344   7.470  0.6611  1.8334  0.7939
   22RES   H392 9254   5.216   7.186   7.717 -0.1378 -0.7291  0.3109
   22RES   H393 9255   5.319   7.119   7.596 -0.8946 -0.9538  0.3234
   22RES   H394 9256   5.463   7.350   7.613  0.4040 -0.3253 -0.7283
   22RES   H395 9257   5.349   7.394   0.006  0.8477 -0.1009  1.7908
   22RES   H396 9258   5.488   7.113   0.044 -0.1682  0.6763 -1.1703
   22RES   H397 9259   5.422   7.210   0.156  0.7572 -2.6198  0.1096
   22RES   H398 9260   5.660   7.209   0.176 -1.0994  0.5715  1.4013
   22RES   H399 9261   5.604   7.375   0.157 -0.9136 -1.1096  1.1468
   22RES   H400 9262   5.671   7.293   0.018 -0.2780  1.0322 -0.4815
   22RES   C401 9263   4.997   7.279   7.388  0.1381  0.1138 -0.2326
   22RES   C402 9264   5.026   7.409   7.320  0.8023 -0.2613  0.0895
   22RES   C403 9265   4.902   7.480   7.263 -0.7615 -0.4953 -0.4950
   22RES   C404 9266   4.931   7.606   7.179  0.2071 -0.0416 -0.7129
   22RES   C405 9267   4.955   0.005   7.276  0.4315 -0.1449 -0.2956
   22RES   C406 9268   4.959   0.143   7.203  0.7696  0.3596 -0.8447
   22RES   C407 9269   4.995   0.271   7.273 -0.2400  0.2454  0.5061
   22RES   H408 9270   4.926   7.315   7.463  1.6637  1.3442  0.6473
   22RES   H409 9271   4.929   7.218   7.328 -0.5803  0.9296 -0.2634
   22RES   H410 9272   5.103   7.385   7.246  3.0188  0.9142  1.9965
   22RES   H411 9273   4.821   7.493   7.335  0.4166 -1.9495  1.1403
   22RES   H412 9274   4.856   7.401   7.204 -3.0149 -0.9871  1.7995
   22RES   H413 9275   4.854   7.616   7.102 -0.6385 -1.7502 -0.1033
   22RES   H414 9276   5.026   7.595   7.125  0.6176 -1.6414  0.3136
   22RES   H415 9277   4.877   0.015   7.351 -2.3126  0.7836 -3.2112
   22RES   H416 9278   5.053   0.004   7.326  1.5257  3.1741 -2.2256
   22RES   H417 9279   5.045   0.128   7.138  1.9393  1.8792  0.2949
   22RES   H418 9280   4.866   0.166   7.151  0.6142 -0.4992 -0.9417
   22RES   H419 9281   5.008   0.359   7.210 -0.2642 -0.2649 -0.2290
   22RES   H420 9282   5.088   0.250   7.324  0.7479  3.1571 -0.0390
   22RES   H421 9283   4.920   0.302   7.346  0.1096  1.1868  0.4616
   22RES   H422 9284   5.082   7.473   7.388 -2.3695 -1.5735  4.1173
   23RES     C1 9285   2.108   0.491   0.543 -0.3491  0.0595 -0.1377
   23RES     C2 9286   2.003   0.518   0.652  0.3204  0.3685  0.3869
   23RES     C3 9287   1.868   0.455   0.605 -0.5266 -0.2734  0.2598
   23RES     C4 9288   1.769   0.432   0.721  0.2238  0.1534  0.0306
   23RES     C5 9289   1.631   0.368   0.670 -0.3885 -0.3188 -0.3249
   23RES     C6 9290   1.525   0.374   0.779 -0.2560 -0.0549  0.2620
   23RES     C7 9291   1.402   0.282   0.750 -0.1770 -0.1063 -0.1969
   23RES     H8 9292   2.075   0.541   0.452 -0.7727 -1.9851 -1.1572
   23RES     H9 9293   2.107   0.385   0.516 -2.2326 -0.4157  1.6138
   23RES    H10 9294   2.037   0.454   0.734  0.0820  2.1055  1.8798
   23RES    H11 9295   1.826   0.522   0.530  2.1373  1.9901  0.7192
   23RES    H12 9296   1.885   0.364   0.548 -2.2050 -1.3244  1.4226
   23RES    H13 9297   1.812   0.362   0.792  1.5702 -0.1833 -1.0992
   23RES    H14 9298   1.754   0.526   0.774 -2.3906  1.4555 -2.8152
   23RES    H15 9299   1.636   0.267   0.630  1.1428 -1.4727  2.6320
   23RES    H16 9300   1.598   0.430   0.587  0.1715  0.2424 -0.1355
   23RES    H17 9301   1.489   0.476   0.793  2.1333  0.6459  1.6344
   23RES    H18 9302   1.572   0.346   0.874  0.8217 -1.2133 -0.5984
   23RES    H19 9303   1.325   0.326   0.687  0.7722 -0.3850 -1.5725
   23RES    H20 9304   1.343   0.265   0.840 -0.4418 -2.4086 -0.7661
   23RES    H21 9305   1.419   0.178   0.721 -1.5743 -0.3913 -0.0180
   23RES    H22 9306   2.209   0.530   0.548  0.4604 -1.8436 -0.9362
   23RES    C23 9307   1.997   0.668   0.694  0.5769 -0.7875 -0.0374
   23RES    C24 9308   2.129   0.747   0.748  0.3048 -0.1803 -0.2155
   23RES    C25 9309   2.125   0.740   0.897  0.0101  0.0753  0.4287
   23RES    C26 9310   2.254   0.784   0.970 -0.2698  0.0394  0.3318
   23RES    C27 9311   2.230   0.798   1.128  0.1533 -0.5896  0.9280
   23RES    C28 9312   2.364   0.843   1.191  0.4499 -0.7108 -0.6319
   23RES    C29 9313   2.344   0.871   1.342 -0.3304  0.2218  0.5890
   23RES    H30 9314   1.952   0.732   0.617  0.2286  1.3379  1.8865
   23RES    H31 9315   1.920   0.661   0.770 -0.9273 -0.0302 -1.4615
   23RES    H32 9316   2.219   0.696   0.715  0.3047 -1.0441  1.1016
   23RES    H33 9317   2.088   0.641   0.922 -0.6771  0.6948  1.9437
   23RES    H34 9318   2.048   0.805   0.939  1.3197  1.0727  1.3221
   23RES    H35 9319   2.301   0.869   0.922 -0.3319 -0.2384 -0.2237
   23RES    H36 9320   2.333   0.710   0.956  2.5201  3.0786 -0.6874
   23RES    H37 9321   2.189   0.706   1.169 -0.9695 -0.3271  0.4287
   23RES    H38 9322   2.147   0.863   1.157  0.9673  1.1305 -0.4601
   23RES    H39 9323   2.401   0.933   1.142 -0.9245  1.5378  2.3072
   23RES    H40 9324   2.433   0.761   1.173  1.9879 -0.0830  2.1970
   23RES    H41 9325   2.437   0.908   1.385  0.8139 -1.7990 -0.1076
   23RES    H42 9326   2.250   0.921   1.367  0.1936  1.6892 -0.3018
   23RES    H43 9327   2.335   0.775   1.393 -0.6399  0.0467  0.2034
   23RES    C44 9328   2.117   0.890   0.699  0.8742  0.4551 -0.0342
   23RES    C45 9329   2.137   0.920   0.549 -0.5565  0.8316 -0.3386
   23RES    C46 9330   2.049   1.040   0.503  0.5740 -0.7268  0.8371
   23RES    C47 9331   2.109   1.173   0.545  0.0515 -0.2650 -0.2137
   23RES    C48 9332   2.026   1.295   0.510  0.4957  0.1869 -0.2806
   23RES    C49 9333   2.079   1.435   0.557 -0.1544  0.5837  0.0927
   23RES    C50 9334   1.995   1.550   0.500 -0.2373 -0.4456  0.1365
   23RES    H51 9335   2.186   0.949   0.758  1.0207  0.3624 -0.1123
   23RES    H52 9336   2.022   0.930   0.735  0.8751  1.9072 -1.6014
   23RES    H53 9337   2.093   0.834   0.499 -0.5101 -0.1106  1.1983
   23RES    H54 9338   1.947   1.025   0.540  0.9739 -2.5056  1.2981
   23RES    H55 9339   2.051   1.031   0.394 -1.5465  0.7093  0.6342
   23RES    H56 9340   2.128   1.168   0.652  1.5579  0.0011 -0.4555
   23RES    H57 9341   2.213   1.185   0.516  0.4468 -1.3650  0.6834
   23RES    H58 9342   1.924   1.285   0.548  0.4971  0.6008 -0.1608
   23RES    H59 9343   2.011   1.293   0.402  0.4288 -1.2066 -0.2467
   23RES    H60 9344   2.178   1.455   0.516 -0.1254 -0.9465 -0.6263
   23RES    H61 9345   2.079   1.444   0.666 -0.5497  0.2367  0.1220
   23RES    H62 9346   2.035   1.642   0.541  1.3276 -1.5296  1.0866
   23RES    H63 9347   1.890   1.548   0.530  0.0179  2.2075  1.3506
   23RES    H64 9348   1.980   1.546   0.392  3.7130 -1.5719 -0.4441
   23RES    C65 9349   2.291   0.926   0.504 -0.2820  0.2608 -0.6303
   23RES    C66 9350   2.319   0.907   0.355  0.1308 -0.2424  0.7631
   23RES    C67 9351   2.452   0.817   0.343  0.6538  0.2975  0.1325
   23RES    C68 9352   2.421   0.671   0.350 -0.2662 -1.0186  0.1676
   23RES    C69 9353   2.551   0.592   0.326 -0.1741  0.6752  0.5099
   23RES    C70 9354   2.545   0.438   0.336 -0.1382  0.4393 -0.0120
   23RES    C71 9355   2.683   0.375   0.328 -0.1148  0.3560  0.3130
   23RES    H72 9356   2.348   1.013   0.536 -0.5592  1.4121 -3.1313
   23RES    H73 9357   2.345   0.846   0.555  1.7611  1.6156 -0.6438
   23RES    H74 9358   2.239   0.848   0.311  1.8439  0.5218 -3.5729
   23RES    H75 9359   2.491   0.841   0.244  0.7212  0.6571  0.2445
   23RES    H76 9360   2.523   0.845   0.421  0.6587  0.6808 -0.0092
   23RES    H77 9361   2.375   0.639   0.443 -2.9376 -0.8521 -1.0406
   23RES    H78 9362   2.358   0.642   0.266  0.4478 -0.8917 -0.4176
   23RES    H79 9363   2.582   0.622   0.226  1.1232 -0.3029  0.5967
   23RES    H80 9364   2.623   0.635   0.396  1.9203 -2.5859  0.4781
   23RES    H81 9365   2.481   0.403   0.255  0.1167  1.9825 -0.8902
   23RES    H82 9366   2.502   0.407   0.431 -1.7491  0.2396 -0.7920
   23RES    H83 9367   2.753   0.422   0.397 -1.7020  0.0942  2.1454
   23RES    H84 9368   2.678   0.274   0.367  0.4616  0.1519 -0.1302
   23RES    H85 9369   2.726   0.381   0.228  1.5835 -0.4325  0.9831
   23RES    C86 9370   2.329   1.040   0.280  0.8007  0.4868 -0.7509
   23RES    C87 9371   2.361   1.036   0.125 -0.2865 -0.1409  0.1395
   23RES    C88 9372   2.243   0.974   0.047 -0.4554  0.3027  0.0543
   23RES    C89 9373   2.258   0.825   7.725 -0.3486  0.4398 -0.1708
   23RES    C90 9374   2.377   0.791   7.637 -0.5724  0.6207  0.0282
   23RES    C91 9375   2.374   0.643   7.585 -0.6101 -0.3931  0.0873
   23RES    C92 9376   2.505   0.602   7.526  0.1489  0.5262 -0.2804
   23RES    H93 9377   2.248   1.113   0.287 -1.7584 -2.4578  1.4041
   23RES    H94 9378   2.405   1.098   0.333  0.4450  1.2957 -1.1081
   23RES    H95 9379   2.457   0.988   0.108  0.1174  0.2150  1.3799
   23RES    H96 9380   2.154   0.981   0.110  1.5395 -0.8446  3.1263
   23RES    H97 9381   2.230   1.039   7.687 -1.4779 -0.2154 -0.1832
   23RES    H98 9382   2.248   0.754   0.081 -0.8920  1.1820  0.4141
   23RES    H99 9383   2.163   0.812   7.673  0.3660 -1.8787 -0.9169
   23RES   H100 9384   2.465   0.810   7.697 -0.9228 -0.4176  0.8781
   23RES   H101 9385   2.391   0.853   7.548 -1.0931 -1.8429 -1.8290
   23RES   H102 9386   2.348   0.571   7.662 -0.7588  0.3481  0.7332
   23RES   H103 9387   2.303   0.648   7.502  1.6305 -0.0963 -1.8663
   23RES   H104 9388   2.522   0.638   7.425  1.3152  1.5288  0.2630
   23RES   H105 9389   2.504   0.494   7.512 -0.0787  0.5152 -0.1816
   23RES   H106 9390   2.580   0.617   7.603 -1.5436 -1.4619  1.8500
   23RES   C107 9391   2.390   1.182   0.076 -0.8682  0.0571 -0.2670
   23RES   C108 9392   2.458   1.189   7.668  0.7576  0.0313 -0.2755
   23RES   C109 9393   2.390   1.289   7.570  0.3664  0.5090 -0.5589
   23RES   C110 9394   2.254   1.247   7.512 -0.0600 -0.1250 -0.3998
   23RES   C111 9395   2.281   1.156   7.391 -0.5057  0.7994  0.4631
   23RES   C112 9396   2.152   1.093   7.330 -0.0584  0.2403  0.2423
   23RES   C113 9397   2.084   1.004   7.435 -0.4286  0.7477  0.1655
   23RES   H114 9398   2.454   1.231   0.149 -1.4171  0.1362  0.1683
   23RES   H115 9399   2.300   1.243   0.075 -1.3249 -0.6033  0.4023
   23RES   H116 9400   2.448   1.092   7.620  1.8891 -0.4295  0.4194
   23RES   H117 9401   2.455   1.327   7.491  0.2153  2.0466  0.0373
   23RES   H118 9402   2.379   1.385   7.621 -0.1787  0.5127 -0.6815
   23RES   H119 9403   2.196   1.201   7.593  0.6544  1.2674  0.9158
   23RES   H120 9404   2.204   1.338   7.479 -1.2770 -0.8805 -0.7029
   23RES   H121 9405   2.353   1.077   7.409 -0.4358  0.8360  0.3435
   23RES   H122 9406   2.328   1.214   7.313 -0.8443  2.3166  1.3645
   23RES   H123 9407   2.082   1.168   7.295 -0.2293  1.2016  2.5676
   23RES   H124 9408   2.181   1.029   7.247  0.1446  0.1286  0.3983
   23RES   H125 9409   2.047   1.062   7.520  2.6599  1.5344  1.0358
   23RES   H126 9410   2.007   0.935   7.401  2.4396 -0.5366 -3.9781
   23RES   H127 9411   2.164   0.938   7.469 -0.8325 -0.6164 -1.5269
   23RES   C128 9412   2.614   1.222   7.684  0.3301  0.1531 -0.0334
   23RES   C129 9413   2.695   1.107   0.023 -0.5004 -0.7968  0.0781
   23RES   C130 9414   2.722   1.138   0.173 -0.0708 -0.0031 -0.8360
   23RES   C131 9415   2.787   1.021   0.244  0.1410  0.0601 -0.3911
   23RES   C132 9416   2.793   1.035   0.398  0.1574 -0.3217 -0.9188
   23RES   C133 9417   2.892   1.145   0.442  0.0120  0.3384  0.8562
   23RES   C134 9418   2.891   1.178   0.597  0.1022  0.2488 -0.0172
   23RES   H135 9419   2.659   1.249   7.589  1.1950 -2.2316 -0.3341
   23RES   H136 9420   2.627   1.314   0.015  0.9037 -0.2794  0.5368
   23RES   H137 9421   2.638   1.014   0.020  1.2097 -1.8980  0.8193
   23RES   H138 9422   2.631   1.165   0.226 -0.0740  1.2110 -1.4408
   23RES   H139 9423   2.785   1.227   0.184  0.7712 -0.6598 -0.2871
   23RES   H140 9424   2.888   0.998   0.211  0.4026  1.9817 -0.9894
   23RES   H141 9425   2.733   0.930   0.219 -0.5985  1.1827 -3.0586
   23RES   H142 9426   2.820   0.935   0.431 -1.1217 -0.5798 -0.6025
   23RES   H143 9427   2.695   1.057   0.441  0.3178 -1.5407  0.1076
   23RES   H144 9428   2.867   1.233   0.381 -1.0544 -2.0187 -2.2350
   23RES   H145 9429   2.994   1.125   0.411 -0.3109  2.3987 -1.8391
   23RES   H146 9430   2.964   1.256   0.614  2.3350 -1.4820 -1.3972
   23RES   H147 9431   2.910   1.096   0.668 -1.9571  0.2817  0.6057
   23RES   H148 9432   2.789   1.211   0.615  0.6731  2.3673 -0.5433
   23RES   C149 9433   2.821   1.079   7.661  0.7410  0.1051 -0.0734
   23RES   C150 9434   2.829   0.947   7.565 -0.2374 -0.0820 -0.4895
   23RES   C151 9435   2.716   0.930   7.461 -0.3056 -0.4324 -0.0138
   23RES   C152 9436   2.736   1.028   7.344  0.4746  0.1645  0.0365
   23RES   C153 9437   2.621   1.036   7.243  0.5421  0.5467 -0.3712
   23RES   C154 9438   2.663   1.113   7.122 -0.2340 -0.2662  0.4405
   23RES   C155 9439   2.551   1.136   7.019  0.0939 -0.2445 -0.0092
   23RES   H156 9440   2.842   1.166   7.599 -0.0597 -0.3354 -0.9815
   23RES   H157 9441   2.902   1.068   0.006 -0.7050 -1.7056  1.3292
   23RES   H158 9442   2.930   0.951   7.525 -0.2006  2.1628 -0.2779
   23RES   H159 9443   2.722   0.828   7.424 -2.5152  0.2477 -2.3952
   23RES   H160 9444   2.618   0.943   7.507  0.3427 -0.5995  1.4538
   23RES   H161 9445   2.822   0.991   7.287  1.1318 -0.1012  1.1710
   23RES   H162 9446   2.781   1.126   7.361 -1.9975  1.4030 -0.3212
   23RES   H163 9447   2.546   1.095   7.296 -0.7887 -1.6972  0.3481
   23RES   H164 9448   2.581   0.936   7.222  0.9577  0.6630 -1.7721
   23RES   H165 9449   2.727   1.051   7.059 -0.0323 -0.3745  0.7524
   23RES   H166 9450   2.713   1.209   7.139  0.3091 -0.4781  0.0767
   23RES   H167 9451   2.577   1.197   6.932 -0.9381 -0.2452 -0.3266
   23RES   H168 9452   2.471   1.193   7.066  1.5911  2.1385 -0.2869
   23RES   H169 9453   2.504   1.040   6.995  1.1935 -0.2017 -2.4717
   23RES   C170 9454   2.842   0.818   7.654 -0.3045  0.0050 -0.3060
   23RES   C171 9455   2.900   0.690   7.588  0.2043  1.2203 -0.3441
   23RES   C172 9456   3.038   0.715   7.514 -0.0654 -0.7331  0.4501
   23RES   C173 9457   3.150   0.783   7.606  0.2428 -0.1702  0.6093
   23RES   C174 9458   3.256   0.854   7.512  0.6365 -0.5153  0.1206
   23RES   C175 9459   3.359   0.945   7.575  0.5189  0.5900  0.0562
   23RES   C176 9460   3.299   1.069   7.635  0.7640  0.0166  0.1307
   23RES   H177 9461   2.739   0.801   7.683  0.7490 -2.3289  2.2570
   23RES   H178 9462   2.891   0.846   0.021 -1.3478 -0.1515  0.2925
   23RES   H179 9463   2.823   0.642   7.526 -0.0736  1.4230 -0.1560
   23RES   H180 9464   3.007   0.776   7.430  0.9960 -0.3356  0.3368
   23RES   H181 9465   3.067   0.628   7.455  1.7156 -1.0249  1.7161
   23RES   H182 9466   3.196   0.711   7.673  0.7125  0.3864  0.8911
   23RES   H183 9467   3.105   0.854   7.676 -0.6657  0.3194 -0.4575
   23RES   H184 9468   3.206   0.906   7.431 -0.1374 -1.6381 -0.1293
   23RES   H185 9469   3.318   0.779   7.462  0.4660 -0.0796 -0.7592
   23RES   H186 9470   3.445   0.974   7.515  0.8428  3.1836  1.6739
   23RES   H187 9471   3.402   0.880   7.652 -0.8026 -2.7657 -1.9273
   23RES   H188 9472   3.375   1.142   7.660  2.1897 -1.9628  1.7384
   23RES   H189 9473   3.240   1.063   7.726  2.3738 -0.1684  1.1815
   23RES   H190 9474   3.236   1.114   7.558 -0.0988 -1.2068  0.1042
   23RES   C191 9475   2.910   0.580   7.704  0.5547  0.1919  0.9390
   23RES   C192 9476   2.939   0.434   7.660  0.2471 -1.1153  0.3541
   23RES   C193 9477   2.999   0.357   0.054  0.3326 -0.1581  0.0318
   23RES   C194 9478   3.146   0.399   0.102 -0.8800 -0.0260  0.8723
   23RES   C195 9479   3.273   0.368   0.012  0.2666 -0.2070 -0.9535
   23RES   C196 9480   3.290   0.222   7.707  0.3883  0.0460  0.1020
   23RES   C197 9481   3.417   0.197   7.626 -0.4439 -0.7703  0.0351
   23RES   H198 9482   2.813   0.578   0.027 -0.1825 -1.2406 -0.5040
   23RES   H199 9483   2.985   0.611   0.050 -0.2834  2.8333  0.7154
   23RES   H200 9484   3.016   0.435   7.583 -0.7287  1.0129 -0.6395
   23RES   H201 9485   3.000   0.248   0.054 -0.2929 -0.1752  1.3010
   23RES   H202 9486   2.941   0.384   0.142 -0.5597  0.3664 -0.7096
   23RES   H203 9487   3.163   0.331   0.186  1.3276 -1.8449 -0.9671
   23RES   H204 9488   3.146   0.502   0.137  4.5152  0.1303  0.8036
   23RES   H205 9489   3.283   0.432   7.652 -1.4870 -0.8041 -1.6108
   23RES   H206 9490   3.353   0.399   0.080  1.9460 -1.1520 -2.4571
   23RES   H207 9491   3.204   0.190   7.647  2.1483  0.0372 -2.4795
   23RES   H208 9492   3.278   0.176   0.078  2.8338  2.4513  1.5927
   23RES   H209 9493   3.431   0.089   7.617 -0.1023 -0.6829 -0.5058
   23RES   H210 9494   3.505   0.214   7.688 -1.0288  1.1191  0.3827
   23RES   H211 9495   3.411   0.249   7.531 -0.6009 -0.2258  0.3378
   23RES   C212 9496   2.818   0.353   7.607  0.5604  0.0530 -0.7296
   23RES   C213 9497   2.849   0.253   7.491  0.2633 -0.4690  0.3092
   23RES   C214 9498   2.724   0.164   7.459  0.1554  0.3705 -0.0921
   23RES   C215 9499   2.687   0.056   7.558  0.6392 -0.4015  0.3649
   23RES   C216 9500   2.563   7.689   7.522  0.1587 -0.2769  0.0441
   23RES   C217 9501   2.501   7.594   7.633  0.2594  0.1087  0.1930
   23RES   C218 9502   2.388   7.515   7.563 -1.0232  1.1211  0.3352
   23RES   H219 9503   2.742   0.422   7.572 -1.3476 -2.0625 -0.9143
   23RES   H220 9504   2.771   0.313   7.697 -0.8283 -0.9270 -1.8617
   23RES   H221 9505   2.926   0.187   7.531  0.4716 -0.6640 -0.4030
   23RES   H222 9506   2.644   0.238   7.464 -0.2477 -0.0568 -0.1088
   23RES   H223 9507   2.714   0.121   7.359 -1.1879 -1.7541  0.9107
   23RES   H224 9508   2.670   0.117   7.647 -0.3063 -1.5034  0.9630
   23RES   H225 9509   2.774   7.723   7.584  1.2441  0.9338  1.5012
   23RES   H226 9510   2.485   0.031   7.489  0.9884  2.2777  3.1075
   23RES   H227 9511   2.589   7.629   7.435 -1.8296  0.7275 -1.2814
   23RES   H228 9512   2.569   7.521   7.678 -1.3413 -1.2278  0.4776
   23RES   H229 9513   2.454   7.656   7.708 -0.0084  0.1653 -0.0219
   23RES   H230 9514   2.341   7.457   7.642 -0.1352 -1.8734 -1.2503
   23RES   H231 9515   2.422   7.449   7.484  0.2523 -0.4995  2.1678
   23RES   H232 9516   2.326   7.595   7.524 -0.8041  0.7537 -0.7721
   23RES   C233 9517   2.890   0.333   7.370 -0.4027 -0.4044  0.1892
   23RES   C234 9518   2.979   0.259   7.262  0.5311  0.1871  0.0249
   23RES   C235 9519   3.122   0.225   7.321 -0.4980  0.6824 -0.1794
   23RES   C236 9520   3.211   0.347   7.328  0.6338  0.4075  0.3904
   23RES   C237 9521   3.251   0.423   7.203 -0.4160  0.4278 -0.6283
   23RES   C238 9522   3.374   0.521   7.222  0.3246 -0.3775  0.2838
   23RES   C239 9523   3.380   0.619   7.106  0.0817  0.7440 -0.4000
   23RES   H240 9524   2.942   0.425   7.397 -1.0065  0.6702 -2.2315
   23RES   H241 9525   2.807   0.376   7.315  1.0389 -0.7512 -2.3014
   23RES   H242 9526   2.988   0.326   7.176 -0.5510  0.4061  0.0840
   23RES   H243 9527   3.172   0.159   7.250 -2.8205 -0.6902 -0.6130
   23RES   H244 9528   3.127   0.175   7.418  0.0842 -2.5452 -1.7980
   23RES   H245 9529   3.302   0.318   7.381  0.4347  2.0810  1.7214
   23RES   H246 9530   3.170   0.421   7.397 -0.6399 -0.5026  0.6141
   23RES   H247 9531   3.161   0.466   7.158 -1.7471  0.5697  2.1008
   23RES   H248 9532   3.278   0.347   7.129  0.5533 -0.8300  0.9942
   23RES   H249 9533   3.348   0.586   7.306  0.9810  1.1414 -0.6669
   23RES   H250 9534   3.470   0.474   7.244  1.3469  1.0116 -1.0063
   23RES   H251 9535   3.474   0.672   7.094  0.2535  0.6565  0.5281
   23RES   H252 9536   3.358   0.565   7.014 -1.0003 -1.2285  0.9706
   23RES   H253 9537   3.299   0.693   7.102  0.8556  1.5453 -1.4002
   23RES   C254 9538   2.906   0.144   7.194 -0.6000  0.6771  0.2970
   23RES   C255 9539   2.969   0.092   7.061  0.1174  0.0495 -0.4034
   23RES   C256 9540   2.938   0.184   6.939  0.1893 -0.2981 -0.5382
   23RES   C257 9541   3.009   0.169   6.809  0.0958  0.2165  0.3234
   23RES   C258 9542   2.931   0.248   6.698 -0.5899  0.3976 -0.2475
   23RES   C259 9543   3.007   0.256   6.569  0.2327 -0.4846  0.1938
   23RES   C260 9544   2.918   0.330   6.472 -0.0779 -0.1913  0.0690
   23RES   H261 9545   2.804   0.164   7.160 -1.3047 -1.4166  1.1106
   23RES   H262 9546   2.912   0.072   7.275 -1.1950  1.3003  0.9021
   23RES   H263 9547   3.078   0.088   7.061  0.1194  0.0953 -0.4958
   23RES   H264 9548   2.969   0.285   6.967 -0.4193  0.2840 -1.8812
   23RES   H265 9549   2.830   0.186   6.924  0.0567 -0.3884  0.3873
   23RES   H266 9550   3.111   0.208   6.811  0.3590 -0.2679 -1.9725
   23RES   H267 9551   3.026   0.066   6.776  1.2783  0.9364 -1.3746
   23RES   H268 9552   2.916   0.352   6.728  1.4865  1.4810 -2.8127
   23RES   H269 9553   2.828   0.216   6.682 -0.6694  0.8422 -0.6323
   23RES   H270 9554   3.098   0.313   6.583 -1.8310  2.1499  3.7930
   23RES   H271 9555   3.032   0.162   6.521 -0.7938  0.6414 -2.6375
   23RES   H272 9556   2.890   0.428   6.512 -1.4671 -0.1518 -0.9592
   23RES   H273 9557   2.974   0.340   6.379  0.1605 -0.1914  0.2125
   23RES   H274 9558   2.823   0.283   6.446 -1.0073  1.4286  0.4845
   23RES   C275 9559   2.925   7.676   7.030  0.2195 -0.0486 -0.2454
   23RES   C276 9560   2.994   7.561   7.104  0.1724  0.1623 -0.1593
   23RES   C277 9561   3.117   7.508   7.020  0.2105  0.5545 -0.4101
   23RES   C278 9562   3.229   7.603   6.985 -1.0000  0.1242 -0.6008
   23RES   C279 9563   3.344   7.532   6.917  0.2845 -0.0772  0.4257
   23RES   C280 9564   3.309   7.467   6.783 -0.2256  0.2665  0.1685
   23RES   C281 9565   3.437   7.441   6.701 -0.1859  0.1259 -0.0672
   23RES   H282 9566   2.956   7.669   6.925  1.0589  2.4670 -0.1922
   23RES   H283 9567   2.817   7.668   7.042  0.7661 -3.1852  3.4018
   23RES   H284 9568   3.018   7.595   7.205  0.3071  1.6465 -0.6813
   23RES   H285 9569   3.148   7.435   7.094 -0.9010 -1.0481 -1.4764
   23RES   H286 9570   3.064   7.467   6.933  0.3345 -0.8669  0.1631
   23RES   H287 9571   3.265   7.659   7.071  1.5120 -1.7527 -0.3860
   23RES   H288 9572   3.191   7.680   6.917  2.2084  1.2683 -1.1794
   23RES   H289 9573   3.394   7.460   6.982  0.3787  0.6625  1.1780
   23RES   H290 9574   3.414   7.613   6.895  0.0164 -0.0081 -0.1902
   23RES   H291 9575   3.252   7.376   6.797  1.4990 -0.9505 -0.5381
   23RES   H292 9576   3.252   7.542   6.727  0.0130  0.2932 -0.0447
   23RES   H293 9577   3.431   7.504   6.613 -1.1658  1.8264  1.1714
   23RES   H294 9578   3.438   7.334   6.680 -1.7375  0.0576  0.1008
   23RES   H295 9579   3.534   7.452   6.749 -0.0310 -1.8201  0.1192
   23RES   C296 9580   2.895   7.446   7.143 -0.0391 -0.2510  0.9174
   23RES   C297 9581   2.799   7.487   7.253 -0.4131 -0.1450 -0.9474
   23RES   C298 9582   2.846   7.429   7.397 -0.0729 -0.8141 -0.1535
   23RES   C299 9583   2.987   7.465   7.457 -0.1847 -0.3717 -0.0399
   23RES   C300 9584   3.003   7.423   7.600  0.0528  0.2006 -0.2288
   23RES   C301 9585   3.133   7.489   7.664  1.1303  0.5612  0.0604
   23RES   C302 9586   3.112   7.638   7.686 -0.0694  0.5238  0.2115
   23RES   H303 9587   2.850   7.403   7.054 -0.7772 -3.3305  2.7030
   23RES   H304 9588   2.955   7.360   7.173 -0.8272 -1.3550 -0.6683
   23RES   H305 9589   2.798   7.596   7.265  0.0402 -0.2921  0.4520
   23RES   H306 9590   2.777   7.471   7.469  0.1335 -0.3307 -0.2374
   23RES   H307 9591   2.820   7.324   7.409 -0.7717 -0.4587  1.5442
   23RES   H308 9592   2.989   7.574   7.451 -2.0487 -0.3881 -1.5850
   23RES   H309 9593   3.064   7.422   7.393  0.6942  1.8914 -0.5535
   23RES   H310 9594   3.026   7.318   7.616  1.3825  0.6378  0.8145
   23RES   H311 9595   2.921   7.455   7.665 -0.0448  0.0789 -0.2930
   23RES   H312 9596   3.165   7.444   0.031 -2.4503  0.3577  1.2767
   23RES   H313 9597   3.213   7.484   7.590 -1.7247 -0.7040 -3.1128
   23RES   H314 9598   3.029   7.660   0.026  0.7656 -0.3192  1.5342
   23RES   H315 9599   3.203   7.680   0.003  0.1842 -0.6727  0.8481
   23RES   H316 9600   3.084   7.704   7.604  0.4546  0.7290  0.1952
   23RES   C317 9601   2.654   7.447   7.218 -1.1198 -0.6324  0.3117
   23RES   C318 9602   2.588   7.498   7.089 -0.2990  0.1840  0.1393
   23RES   C319 9603   2.464   7.415   7.046 -0.4215 -0.6719 -0.3709
   23RES   C320 9604   2.486   7.262   7.026  0.1365  0.5962  0.4883
   23RES   C321 9605   2.399   7.200   6.928 -0.0915 -0.8260  0.2873
   23RES   C322 9606   2.416   7.052   6.932  0.2869 -0.5849  0.2227
   23RES   C323 9607   2.342   6.987   6.816  0.2308 -0.3271 -0.7409
   23RES   H324 9608   2.591   7.463   7.305 -1.7903  3.6786 -0.8317
   23RES   H325 9609   2.655   7.339   7.205 -0.4379 -0.5184 -0.6925
   23RES   H326 9610   2.650   7.487   6.999  0.7138 -1.2819  1.0068
   23RES   H327 9611   2.436   7.459   6.951 -1.3329 -1.5172 -0.4969
   23RES   H328 9612   2.374   7.418   7.108 -0.3253 -1.9537 -0.1529
   23RES   H329 9613   2.478   7.204   7.118 -0.1181 -1.0312 -0.5444
   23RES   H330 9614   2.588   7.231   7.004  0.5425  1.2901  1.3726
   23RES   H331 9615   2.407   7.245   6.829 -1.0657 -1.1571  0.0526
   23RES   H332 9616   2.296   7.226   6.951 -0.4283  0.8926 -2.8435
   23RES   H333 9617   2.383   7.011   7.028 -1.5870  0.4586  0.0670
   23RES   H334 9618   2.520   7.028   6.913  0.0197 -0.6468 -1.2365
   23RES   H335 9619   2.239   7.022   6.804  0.1093 -0.7461 -0.9546
   23RES   H336 9620   2.351   6.878   6.822 -0.4364 -0.2903  1.4201
   23RES   H337 9621   2.382   7.031   6.725 -1.5292  3.9550  0.4392
   23RES   C338 9622   2.558   7.652   7.111 -0.0176  0.6251 -0.2089
   23RES   C339 9623   2.501   0.011   6.993 -0.8370 -0.2876 -0.0662
   23RES   C340 9624   2.564   7.706   6.859 -0.3892  0.3004  0.0880
   23RES   C341 9625   2.478   0.030   6.745  0.0193 -0.2067  0.4768
   23RES   C342 9626   2.538   7.721   6.613 -0.4219 -0.0838  1.1617
   23RES   C343 9627   2.449   0.027   6.493  0.3431  0.4644  0.3003
   23RES   C344 9628   2.522   0.014   6.354 -0.0234  0.3614  0.2763
   23RES   H345 9629   2.645   7.699   7.157 -0.5243 -1.7260  3.4238
   23RES   H346 9630   2.494   7.659   7.199  1.0001 -1.9319  0.7872
   23RES   H347 9631   2.394   7.717   6.986 -0.7666 -0.7580  0.2005
   23RES   H348 9632   2.662   0.027   6.859  0.0819 -0.6578  0.4049
   23RES   H349 9633   2.583   7.600   6.842 -1.5776  0.0172  0.4807
   23RES   H350 9634   2.462   0.138   6.743 -0.7008 -0.3187 -0.2904
   23RES   H351 9635   2.379   7.710   6.750 -1.7186  3.0117 -2.0831
   23RES   H352 9636   2.630   0.051   6.602 -0.1991 -0.4926  0.9570
   23RES   H353 9637   2.563   7.615   6.617  0.7435  0.1733  0.8525
   23RES   H354 9638   2.379   7.670   6.495 -0.1527  0.8889  0.6631
   23RES   H355 9639   2.392   0.120   6.500 -1.7518 -0.8915  1.6463
   23RES   H356 9640   2.452   0.023   6.270 -0.0815  1.6662  0.4440
   23RES   H357 9641   2.595   7.661   6.341 -1.3541 -1.0649  1.3311
   23RES   H358 9642   2.587   0.100   6.341 -1.7437  1.5882 -0.5433
   23RES   C359 9643   2.516   0.162   7.022  0.3595 -0.0926 -0.4034
   23RES   C360 9644   2.465   0.221   7.155 -1.0531  0.2432  0.1959
   23RES   C361 9645   2.514   0.369   7.166  0.4078 -0.2593  0.4800
   23RES   C362 9646   2.470   0.467   7.057  0.1212 -0.1938  0.6580
   23RES   C363 9647   2.468   0.614   7.100  0.2819 -0.4327 -0.5582
   23RES   C364 9648   2.452   0.711   6.988 -0.6489 -0.6625 -0.3946
   23RES   C365 9649   2.306   0.750   6.984  0.4264 -0.5897  0.3930
   23RES   H366 9650   2.482   0.223   6.939 -0.3262 -1.1703 -0.9170
   23RES   H367 9651   2.625   0.173   7.017  0.3370 -0.7903 -3.1887
   23RES   H368 9652   2.497   0.161   7.240  0.9114  0.9321 -0.0321
   23RES   H369 9653   2.480   0.415   7.259  1.5291  2.9070 -0.6077
   23RES   H370 9654   2.620   0.367   7.190  0.4300 -0.6792  0.3477
   23RES   H371 9655   2.547   0.445   6.983  0.9755 -1.4920  1.8988
   23RES   H372 9656   2.374   0.452   7.009 -0.6334 -1.1343  2.3928
   23RES   H373 9657   2.386   0.631   7.169 -0.5805 -2.2430 -1.1077
   23RES   H374 9658   2.561   0.644   7.149  1.6216 -1.5760 -2.3155
   23RES   H375 9659   2.512   0.796   7.023 -2.0361 -0.5328  1.7559
   23RES   H376 9660   2.498   0.688   6.893  0.7108 -0.2642  0.1538
   23RES   H377 9661   2.243   0.679   6.930 -0.3424 -1.5868  2.5270
   23RES   H378 9662   2.260   0.778   7.078 -1.2710  0.3659 -0.6993
   23RES   H379 9663   2.292   0.841   6.926  0.1364 -0.1367  1.1782
   23RES   C380 9664   2.305   0.212   7.166  0.3162 -0.3719 -0.3998
   23RES   C381 9665   2.244   0.249   7.302  0.3304  0.0208  0.1560
   23RES   C382 9666   2.121   0.340   7.282  0.1461  0.3688 -0.0417
   23RES   C383 9667   2.154   0.484   7.247  0.3102  0.7717  0.3079
   23RES   C384 9668   2.039   0.585   7.266  0.2959 -0.6923  0.0579
   23RES   C385 9669   1.914   0.528   7.196  0.4151 -0.4218 -0.2940
   23RES   C386 9670   1.798   0.636   7.166  0.5495 -0.0086 -1.3934
   23RES   H387 9671   2.263   0.286   7.097  1.0453  1.3973  1.0034
   23RES   H388 9672   2.280   0.116   7.123 -0.9221 -0.0471 -0.4208
   23RES   H389 9673   2.317   0.302   7.363  1.0866 -0.4483 -0.3418
   23RES   H390 9674   2.061   0.330   7.372 -0.5227 -0.6337 -0.5782
   23RES   H391 9675   2.051   0.307   7.204 -0.5156 -1.3906  1.2736
   23RES   H392 9676   2.239   0.516   7.307  1.2846  2.3139 -1.8267
   23RES   H393 9677   2.187   0.498   7.144  0.1160  0.6232  0.2246
   23RES   H394 9678   2.028   0.611   7.372 -0.5979  1.6506 -0.5750
   23RES   H395 9679   2.062   0.677   7.212 -1.4364  0.5996  1.4258
   23RES   H396 9680   1.872   0.449   7.258  0.0030  0.2401  0.2809
   23RES   H397 9681   1.939   0.480   7.102 -3.0347  1.2320 -2.1763
   23RES   H398 9682   1.830   0.721   7.105  0.0556  0.7602 -0.5907
   23RES   H399 9683   1.758   0.670   7.261 -0.0628 -0.7144 -1.3939
   23RES   H400 9684   1.714   0.602   7.106 -0.5436 -0.9722  0.6359
   23RES   C401 9685   2.205   0.115   7.368 -0.0340  0.4681 -0.0364
   23RES   C402 9686   2.147   0.111   7.511  0.4545  0.7128  0.0545
   23RES   C403 9687   2.226   0.193   7.616 -0.0109  0.1521 -0.1484
   23RES   C404 9688   2.186   0.154   0.036 -0.2642 -0.1974  0.2089
   23RES   C405 9689   2.286   0.223   0.131  0.0113  0.0294 -0.3189
   23RES   C406 9690   2.267   0.177   0.282  0.7562  1.0097  0.3891
   23RES   C407 9691   2.334   0.044   0.310 -0.6427  0.1056 -0.2416
   23RES   H408 9692   2.294   0.053   7.358  0.7209  1.4697  0.4051
   23RES   H409 9693   2.131   0.066   7.305  0.2347 -0.0706  0.0633
   23RES   H410 9694   2.120   0.010   7.539  0.5231  0.8943  0.7710
   23RES   H411 9695   2.209   0.301   7.610  1.2667  0.3280 -0.8094
   23RES   H412 9696   2.332   0.169   7.607  0.0339  0.3495 -0.1672
   23RES   H413 9697   2.194   0.046   0.046  1.6254 -0.3449 -2.3151
   23RES   H414 9698   2.083   0.176   0.061 -1.1257  0.1473 -3.3477
   23RES   H415 9699   2.391   0.210   0.107  0.2404  0.0109  0.6611
   23RES   H416 9700   2.274   0.332   0.123  2.7865  0.2797 -1.3361
   23RES   H417 9701   2.310   0.248   0.352  0.8485 -1.3746  2.8225
   23RES   H418 9702   2.159   0.169   0.300  0.9097 -1.9008  0.1613
   23RES   H419 9703   2.290   7.692   0.249  0.1102  0.8271 -1.7284
   23RES   H420 9704   2.327   0.022   0.417  0.9149 -2.2175 -0.5909
   23RES   H421 9705   2.441   0.049   0.294 -0.8490  0.3312 -1.6192
   23RES   H422 9706   2.049   0.160   7.501  1.0018  1.9480  0.6177
   24RES     C1 9707   6.962   1.467   0.253 -0.0054  0.2169 -0.6813
   24RES     C2 9708   6.965   1.561   0.378 -0.2923 -1.0563  0.4050
   24RES     C3 9709   6.824   1.594   0.428  0.4507  0.1273 -0.1932
   24RES     C4 9710   6.753   1.687   0.326  0.4534  0.1409  0.1018
   24RES     C5 9711   6.609   1.720   0.371 -0.8306 -0.3416  0.0748
   24RES     C6 9712   6.523   1.793   0.264 -0.5845 -0.4999  0.4178
   24RES     C7 9713   6.388   1.831   0.319  0.0753 -0.1956  0.3242
   24RES     H8 9714   7.065   1.437   0.234  0.6046  2.0582 -0.3958
   24RES     H9 9715   6.919   1.516   0.166 -1.7074  0.5202  0.3113
   24RES    H10 9716   7.010   1.506   0.460  0.3831 -1.6316 -0.3558
   24RES    H11 9717   6.766   1.505   0.450  1.6359 -0.2474  1.4987
   24RES    H12 9718   6.833   1.638   0.528  3.4646  0.7761 -0.6935
   24RES    H13 9719   6.796   1.786   0.317 -1.7098  0.9457 -1.8122
   24RES    H14 9720   6.738   1.641   0.228  1.7266  0.6600 -0.3344
   24RES    H15 9721   6.610   1.769   0.469 -0.0058  0.8400 -0.5035
   24RES    H16 9722   6.553   1.627   0.383 -1.5009  0.3218  2.4418
   24RES    H17 9723   6.512   1.729   0.176  3.0180 -1.6801  0.7414
   24RES    H18 9724   6.576   1.883   0.234 -1.8086 -0.0510 -0.4346
   24RES    H19 9725   6.407   1.912   0.390  0.8724  1.9503 -2.2713
   24RES    H20 9726   6.350   1.736   0.357  0.9156  0.1132  1.9920
   24RES    H21 9727   6.333   1.878   0.237 -0.2864 -2.0959 -0.5420
   24RES    H22 9728   6.910   1.374   0.271 -0.5301  0.5864 -0.2721
   24RES    C23 9729   7.054   1.685   0.346  0.5739 -0.8317  0.5420
   24RES    C24 9730   7.057   1.798   0.450 -0.2384  0.5744  0.3322
   24RES    C25 9731   7.106   1.929   0.381  0.5440 -0.0697  0.7679
   24RES    C26 9732   7.145   2.053   0.458 -0.5740  0.9319 -0.1132
   24RES    C27 9733   7.202   2.163   0.359 -0.1235  0.2489  0.1990
   24RES    C28 9734   7.254   2.284   0.440 -0.2220 -0.8964 -0.0679
   24RES    C29 9735   7.314   2.389   0.349 -0.3310  0.0531  0.4059
   24RES    H30 9736   7.150   1.634   0.330  0.9509  0.3713 -1.1271
   24RES    H31 9737   7.031   1.738   0.254  0.2729 -0.7536  0.6634
   24RES    H32 9738   6.958   1.816   0.491  0.0406 -0.1365  1.3252
   24RES    H33 9739   7.029   1.959   0.311  0.3658 -0.5530  0.7513
   24RES    H34 9740   7.193   1.902   0.321 -0.1776 -3.0364  0.9579
   24RES    H35 9741   7.221   2.030   0.533 -1.4809  0.4611  0.6758
   24RES    H36 9742   7.063   2.104   0.509 -1.6194 -0.0611 -0.7604
   24RES    H37 9743   7.129   2.188   0.282 -0.1018  0.2300  0.1725
   24RES    H38 9744   7.293   2.124   0.313  0.0280  1.6225 -0.7107
   24RES    H39 9745   7.332   2.247   0.507  0.3059  0.0596 -0.1377
   24RES    H40 9746   7.182   2.336   0.504  2.3608  0.6397  1.6711
   24RES    H41 9747   7.356   2.469   0.410  1.2092 -0.9172  0.6503
   24RES    H42 9748   7.393   2.347   0.287 -1.1293 -1.1817  0.2003
   24RES    H43 9749   7.235   2.432   0.288 -0.6106  1.8838  2.0098
   24RES    C44 9750   7.143   1.758   0.566  0.1552 -0.7283  0.8019
   24RES    C45 9751   7.120   1.813   0.708 -0.2387 -0.1270 -0.0331
   24RES    C46 9752   6.980   1.761   0.757 -0.6996  0.4537  0.4145
   24RES    C47 9753   6.928   1.830   0.883  0.0661 -0.3596 -0.1268
   24RES    C48 9754   6.801   1.759   0.938 -0.1157 -0.0915 -0.1851
   24RES    C49 9755   6.749   1.817   1.067 -1.4133 -0.1014  0.1285
   24RES    C50 9756   6.624   1.754   1.126 -0.0371  0.5039 -0.0126
   24RES    H51 9757   7.248   1.786   0.554 -0.6977  1.1290 -2.9333
   24RES    H52 9758   7.159   1.650   0.568 -2.0499 -1.0513  2.4303
   24RES    H53 9759   7.112   1.921   0.696 -2.5173 -0.3899 -0.9287
   24RES    H54 9760   7.002   1.657   0.781  0.9477  0.6562 -0.1817
   24RES    H55 9761   6.906   1.762   0.677 -1.3621  0.1204  1.0151
   24RES    H56 9762   7.001   1.817   0.963  0.1501 -1.0029 -0.3090
   24RES    H57 9763   6.903   1.935   0.864  0.1744 -0.4171 -0.5955
   24RES    H58 9764   6.834   1.660   0.970  0.4609  0.2333  0.2301
   24RES    H59 9765   6.723   1.760   0.861  2.2072  2.9774 -2.6277
   24RES    H60 9766   6.735   1.924   1.054  1.3409  0.0473 -2.1244
   24RES    H61 9767   6.817   1.821   1.152  0.0609 -0.0747 -1.0186
   24RES    H62 9768   6.609   1.781   1.231  0.3852  0.8453 -0.0400
   24RES    H63 9769   6.609   1.646   1.115  0.8485  0.5390 -1.7512
   24RES    H64 9770   6.547   1.791   1.059  1.7913  1.3330 -1.7021
   24RES    C65 9771   7.230   1.778   0.816 -0.1056 -0.2626 -0.4713
   24RES    C66 9772   7.321   1.899   0.859 -0.8044 -0.5711  0.2178
   24RES    C67 9773   7.422   1.944   0.748  0.0152  0.0106 -0.6322
   24RES    C68 9774   7.456   2.096   0.750 -0.0804  0.6375  0.0952
   24RES    C69 9775   7.554   2.129   0.632  0.0717 -0.5029 -0.1015
   24RES    C70 9776   7.595   2.281   0.630  0.7317 -0.3093 -0.4032
   24RES    C71 9777   7.692   2.308   0.515  0.2733 -0.9966  0.0462
   24RES    H72 9778   7.189   1.729   0.905  2.4982 -1.4754  0.1015
   24RES    H73 9779   7.290   1.705   0.762  1.5676  0.3262  0.5276
   24RES    H74 9780   7.242   1.969   0.883 -1.0952 -1.8646  3.3402
   24RES    H75 9781   7.514   1.885   0.753  0.0194 -0.0049 -0.8624
   24RES    H76 9782   7.378   1.916   0.652 -2.4376  3.3110 -0.5299
   24RES    H77 9783   7.354   2.130   0.733 -0.3472  0.5186  1.4111
   24RES    H78 9784   7.488   2.136   0.846 -1.6967  3.0271 -0.3339
   24RES    H79 9785   7.647   2.072   0.631  1.2182  1.3241  1.1412
   24RES    H80 9786   7.508   2.100   0.537  1.1882 -0.8045 -0.5598
   24RES    H81 9787   7.637   2.328   0.719 -0.5164  0.5871 -0.2786
   24RES    H82 9788   7.508   2.342   0.607  1.5513 -0.8250 -5.4140
   24RES    H83 9789   7.713   2.415   0.525  1.6940 -1.4029  1.9393
   24RES    H84 9790   0.061   2.256   0.527  0.1044 -1.3206 -0.0244
   24RES    H85 9791   7.642   2.279   0.423  0.8621 -3.7557  0.5565
   24RES    C86 9792   7.390   1.859   0.989 -0.4941 -0.0623  0.2888
   24RES    C87 9793   7.320   1.898   1.119  0.2344 -0.2891 -0.3113
   24RES    C88 9794   7.351   1.806   1.234 -0.4414 -0.2504 -0.7725
   24RES    C89 9795   7.307   1.659   1.214 -0.3374 -0.9515 -0.4860
   24RES    C90 9796   7.162   1.636   1.219  0.2803  0.2619 -0.0400
   24RES    C91 9797   7.131   1.490   1.207 -0.3302  0.7318 -0.0520
   24RES    C92 9798   6.981   1.473   1.204 -0.0121  0.0183  0.0500
   24RES    H93 9799   7.435   1.760   0.993 -1.1636 -0.4432 -1.2531
   24RES    H94 9800   7.485   1.912   0.986 -0.0358 -0.9666 -1.8411
   24RES    H95 9801   7.214   1.886   1.096 -0.1595  0.4955  1.0584
   24RES    H96 9802   7.458   1.812   1.256 -0.0418  1.4621 -2.9709
   24RES    H97 9803   7.303   1.838   1.326  1.0743  1.6378 -0.6155
   24RES    H98 9804   7.346   1.598   1.133 -2.5216  1.1717 -3.2688
   24RES    H99 9805   7.346   1.612   1.304  0.5127  1.3988  0.4377
   24RES   H100 9806   7.111   1.685   1.135 -0.8866  1.7679  1.5035
   24RES   H101 9807   7.122   1.683   1.309 -0.7876 -2.2054  0.8164
   24RES   H102 9808   7.176   1.444   1.119 -0.0021  1.5841 -0.3379
   24RES   H103 9809   7.162   1.428   1.291 -1.2100  1.9010  1.1631
   24RES   H104 9810   6.935   1.522   1.118  0.5079 -4.2026 -2.8007
   24RES   H105 9811   6.960   1.523   1.298  2.9514 -0.0370  0.7776
   24RES   H106 9812   6.943   1.371   1.212 -0.0918 -0.1442 -2.0702
   24RES   C107 9813   7.358   2.044   1.154 -0.0067  0.0837 -0.0052
   24RES   C108 9814   7.283   2.111   1.262  0.2020  0.5825  0.5471
   24RES   C109 9815   7.349   2.231   1.322  0.0790 -0.1166  0.1047
   24RES   C110 9816   7.457   2.196   1.421 -0.2924  0.6425 -0.1665
   24RES   C111 9817   7.550   2.305   1.477 -0.4460 -0.2463 -0.5139
   24RES   C112 9818   7.504   2.350   1.613  0.2721 -0.3138  0.1411
   24RES   C113 9819   7.580   2.471   1.669  0.7543 -0.7029  0.1322
   24RES   H114 9820   7.333   2.102   1.065 -0.0050  0.2854  0.1269
   24RES   H115 9821   7.463   2.054   1.178  0.0463  0.2672 -0.3081
   24RES   H116 9822   7.277   2.046   1.350  0.8510 -0.6799 -0.3264
   24RES   H117 9823   7.274   2.287   1.378  1.4715  2.2419 -0.3041
   24RES   H118 9824   7.396   2.291   1.244  2.4300 -1.9909  0.0327
   24RES   H119 9825   7.408   2.135   1.497 -0.4295  1.9399  0.8155
   24RES   H120 9826   7.527   2.123   1.381 -0.7088 -0.9889  1.9984
   24RES   H121 9827   7.565   2.392   1.413  2.2685 -1.3567 -1.4507
   24RES   H122 9828   7.651   2.265   1.488  0.1060  1.0560 -0.7476
   24RES   H123 9829   7.395   2.361   1.616  0.1940 -0.9500 -0.2527
   24RES   H124 9830   7.525   2.268   1.680 -0.9995 -0.7031  0.0834
   24RES   H125 9831   7.552   2.562   1.615 -0.0763 -0.6080  0.7124
   24RES   H126 9832   7.553   2.474   1.774  1.7807  1.3233  0.3717
   24RES   H127 9833   7.689   2.463   1.669  1.1931  3.6243 -0.0429
   24RES   C128 9834   7.136   2.131   1.207  0.0735 -0.1706  0.1630
   24RES   C129 9835   7.014   2.146   1.304  0.0042  0.2860  0.3844
   24RES   C130 9836   7.007   2.023   1.397  0.3974 -0.7046 -1.0199
   24RES   C131 9837   7.051   2.056   1.543 -0.0907 -0.3843  0.4073
   24RES   C132 9838   7.049   1.939   1.633 -0.1542  0.2545 -0.7996
   24RES   C133 9839   7.137   1.820   1.577  0.0994 -0.2039 -0.5128
   24RES   C134 9840   7.204   1.730   1.683  0.3184  0.4698  0.1477
   24RES   H135 9841   7.134   2.217   1.140 -1.0001 -0.3998 -0.1088
   24RES   H136 9842   7.092   2.047   1.153 -0.0824 -0.0428  0.0909
   24RES   H137 9843   7.052   2.235   1.354  0.5398  0.0025  0.4837
   24RES   H138 9844   7.057   1.938   1.350  1.1351  0.1936 -1.8951
   24RES   H139 9845   6.908   1.979   1.407  0.3089 -0.1204  0.6908
   24RES   H140 9846   6.988   2.135   1.586 -0.3320  0.4602 -1.4223
   24RES   H141 9847   7.145   2.110   1.529  0.2519 -1.6595 -2.6644
   24RES   H142 9848   6.946   1.911   1.657  0.5691 -1.6466  0.1603
   24RES   H143 9849   7.090   1.970   1.729  0.4526 -1.3646 -0.5086
   24RES   H144 9850   7.232   1.846   1.531  0.6218 -0.1319  0.5790
   24RES   H145 9851   7.081   1.758   1.507  0.8413  0.0777 -1.3612
   24RES   H146 9852   7.131   1.682   1.748 -0.4098  0.0626 -0.9482
   24RES   H147 9853   7.271   1.790   1.745 -0.0536  0.8558  0.1810
   24RES   H148 9854   7.254   1.644   1.639 -0.2286  0.0861  0.2733
   24RES   C149 9855   6.884   2.192   1.227 -0.6691 -0.7191 -0.0861
   24RES   C150 9856   6.764   2.223   1.309 -0.7094  0.0273 -0.9621
   24RES   C151 9857   6.640   2.272   1.222  0.2748 -0.5508  0.2233
   24RES   C152 9858   6.594   2.185   1.104  0.1644 -0.4198  0.5684
   24RES   C153 9859   6.489   2.241   1.010  0.9633 -0.3763 -0.0049
   24RES   C154 9860   6.366   2.300   1.086 -0.0599  0.7998 -0.8269
   24RES   C155 9861   6.245   2.293   1.005  0.5705  0.5858 -0.2741
   24RES   H156 9862   6.903   2.285   1.173  1.6769 -0.8561  0.4445
   24RES   H157 9863   6.865   2.116   1.152  1.0429 -0.3430 -0.9446
   24RES   H158 9864   6.734   2.128   1.354  3.6530 -0.8992  0.2365
   24RES   H159 9865   6.552   2.281   1.286 -0.0121  1.6285 -0.4025
   24RES   H160 9866   6.651   2.375   1.188  0.3118 -0.6252  0.0138
   24RES   H161 9867   6.557   2.095   1.154 -1.5933 -0.9037 -1.5229
   24RES   H162 9868   6.680   2.149   1.047  0.8415  0.0390  1.3004
   24RES   H163 9869   6.448   2.152   0.961  1.2818 -0.5854  0.1080
   24RES   H164 9870   6.519   2.316   0.936 -0.3657  1.6409  1.4572
   24RES   H165 9871   6.390   2.399   1.125  0.5717  0.5462 -0.5492
   24RES   H166 9872   6.333   2.238   1.170 -1.5635  2.6515 -0.0422
   24RES   H167 9873   6.255   2.359   0.919  1.5460  2.5182  1.2926
   24RES   H168 9874   6.146   2.303   1.050  1.8727  1.9931  2.4173
   24RES   H169 9875   6.243   2.194   0.958  2.4633 -0.3672  1.5613
   24RES   C170 9876   6.784   2.311   1.435  0.3185 -1.0068  0.1524
   24RES   C171 9877   6.669   2.305   1.545 -0.4275  0.1379 -0.0418
   24RES   C172 9878   6.623   2.163   1.593  0.0900 -0.7661  0.8059
   24RES   C173 9879   6.519   2.163   1.711  0.3428  0.1726  0.4580
   24RES   C174 9880   6.445   2.032   1.708 -0.7813 -0.2795  0.4335
   24RES   C175 9881   6.350   2.013   1.822  0.2805 -0.5863  0.5705
   24RES   C176 9882   6.281   1.876   1.805 -0.1517  0.3282 -0.0734
   24RES   H177 9883   6.803   2.414   1.404 -0.7907 -0.7137  0.4262
   24RES   H178 9884   6.877   2.280   1.483  2.1481  1.4234 -1.7114
   24RES   H179 9885   6.585   2.363   1.508 -0.7568  0.2569  0.8999
   24RES   H180 9886   6.713   2.106   1.615  0.6084  0.1734  1.1127
   24RES   H181 9887   6.577   2.116   1.505  1.1660  0.4229 -0.4120
   24RES   H182 9888   6.443   2.241   1.714 -1.1146 -1.2279  0.7513
   24RES   H183 9889   6.568   2.175   1.808  0.0162  3.4148  0.2658
   24RES   H184 9890   6.520   1.953   1.706  0.3924  0.8085 -3.0085
   24RES   H185 9891   6.390   2.026   1.614  1.8418  0.9125 -1.2245
   24RES   H186 9892   6.279   2.094   1.812  1.8911  0.6829 -1.0183
   24RES   H187 9893   6.400   2.019   1.919 -2.7018  1.4774  2.0389
   24RES   H188 9894   6.227   1.878   1.711  1.1434 -0.4011 -0.8446
   24RES   H189 9895   6.209   1.867   1.887  0.7217  0.7620  0.7414
   24RES   H190 9896   6.348   1.791   1.791  0.8118  0.8447  1.2345
   24RES   C191 9897   6.718   2.376   1.672 -0.4639 -0.4098 -0.4411
   24RES   C192 9898   6.789   2.513   1.654 -0.4402  0.9413 -0.6484
   24RES   C193 9899   6.702   2.615   1.575 -0.2258 -0.3908  0.0986
   24RES   C194 9900   6.593   2.685   1.654 -0.2886  0.7077 -0.3800
   24RES   C195 9901   6.489   2.754   1.577 -0.3442 -0.6561 -0.4865
   24RES   C196 9902   6.536   2.854   1.467  0.1833  0.1051 -0.2416
   24RES   C197 9903   6.411   2.921   1.410  0.1821 -0.7586  0.5841
   24RES   H198 9904   6.782   2.304   1.723  0.4705 -0.1178 -1.1723
   24RES   H199 9905   6.631   2.386   1.737 -0.3005  0.1168 -0.3037
   24RES   H200 9906   6.876   2.490   1.592 -0.1479  0.3079 -0.0140
   24RES   H201 9907   6.668   2.579   1.478  2.1124  0.1172 -0.9636
   24RES   H202 9908   6.767   2.695   1.542 -1.1841  0.6646  0.7570
   24RES   H203 9909   6.633   2.765   1.717  1.8198  0.5584 -1.4636
   24RES   H204 9910   6.556   2.609   1.722  0.0231  0.4195 -0.5301
   24RES   H205 9911   6.440   2.678   1.517 -0.8105  0.3337 -1.3862
   24RES   H206 9912   6.413   2.804   1.637 -0.9168  0.1153 -1.8360
   24RES   H207 9913   6.580   2.801   1.382  0.4285  1.1317 -0.7635
   24RES   H208 9914   6.615   2.919   1.506  1.9564 -2.4812  0.6046
   24RES   H209 9915   6.367   2.988   1.484 -1.1045 -0.1372 -0.7150
   24RES   H210 9916   6.355   2.842   1.361  0.7047 -1.3025  0.8611
   24RES   H211 9917   6.456   2.985   1.333 -0.9114  1.1210  1.4742
   24RES   C212 9918   6.832   2.579   1.783 -0.3061 -0.5044  0.0193
   24RES   C213 9919   6.936   2.514   1.869 -0.2940 -0.0500  0.0300
   24RES   C214 9920   7.062   2.599   1.903  0.1554 -0.1520 -0.8096
   24RES   C215 9921   7.143   2.674   1.786  0.8041 -0.8754 -0.6203
   24RES   C216 9922   7.165   2.597   1.652  0.1863 -0.4708 -0.1064
   24RES   C217 9923   7.236   2.684   1.554 -0.6712  0.0153 -0.6776
   24RES   C218 9924   7.257   2.621   1.412 -0.1933  0.1066 -0.2976
   24RES   H219 9925   6.743   2.619   1.831 -2.4400  1.3038 -5.1304
   24RES   H220 9926   6.870   2.677   1.753  0.8375 -1.2039 -0.8747
   24RES   H221 9927   6.974   2.425   1.819 -0.3717 -0.6373  0.9907
   24RES   H222 9928   7.027   2.677   1.971 -0.1869 -2.8508  2.2251
   24RES   H223 9929   7.136   2.532   1.947  1.1599 -0.4183 -2.8465
   24RES   H224 9930   7.239   2.708   1.824 -0.5063  1.0371  1.1212
   24RES   H225 9931   7.093   2.763   1.746 -0.0981 -1.7321 -1.4139
   24RES   H226 9932   7.226   2.509   1.674  1.1433  0.0993 -0.4703
   24RES   H227 9933   7.065   2.572   1.616 -0.3877  0.6304  0.7056
   24RES   H228 9934   7.180   2.777   1.544  0.2906  0.6891  0.0326
   24RES   H229 9935   7.323   2.724   1.606  1.5288 -2.8127 -2.0417
   24RES   H230 9936   7.268   2.715   1.358  0.6601 -0.5920 -1.3482
   24RES   H231 9937   7.172   2.566   1.370 -0.9383  0.5161  0.6359
   24RES   H232 9938   7.351   2.566   1.405 -1.3692 -2.1634  1.0656
   24RES   C233 9939   6.882   2.470   2.008 -0.5842 -0.4713  0.4197
   24RES   C234 9940   6.796   2.343   2.038  0.0312  0.3803 -0.0251
   24RES   C235 9941   6.859   2.216   1.998  0.5950  0.0010 -0.0549
   24RES   C236 9942   6.982   2.174   2.080 -0.6030  0.2126  0.5516
   24RES   C237 9943   7.052   2.058   2.014 -0.5771  0.3531 -0.0182
   24RES   C238 9944   7.127   1.970   2.114 -0.0471  0.3220  0.7101
   24RES   C239 9945   7.230   1.878   2.041 -0.2079 -0.5334 -0.0180
   24RES   H240 9946   6.814   2.550   2.040  1.2265  1.1454  0.3352
   24RES   H241 9947   6.968   2.456   2.074 -0.7840  1.3134  1.0994
   24RES   H242 9948   6.706   2.347   1.975 -1.4354 -0.4428  1.9631
   24RES   H243 9949   6.888   2.237   1.895  0.0348  0.9964 -0.0167
   24RES   H244 9950   6.775   2.146   2.000 -0.8168  1.6432 -0.0540
   24RES   H245 9951   6.934   2.146   2.174  1.1488 -0.6619  1.2112
   24RES   H246 9952   7.042   2.261   2.106 -0.2206 -0.1884  1.0114
   24RES   H247 9953   7.118   2.090   1.934 -0.7567 -1.4275 -0.9011
   24RES   H248 9954   6.979   1.993   1.965  1.0624 -0.8792 -0.8547
   24RES   H249 9955   7.167   2.036   2.191 -1.1204  2.0425 -0.1661
   24RES   H250 9956   7.063   1.900   2.166 -1.8295 -0.0672 -1.8931
   24RES   H251 9957   7.311   1.924   1.984 -0.5355  0.0608 -0.0167
   24RES   H252 9958   7.284   1.835   2.125 -0.6960 -0.3672  0.3821
   24RES   H253 9959   7.178   1.805   1.979 -1.9626 -1.9664  3.0291
   24RES   C254 9960   6.741   2.343   2.179 -0.2941  0.7871  0.3779
   24RES   C255 9961   6.634   2.235   2.221 -0.3280  0.2173 -0.0252
   24RES   C256 9962   6.495   2.259   2.163  0.0453 -0.2081  0.3343
   24RES   C257 9963   6.454   2.401   2.152 -0.4746 -0.2602  0.8130
   24RES   C258 9964   6.315   2.422   2.086 -0.7331  0.0714 -0.8659
   24RES   C259 9965   6.271   2.565   2.057 -0.4311 -0.4097  0.0752
   24RES   C260 9966   6.342   2.641   1.945  0.0222 -0.1535 -0.2028
   24RES   H261 9967   6.701   2.442   2.202 -2.2836  0.2313 -0.5765
   24RES   H262 9968   6.821   2.342   2.253 -2.1974  3.2500  2.5741
   24RES   H263 9969   6.659   2.138   2.177  1.7657  0.7974 -0.1413
   24RES   H264 9970   6.429   2.193   2.218 -0.7354 -1.2668 -1.8200
   24RES   H265 9971   6.491   2.222   2.061  2.1450  1.3958 -0.3887
   24RES   H266 9972   6.465   2.456   2.245 -0.7476 -0.3278  0.8840
   24RES   H267 9973   6.526   2.457   2.092  0.3788  0.7546  2.7675
   24RES   H268 9974   6.240   2.379   2.152  0.0185 -0.2808 -0.2321
   24RES   H269 9975   6.308   2.368   1.991  3.7356 -0.0024 -1.2627
   24RES   H270 9976   6.165   2.558   2.034 -0.5198  0.0426  0.3325
   24RES   H271 9977   6.279   2.624   2.148  1.3374 -0.0494 -0.2934
   24RES   H272 9978   6.450   2.650   1.955  0.2896 -0.3877 -2.5606
   24RES   H273 9979   6.313   2.583   1.857  0.7581 -1.3684  0.3428
   24RES   H274 9980   6.299   2.741   1.937  1.4372  0.5974  1.2549
   24RES   C275 9981   6.618   2.230   2.378  0.4501 -0.6315 -0.0093
   24RES   C276 9982   6.546   2.112   2.447 -0.2592  0.7474 -0.6684
   24RES   C277 9983   6.438   2.163   2.547  0.0807  0.0758  0.3526
   24RES   C278 9984   6.316   2.232   2.485  0.2826  0.1976 -0.4344
   24RES   C279 9985   6.204   2.264   2.582  0.2693  1.3210  0.2966
   24RES   C280 9986   6.085   2.339   2.518 -0.3957  0.5666 -0.5233
   24RES   C281 9987   5.974   2.369   2.616 -0.3410 -0.7743  0.3129
   24RES   H282 9988   6.572   2.322   2.415  1.0479  0.2503 -1.4308
   24RES   H283 9989   6.723   2.233   2.406 -0.0399  1.9406  1.7897
   24RES   H284 9990   6.488   2.069   2.365 -0.2080  0.1897 -0.4153
   24RES   H285 9991   6.409   2.079   2.610 -1.3567  1.0271  0.9799
   24RES   H286 9992   6.488   2.224   2.622  0.1385  1.2045 -0.5788
   24RES   H287 9993   6.283   2.164   2.406  0.0659 -0.1161 -0.0698
   24RES   H288 9994   6.351   2.324   2.437 -0.1945  0.6962  0.1640
   24RES   H289 9995   6.235   2.336   2.658  1.3599  0.2563  0.8706
   24RES   H290 9996   6.172   2.183   2.647  0.9679  2.2547  1.8269
   24RES   H291 9997   6.130   2.429   2.476  1.2950  0.2646  0.6175
   24RES   H292 9998   6.035   2.273   2.447 -1.4569 -0.5288  1.2002
   24RES   H293 9999   5.922   2.280   2.652 -0.1870 -0.2008  1.9594
   24RES   H29410000   5.899   2.429   2.564  0.8873  0.4817 -0.0003
   24RES   H29510001   6.010   2.427   2.700 -1.6996 -0.1646  0.5027
   24RES   C29610002   6.632   2.008   2.525 -0.2259  0.6367  0.1307
   24RES   C29710003   6.731   1.925   2.437  0.4354 -0.6346  0.1256
   24RES   C29810004   6.653   1.835   2.336 -0.2871  0.1989 -0.0275
   24RES   C29910005   6.718   1.832   2.198  0.3470 -0.0314  0.0596
   24RES   C30010006   6.627   1.776   2.088 -0.1751 -0.5800  0.2182
   24RES   C30110007   6.682   1.788   1.942  0.1151  0.0499  0.1968
   24RES   C30210008   6.818   1.725   1.930 -0.0792  0.2676  0.2996
   24RES   H30310009   6.680   2.078   2.593  0.8898  0.8239 -0.8334
   24RES   H30410010   6.572   1.940   2.585  1.1812 -1.4824 -0.8015
   24RES   H30510011   6.786   1.999   2.379 -0.5288 -1.3378 -1.7314
   24RES   H30610012   6.640   1.733   2.374 -1.7467  0.8598  1.3315
   24RES   H30710013   6.550   1.868   2.324  0.1930  1.3524 -0.9980
   24RES   H30810014   6.810   1.775   2.201  0.5156  0.1552 -1.4932
   24RES   H30910015   6.756   1.931   2.173 -2.1512  0.5056 -1.7474
   24RES   H31010016   6.529   1.824   2.089 -0.9538 -2.0979 -1.0591
   24RES   H31110017   6.608   1.672   2.113 -1.2187 -2.1357 -6.0222
   24RES   H31210018   6.613   1.732   1.879  1.9271 -1.2318 -0.6985
   24RES   H31310019   6.688   1.895   1.919  0.4006 -0.0090 -0.0070
   24RES   H31410020   6.818   1.620   1.959 -1.4755 -0.1242 -1.0156
   24RES   H31510021   6.844   1.714   1.825 -1.8801 -1.4209 -0.0133
   24RES   H31610022   6.897   1.771   1.989  1.3223  0.8635 -2.0194
   24RES   C31710023   6.836   1.840   2.525 -0.2027 -0.5905 -0.5000
   24RES   C31810024   6.936   1.926   2.609 -0.3339 -0.5465 -0.0835
   24RES   C31910025   6.994   1.853   2.727  0.4715  0.1566  0.1404
   24RES   C32010026   7.076   1.726   2.699  0.2540 -0.0792 -0.5397
   24RES   C32110027   7.165   1.671   2.808  0.2933  0.1211 -1.2033
   24RES   C32210028   7.243   1.548   2.767 -0.0034  0.0275 -0.4865
   24RES   C32310029   7.336   1.496   2.876  0.0244 -0.1981  0.0077
   24RES   H32410030   6.887   1.784   2.447 -1.0282 -0.1622 -1.3639
   24RES   H32510031   6.782   1.774   2.593  1.3049 -2.8491 -1.4486
   24RES   H32610032   6.869   2.004   2.645 -0.5488 -0.5117 -0.5652
   24RES   H32710033   6.913   1.829   2.796 -0.9705  1.0728 -1.1738
   24RES   H32810034   7.052   1.918   2.792 -0.4693  2.9405 -1.7185
   24RES   H32910035   7.141   1.732   2.612  2.4919  2.2167  1.2490
   24RES   H33010036   7.009   1.644   2.669  0.6952 -0.5756 -0.1611
   24RES   H33110037   7.097   1.634   2.885  0.7038  1.4283 -0.1840
   24RES   H33210038   7.232   1.745   2.853 -1.2040  0.7831 -0.0280
   24RES   H33310039   7.307   1.577   2.684 -2.6697  0.4816 -2.4541
   24RES   H33410040   7.170   1.471   2.743  0.0965  0.3084 -1.7015
   24RES   H33510041   7.395   1.410   2.844  1.0435  0.4824  0.0580
   24RES   H33610042   7.270   1.460   2.955  0.9297 -1.2387  0.2962
   24RES   H33710043   7.403   1.574   2.910  0.8462 -0.6709 -0.5210
   24RES   C33810044   7.054   1.985   2.521  0.1884  0.3692  0.4719
   24RES   C33910045   7.103   2.120   2.566  0.6127  0.0773 -0.5101
   24RES   C34010046   6.999   2.229   2.532  0.1373  0.1381  0.3387
   24RES   C34110047   7.014   2.349   2.625 -0.1796  0.2383  0.2897
   24RES   C34210048   6.891   2.439   2.606  0.5279  0.1983 -0.8016
   24RES   C34310049   6.766   2.393   2.694  0.5022 -0.1846  0.2220
   24RES   C34410050   6.640   2.485   2.690 -1.1807  0.3439  0.2086
   24RES   H34510051   7.025   1.989   2.416 -0.1642  0.5193  0.5733
   24RES   H34610052   7.134   1.912   2.529 -0.4363 -0.1566  1.9588
   24RES   H34710053   7.119   2.116   2.674 -1.6416 -0.1535 -0.1661
   24RES   H34810054   7.001   2.268   2.430 -1.2436  0.3631  0.3963
   24RES   H34910055   6.903   2.182   2.550 -0.3736  0.7997 -0.6677
   24RES   H35010056   7.094   2.416   2.593  1.0795 -1.6889 -0.6601
   24RES   H35110057   7.020   2.320   2.730  4.2826  1.0568  0.3447
   24RES   H35210058   6.912   2.540   2.641  0.7832 -0.0035 -0.3639
   24RES   H35310059   6.870   2.444   2.499  0.1265 -3.1084 -0.9266
   24RES   H35410060   6.729   2.297   2.659  0.5182 -0.2124  0.2811
   24RES   H35510061   6.803   2.390   2.797 -0.2918  2.1556  0.6120
   24RES   H35610062   6.574   2.452   2.771 -0.1289  0.5555  1.1611
   24RES   H35710063   6.593   2.483   2.592  1.5528  2.1768 -1.2031
   24RES   H35810064   6.670   2.589   2.702  2.2385 -0.6591  0.8624
   24RES   C35910065   7.238   2.146   2.502  0.2583 -0.3484  0.4541
   24RES   C36010066   7.361   2.075   2.561  0.5722 -0.6822 -0.8038
   24RES   C36110067   7.485   2.094   2.476 -0.3696  0.0771  0.5592
   24RES   C36210068   7.478   2.006   2.345 -0.2507 -0.4978  0.9295
   24RES   C36310069   7.594   2.030   2.253  0.0472 -0.9835 -0.7318
   24RES   C36410070   7.565   1.987   2.106 -0.3766 -0.7919 -0.0142
   24RES   C36510071   7.657   2.055   1.999 -0.6120  0.0872 -0.4027
   24RES   H36610072   7.252   2.253   2.519  1.3054  0.1666 -3.1967
   24RES   H36710073   7.225   2.120   2.397  2.1965  3.9822 -0.9816
   24RES   H36810074   7.341   1.968   2.568 -1.4468 -0.2125  1.6157
   24RES   H36910075   7.493   2.201   2.455 -1.8461 -0.0651 -0.7366
   24RES   H37010076   7.578   2.070   2.527 -0.6862 -0.4983  0.8678
   24RES   H37110077   7.477   1.901   2.376 -0.0277 -1.0040 -0.6896
   24RES   H37210078   7.385   2.022   2.290 -0.8454 -1.0869  1.7470
   24RES   H37310079   7.625   2.134   2.261  0.5317 -1.2828  1.6567
   24RES   H37410080   7.686   1.989   2.295  1.3975  3.3448  0.8463
   24RES   H37510081   7.571   1.878   2.099  2.2486 -0.6084 -1.0137
   24RES   H37610082   7.464   2.025   2.086  1.0099  2.3893 -1.3040
   24RES   H37710083   7.665   1.990   1.913  1.3314 -0.2425 -0.0040
   24RES   H37810084   7.625   2.152   1.962 -0.6983  0.6171  1.0393
   24RES   H37910085   0.034   2.062   2.033 -1.3159  1.1331  1.6344
   24RES   C38010086   7.394   2.130   2.707 -0.1421 -0.0766 -0.1568
   24RES   C38110087   7.359   2.021   2.817 -0.6397  0.4185 -0.0245
   24RES   C38210088   7.485   1.937   2.851  0.2084  0.0947 -0.2910
   24RES   C38310089   7.524   1.837   2.739  0.1135 -0.3694 -0.1990
   24RES   C38410090   7.624   1.731   2.783  0.3121 -0.2669  0.1765
   24RES   C38510091   7.689   1.657   2.665 -0.1231 -0.9007 -0.3476
   24RES   C38610092   0.083   1.569   2.705  0.8088 -0.7441  0.0394
   24RES   H38710093   7.494   2.172   2.714  0.0105 -0.2360 -1.3917
   24RES   H38810094   7.342   2.223   2.732 -1.2752 -0.0735 -2.4185
   24RES   H38910095   7.279   1.954   2.784  0.4212  0.7578 -3.5349
   24RES   H39010096   7.480   1.880   2.943  3.4192  0.0252 -0.0894
   24RES   H39110097   7.566   2.007   2.872  0.6314 -0.8098  1.1684
   24RES   H39210098   7.448   1.789   2.678 -1.5992  0.7584  0.9819
   24RES   H39310099   7.568   1.900   2.662 -0.6787  1.5641  0.8922
   24RES   H39410100   7.710   1.772   2.835  1.0019  0.2429 -1.3477
   24RES   H39510101   7.572   1.654   2.841  2.0533 -1.6474 -0.0631
   24RES   H39610102   7.716   1.709   2.573 -2.4057  0.7472 -0.1134
   24RES   H39710103   7.606   1.602   2.620 -0.4972 -0.3047 -0.3960
   24RES   H39810104   0.063   1.482   2.768  0.8655  1.3171  2.9923
   24RES   H39910105   0.137   1.627   2.779 -0.5450 -1.3905  1.5739
   24RES   H40010106   0.156   1.535   2.632 -0.7880 -1.3091 -1.3175
   24RES   C40110107   7.303   2.082   2.942  0.7894  0.3632 -0.6767
   24RES   C40210108   7.245   1.982   3.039 -0.0488  1.0752 -0.3932
   24RES   C40310109   7.162   2.043   3.151 -0.2270  0.6857  0.1472
   24RES   C40410110   7.093   1.929   3.234  0.0005  0.7942  0.2701
   24RES   C40510111   7.012   1.969   3.352  0.5946 -0.5455 -0.0760
   24RES   C40610112   6.912   2.082   3.333  0.0888  0.1284  0.2640
   24RES   C40710113   6.797   2.053   3.237 -0.4380 -0.1003  0.4963
   24RES   H40810114   7.231   2.161   2.921  0.5850  0.5685  0.7496
   24RES   H40910115   7.384   2.119   3.006  0.7598 -0.0306 -0.4101
   24RES   H41010116   7.315   1.904   3.070 -0.5648  0.5643 -0.5048
   24RES   H41110117   7.096   2.111   3.099 -0.4454  2.0534  2.1582
   24RES   H41210118   7.217   2.109   3.218  0.7686 -0.1503  0.1724
   24RES   H41310119   7.164   1.855   3.270 -0.4382  0.6623  0.8687
   24RES   H41410120   7.016   1.886   3.170 -1.1113  0.7472  1.6211
   24RES   H41510121   6.964   1.878   3.386 -0.3046 -0.3709 -0.8306
   24RES   H41610122   7.086   1.993   3.428 -0.3814  1.6485  0.2430
   24RES   H41710123   6.862   2.102   3.428 -1.3156  4.3847 -1.2753
   24RES   H41810124   6.975   2.169   3.318  1.4716 -0.5685  1.8459
   24RES   H41910125   6.728   1.980   3.280 -0.3336 -1.1327 -1.0670
   24RES   H42010126   6.831   2.011   3.142  0.4364 -1.1552  1.2611
   24RES   H42110127   6.742   2.145   3.219 -1.0632 -0.6037 -0.1821
   24RES   H42210128   7.166   1.925   2.990  1.7498 -0.2371 -1.8407
   25RES     C110129   2.452   4.079   1.777  0.6918  1.0616  0.2955
   25RES     C210130   2.453   4.175   1.902  0.2515 -0.6875  0.7314
   25RES     C310131   2.567   4.150   2.003 -0.6757 -1.0021  0.2143
   25RES     C410132   2.705   4.179   1.939  0.2624  0.3794 -0.7799
   25RES     C510133   2.818   4.174   2.038 -0.7092  0.5287 -0.6172
   25RES     C610134   2.954   4.230   1.985 -0.0336 -0.8034 -0.3979
   25RES     C710135   3.060   4.242   2.095  0.0781  0.0487  0.4383
   25RES     H810136   2.368   4.097   1.709  1.5172  1.5924 -0.5940
   25RES     H910137   2.441   3.974   1.805  3.9641  0.6437  0.1397
   25RES    H1010138   2.467   4.275   1.861 -0.2525 -0.7200  0.4728
   25RES    H1110139   2.560   4.207   2.096  1.2806  1.6439 -1.1723
   25RES    H1210140   2.548   4.050   2.041 -0.4310 -0.5253  1.6433
   25RES    H1310141   2.719   4.120   1.849  1.4271  1.2950 -1.2031
   25RES    H1410142   2.686   4.280   1.904  1.6062  1.0946  0.4732
   25RES    H1510143   2.833   4.071   2.069  1.0442  1.0688  0.4111
   25RES    H1610144   2.794   4.230   2.128  1.7446  0.4673  0.1101
   25RES    H1710145   2.936   4.333   1.955  1.0974 -0.6967 -0.7258
   25RES    H1810146   2.995   4.173   1.903  1.2319  0.9475 -1.0262
   25RES    H1910147   3.033   4.335   2.146 -0.5357  1.8242 -2.9937
   25RES    H2010148   3.163   4.251   2.061  0.3111 -1.2429  0.7670
   25RES    H2110149   3.053   4.158   2.164  1.7506 -0.1183  0.4105
   25RES    H2210150   2.532   4.070   1.704 -0.3346 -1.6627 -0.5489
   25RES    C2310151   2.309   4.170   1.958 -0.5516 -0.0897  0.9152
   25RES    C2410152   2.282   4.230   2.096 -0.6757 -0.6317 -0.2542
   25RES    C2510153   2.136   4.199   2.133  0.8580  0.6539 -0.8340
   25RES    C2610154   2.107   4.045   2.153  0.0465 -0.1930 -0.2680
   25RES    C2710155   1.954   4.019   2.179  0.3129  0.2070  0.1364
   25RES    C2810156   1.910   3.872   2.169 -0.1154 -0.5632  0.2403
   25RES    C2910157   1.952   3.791   2.296  1.1759 -0.2490  0.4040
   25RES    H3010158   2.247   4.222   1.884  1.4191  0.4104 -0.4432
   25RES    H3110159   2.281   4.065   1.948 -1.0200  0.2003 -1.0855
   25RES    H3210160   2.346   4.186   2.172  0.4915  1.2352 -0.1328
   25RES    H3310161   2.065   4.233   2.058  1.4716 -1.2545 -2.3351
   25RES    H3410162   2.098   4.249   2.222 -1.5705 -2.9910  0.2843
   25RES    H3510163   2.157   4.020   2.247 -1.2910  0.3315  0.5990
   25RES    H3610164   2.150   3.974   2.082  0.8327  1.1164 -1.1119
   25RES    H3710165   1.904   4.068   2.096  0.0145 -0.1612  0.0988
   25RES    H3810166   1.920   4.070   2.269  0.0274  0.7419 -0.2775
   25RES    H3910167   1.962   3.828   2.083 -0.7455 -0.9381  0.0465
   25RES    H4010168   1.804   3.857   2.149 -0.2021 -0.1727  0.4116
   25RES    H4110169   2.061   3.797   2.299  1.2724  0.3965 -2.5520
   25RES    H4210170   1.901   3.836   2.381 -0.7532  3.6040 -2.6533
   25RES    H4310171   1.924   3.687   2.282  0.3780 -0.2864  2.0700
   25RES    C4410172   2.307   4.380   2.095  0.4649  0.0659  0.3743
   25RES    C4510173   2.297   4.461   2.227 -0.2214  0.3858 -0.4727
   25RES    C4610174   2.425   4.433   2.316  0.3708  0.6630 -0.2510
   25RES    C4710175   2.411   4.310   2.412  0.0017 -0.1571 -0.6750
   25RES    C4810176   2.461   4.334   2.565  0.0629  0.2379 -0.2266
   25RES    C4910177   2.444   4.211   2.646  0.0429 -0.1200 -0.0967
   25RES    C5010178   2.484   4.235   2.793  0.0850 -0.3798 -0.3365
   25RES    H5110179   2.243   4.432   2.024  0.4707 -0.3213  0.0886
   25RES    H5210180   2.400   4.404   2.044 -0.5497 -0.8878 -1.9715
   25RES    H5310181   2.205   4.439   2.281 -0.6623 -0.5334 -1.5832
   25RES    H5410182   2.433   4.521   2.380 -1.2337  0.5902  0.0624
   25RES    H5510183   2.519   4.438   2.261  0.0922  1.6851 -0.6434
   25RES    H5610184   2.308   4.275   2.411 -1.1140  2.8783  1.9033
   25RES    H5710185   2.476   4.231   2.374 -0.3896 -1.1801  0.7714
   25RES    H5810186   2.417   4.421   2.613 -2.9682 -1.2104 -0.3069
   25RES    H5910187   2.568   4.355   2.567  0.5341 -1.9987 -0.0664
   25RES    H6010188   2.497   4.131   2.595  0.2190 -0.4260  0.5722
   25RES    H6110189   2.337   4.189   2.646 -0.0686  0.4152 -0.6643
   25RES    H6210190   2.584   4.276   2.809 -1.6445  3.7453  0.4810
   25RES    H6310191   2.485   4.138   2.843  1.2783 -0.8826 -1.2906
   25RES    H6410192   2.418   4.312   2.833  1.3795  0.2734  0.5981
   25RES    C6510193   2.283   4.612   2.181 -0.2684 -0.3868 -0.9385
   25RES    C6610194   2.136   4.666   2.156 -1.2227 -0.0600  0.0911
   25RES    C6710195   2.139   4.802   2.072  0.6258  0.7042  0.0043
   25RES    C6810196   2.204   4.787   1.932 -0.4686  0.1226 -0.1192
   25RES    C6910197   2.212   4.934   1.868 -0.6765 -0.0815 -0.3344
   25RES    C7010198   2.070   4.982   1.824 -0.1249  0.6056 -0.0287
   25RES    C7110199   2.067   5.136   1.810 -0.3267 -0.1379  0.2987
   25RES    H7210200   2.339   4.667   2.257  0.6514 -3.0900  0.4431
   25RES    H7310201   2.350   4.624   2.096  2.1900  0.7511  1.0610
   25RES    H7410202   2.090   4.592   2.090 -0.2375 -2.9176  2.4843
   25RES    H7510203   2.033   4.823   2.060  0.5352 -0.4171 -1.3581
   25RES    H7610204   2.192   4.881   2.125 -0.0218  0.2807  1.3056
   25RES    H7710205   2.306   4.749   1.932 -0.8487 -0.8934  0.6434
   25RES    H7810206   2.142   4.719   1.873  0.2367  0.4939 -1.3109
   25RES    H7910207   2.257   5.003   1.939  1.8768 -0.0452 -1.8966
   25RES    H8010208   2.282   4.931   1.784  0.9310 -0.3358  0.9779
   25RES    H8110209   1.996   4.951   1.897  2.2644 -0.8711  1.8673
   25RES    H8210210   2.039   4.941   1.728 -1.0598  1.3295 -0.0358
   25RES    H8310211   1.964   5.171   1.811 -0.5832 -0.8797  0.7001
   25RES    H8410212   2.132   5.189   1.879 -0.3694  2.4283 -1.5632
   25RES    H8510213   2.109   5.152   1.711 -0.3052 -1.3849  0.0904
   25RES    C8610214   2.069   4.684   2.299 -0.6891 -0.2576  0.8218
   25RES    C8710215   1.907   4.704   2.295  0.5633 -0.3898  0.3459
   25RES    C8810216   1.830   4.572   2.299  0.3593 -0.0352 -0.8439
   25RES    C8910217   1.677   4.579   2.284 -0.1634  0.0389  0.3619
   25RES    C9010218   1.619   4.454   2.214 -0.4907 -0.4247 -0.3768
   25RES    C9110219   1.647   4.313   2.279 -0.1424  0.7589  0.0611
   25RES    C9210220   1.638   4.309   2.434  0.2888 -0.0080  0.3034
   25RES    H9310221   2.081   4.588   2.351  0.2486  0.1332  1.3367
   25RES    H9410222   2.118   4.764   2.355 -0.4244  0.5841 -0.5904
   25RES    H9510223   1.881   4.737   2.194 -1.2746 -0.3162  0.8277
   25RES    H9610224   1.878   4.509   2.224  0.8258 -1.2580  0.4745
   25RES    H9710225   1.852   4.531   2.397 -0.9172 -0.5687 -0.7731
   25RES    H9810226   1.619   4.604   2.373 -1.8728  0.1416 -0.7550
   25RES    H9910227   1.640   4.659   2.219 -1.0426 -0.6239  0.0388
   25RES   H10010228   1.654   4.451   2.111 -0.5163 -0.5224 -0.3823
   25RES   H10110229   1.513   4.478   2.204 -0.1612  1.6210  0.7176
   25RES   H10210230   1.568   4.245   2.251  1.6522 -1.4754  0.2664
   25RES   H10310231   1.738   4.262   2.245  0.9261  2.6487 -0.0074
   25RES   H10410232   1.635   4.209   2.478 -0.8924  0.1922  0.6937
   25RES   H10510233   1.550   4.363   2.468  1.1485  2.5535 -1.3978
   25RES   H10610234   1.718   4.365   2.483  2.7867 -3.6710  0.6322
   25RES   C10710235   1.856   4.808   2.395  0.1759  0.2866  0.1345
   25RES   C10810236   1.890   4.955   2.365 -0.2155 -0.2726 -0.0282
   25RES   C10910237   1.776   5.014   2.280  0.0271 -0.6223 -0.3931
   25RES   C11010238   1.790   5.156   2.214  0.7344 -0.6565  0.2581
   25RES   C11110239   1.661   5.205   2.142  0.0072  0.0683 -0.5434
   25RES   C11210240   1.592   5.095   2.052 -0.2069  0.2694 -0.2212
   25RES   C11310241   1.475   5.154   1.977  0.6358  0.4399 -0.4433
   25RES   H11410242   1.896   4.779   2.493  0.0615  0.9698  0.3849
   25RES   H11510243   1.748   4.799   2.401  0.0691  1.9650  1.1523
   25RES   H11610244   1.983   4.965   2.309  1.1085 -1.3052  1.9458
   25RES   H11710245   1.685   5.019   2.340  1.1447 -0.5743  1.3254
   25RES   H11810246   1.760   4.949   2.194 -0.1676 -0.6722 -0.3209
   25RES   H11910247   1.827   5.239   2.275  1.0016  0.3524 -1.2340
   25RES   H12010248   1.868   5.156   2.138 -0.8401  2.4112 -1.4673
   25RES   H12110249   1.689   5.296   2.090  2.6410  0.0445  0.7437
   25RES   H12210250   1.585   5.227   2.217 -0.9432  1.2847 -1.8331
   25RES   H12310251   1.661   5.050   1.982  0.0488  0.8227 -0.3248
   25RES   H12410252   1.561   5.014   2.118  0.7285 -0.5714 -0.7938
   25RES   H12510253   1.513   5.224   1.903 -3.6686  3.9143  0.4587
   25RES   H12610254   1.408   5.080   1.931 -0.0501  0.5173  0.4156
   25RES   H12710255   1.417   5.207   2.052  0.4780 -0.6531  0.2307
   25RES   C12810256   1.919   5.046   2.495  0.3394 -0.3425 -0.0748
   25RES   C12910257   2.051   5.040   2.565 -0.5531  0.1202 -0.0600
   25RES   C13010258   2.179   5.063   2.480 -0.0528  0.2397  0.0145
   25RES   C13110259   2.177   5.186   2.390 -0.7737 -0.0934  0.5978
   25RES   C13210260   2.318   5.215   2.334 -0.4885  0.4706  0.0404
   25RES   C13310261   2.320   5.355   2.268  0.1729 -0.0745 -0.4258
   25RES   C13410262   2.217   5.401   2.162 -0.9130 -0.3146 -0.0212
   25RES   H13510263   1.909   5.152   2.473 -2.9158 -0.5035  0.3762
   25RES   H13610264   1.844   5.018   2.569  0.0208  2.0527  0.5339
   25RES   H13710265   2.047   5.122   2.637 -2.4377  0.4181 -0.4638
   25RES   H13810266   2.198   4.972   2.424 -2.0901  0.9622 -1.9713
   25RES   H13910267   2.266   5.061   2.545 -0.0940  1.4905  0.1262
   25RES   H14010268   2.161   5.265   2.463 -0.5626 -0.2721  0.8419
   25RES   H14110269   2.101   5.183   2.312 -1.4112 -4.2564  1.2679
   25RES   H14210270   2.349   5.152   2.250  2.0527  2.0332 -0.2723
   25RES   H14310271   2.391   5.208   2.415  0.2624 -0.3930 -0.7027
   25RES   H14410272   2.417   5.381   2.226  1.2672  0.7461  2.4464
   25RES   H14510273   2.320   5.430   2.347  0.0543 -2.3261  1.7627
   25RES   H14610274   2.117   5.403   2.204 -0.0711  0.1207  2.0511
   25RES   H14710275   2.223   5.324   2.086 -1.5456  0.4918 -0.8976
   25RES   H14810276   2.231   5.503   2.125 -1.7212  0.1573  0.9367
   25RES   C14910277   2.076   4.907   2.649  0.5560  0.7923 -0.5045
   25RES   C15010278   2.155   4.933   2.778  0.6582  0.4354  0.2348
   25RES   C15110279   2.246   4.810   2.808  0.3073 -0.6897  0.2117
   25RES   C15210280   2.354   4.795   2.703 -0.7825  0.5005  0.1220
   25RES   C15310281   2.449   4.684   2.745 -0.0991  0.1976 -0.0393
   25RES   C15410282   2.575   4.666   2.659  0.1253  0.1543 -0.5943
   25RES   C15510283   2.681   4.767   2.679 -0.4313  0.0173  0.5097
   25RES   H15610284   1.976   4.871   2.672  1.2484 -1.3680 -0.7749
   25RES   H15710285   2.114   4.824   2.589  1.8864 -0.4806  2.0097
   25RES   H15810286   2.229   5.013   2.773  0.1017  0.9812  0.8565
   25RES   H15910287   2.285   4.814   2.910 -1.2264  0.5604  0.7782
   25RES   H16010288   2.178   4.725   2.815  0.5267 -0.9068 -0.3328
   25RES   H16110289   2.405   4.892   2.706  0.8114 -0.3433  0.9396
   25RES   H16210290   2.325   4.777   2.599  1.8515 -0.4363 -0.4912
   25RES   H16310291   2.392   4.591   2.754 -0.6206  0.4318 -0.8347
   25RES   H16410292   2.477   4.703   2.849 -1.4784 -2.2218  0.8102
   25RES   H16510293   2.545   4.643   2.557 -1.7965  1.5426 -0.3560
   25RES   H16610294   2.623   4.578   2.704 -1.2010  0.3506  1.2586
   25RES   H16710295   2.693   4.804   2.781 -1.6545  1.2156  0.2316
   25RES   H16810296   2.656   4.856   2.622  1.1162 -1.6424 -2.9132
   25RES   H16910297   2.782   4.742   2.648 -0.4625 -1.4937  1.5959
   25RES   C17010298   2.073   4.968   2.903  0.3761  0.3471  0.0129
   25RES   C17110299   1.981   5.089   2.906  1.0514 -0.3134  0.1414
   25RES   C17210300   1.881   5.080   3.012 -0.1198  0.7572  0.1018
   25RES   C17310301   1.748   5.010   2.964 -0.0298 -0.2934 -0.0534
   25RES   C17410302   1.644   5.009   3.077  0.1102 -0.1459  0.4341
   25RES   C17510303   1.576   5.145   3.096 -0.2615  0.3505 -0.6410
   25RES   C17610304   1.456   5.151   3.191 -0.1977 -0.0133 -0.0290
   25RES   H17710305   2.141   4.970   2.988 -0.0287 -0.9483  0.3781
   25RES   H17810306   2.015   4.878   2.918  1.5857 -0.5453 -0.5213
   25RES   H17910307   1.930   5.091   2.809 -1.6726  0.8097  1.5386
   25RES   H18010308   1.853   5.176   3.056  0.0972  1.1984 -0.7035
   25RES   H18110309   1.917   5.032   3.102 -0.7870 -0.0071 -0.0297
   25RES   H18210310   1.768   4.904   2.951 -0.1899 -0.3869  0.4742
   25RES   H18310311   1.699   5.062   2.881  1.1026  0.1563 -0.4474
   25RES   H18410312   1.700   4.982   3.166  0.6640  1.4002  0.5784
   25RES   H18510313   1.564   4.941   3.048 -1.1646  0.4569  2.3630
   25RES   H18610314   1.545   5.188   3.001  0.4434 -0.3963 -1.2177
   25RES   H18710315   1.646   5.221   3.131 -0.4910  1.3797 -2.3469
   25RES   H18810316   1.388   5.067   3.180 -0.0676  0.0836 -1.7416
   25RES   H18910317   1.388   5.234   3.175 -3.4755 -2.7404 -1.0007
   25RES   H19010318   1.486   5.173   3.293 -1.0657  1.4039 -0.0635
   25RES   C19110319   2.063   5.220   2.921 -0.0931 -0.3339 -0.2644
   25RES   C19210320   1.984   5.351   2.903  0.4122  0.2511  0.1737
   25RES   C19310321   2.070   5.469   2.959  0.3191 -0.1994 -0.2839
   25RES   C19410322   2.197   5.507   2.888 -0.6573 -0.6689 -0.3595
   25RES   C19510323   2.250   5.647   2.916 -0.1847 -0.0518 -0.9284
   25RES   C19610324   2.379   5.691   2.852  0.2751  0.1606 -0.2799
   25RES   C19710325   2.500   5.596   2.880  0.5128  0.1036 -0.3465
   25RES   H19810326   2.138   5.205   2.843 -1.9293  0.6780 -2.2502
   25RES   H19910327   2.107   5.218   3.021 -2.4531  1.2035  0.8280
   25RES   H20010328   1.898   5.356   2.970 -1.5569 -0.5745 -2.2136
   25RES   H20110329   2.101   5.446   3.060 -1.3097 -1.0219  0.0480
   25RES   H20210330   2.004   5.556   2.950  0.0491 -0.4844 -1.1307
   25RES   H20310331   2.192   5.503   2.779  1.9008  0.2417 -0.5498
   25RES   H20410332   2.269   5.431   2.920  0.2556 -0.0576 -0.9199
   25RES   H20510333   2.178   5.723   2.887 -0.6525  0.8245  2.3171
   25RES   H20610334   2.256   5.654   3.025  0.6078  1.7947 -1.0750
   25RES   H20710335   2.401   5.792   2.884 -1.1988 -0.0541  1.4892
   25RES   H20810336   2.367   5.692   2.743  1.0893 -0.1515 -0.3731
   25RES   H20910337   2.551   5.572   2.787  0.4551 -0.8445 -0.1373
   25RES   H21010338   2.473   5.497   2.917  2.1421  0.3326  1.5462
   25RES   H21110339   2.560   5.645   2.956 -2.4227  0.1129  2.0822
   25RES   C21210340   1.940   5.371   2.760 -0.2153 -0.0049 -0.1385
   25RES   C21310341   1.820   5.461   2.729  0.1945 -0.1626 -0.6213
   25RES   C21410342   1.821   5.518   2.581 -0.0490  0.1696 -0.2318
   25RES   C21510343   1.842   5.665   2.566  0.3251 -0.7027  0.2501
   25RES   C21610344   1.840   5.709   2.417 -0.5668 -0.4443  0.9155
   25RES   C21710345   1.857   5.858   2.403  0.2242 -0.7585  0.1252
   25RES   C21810346   1.985   5.925   2.459 -0.1921  0.5460  0.4213
   25RES   H21910347   1.902   5.276   2.722 -1.0294 -0.0422  0.7550
   25RES   H22010348   2.022   5.381   2.688  0.0876 -1.0029  0.0632
   25RES   H22110349   1.851   5.546   2.788 -1.1197 -1.1551  1.5817
   25RES   H22210350   1.910   5.476   2.533 -0.2849 -1.4051  0.6837
   25RES   H22310351   1.729   5.485   2.533 -0.6448 -1.8612  2.2512
   25RES   H22410352   1.940   5.689   2.608 -0.3230  0.2010  1.2685
   25RES   H22510353   1.772   5.725   2.625  1.0203  1.5337 -1.1430
   25RES   H22610354   1.925   5.652   2.378 -1.0313 -0.6582  0.2066
   25RES   H22710355   1.758   5.657   2.367  0.4965 -1.8204  0.5557
   25RES   H22810356   1.857   5.878   2.296  0.6590  0.4061  0.3360
   25RES   H22910357   1.763   5.909   2.426  0.7691  0.1518  0.3551
   25RES   H23010358   2.071   5.872   2.420  1.0024  1.8557  1.2297
   25RES   H23110359   1.981   5.905   2.566 -0.5057 -1.7423  0.0030
   25RES   H23210360   1.994   6.028   2.425  0.9041 -0.2550 -1.7778
   25RES   C23310361   1.681   5.406   2.775 -0.6127  0.6796  0.2195
   25RES   C23410362   1.591   5.525   2.816  0.3790 -0.0185 -0.0512
   25RES   C23510363   1.445   5.512   2.769  0.8089 -0.3974  0.6104
   25RES   C23610364   1.433   5.541   2.617 -0.2442 -0.0713  0.1825
   25RES   C23710365   1.323   5.469   2.546  0.0060 -0.2421 -0.3293
   25RES   C23810366   1.269   5.529   2.413  0.7839  0.2467 -0.6102
   25RES   C23910367   1.378   5.529   2.302  0.3064 -0.6692 -0.3245
   25RES   H24010368   1.680   5.337   2.860  1.0970  0.7051  0.2590
   25RES   H24110369   1.645   5.340   2.695 -3.7888  0.5736  1.6418
   25RES   H24210370   1.619   5.621   2.772 -1.0815  0.3211 -0.2574
   25RES   H24310371   1.380   5.576   2.829 -1.8566 -0.7062 -1.8109
   25RES   H24410372   1.409   5.410   2.784 -2.5556  0.7250  0.5730
   25RES   H24510373   1.523   5.512   2.562 -0.9009 -1.0612 -0.3940
   25RES   H24610374   1.422   5.648   2.602 -0.3562 -0.2923 -1.3738
   25RES   H24710375   1.231   5.456   2.603 -0.3377  0.9290 -0.6004
   25RES   H24810376   1.360   5.368   2.529  1.8292  0.5069 -0.9048
   25RES   H24910377   1.189   5.462   2.380  2.1529 -2.5880  1.5214
   25RES   H25010378   1.239   5.630   2.439  0.8270 -0.5255  2.7064
   25RES   H25110379   1.466   5.580   2.340  0.2911  0.7436 -2.1038
   25RES   H25210380   1.415   5.429   2.280 -0.3763 -1.5656  2.4161
   25RES   H25310381   1.358   5.585   2.210 -1.1614  1.7456  1.4089
   25RES   C25410382   1.605   5.544   2.973  0.2979  0.0987  0.0647
   25RES   C25510383   1.536   5.675   3.023  0.2161 -0.8564 -0.9039
   25RES   C25610384   1.591   5.804   2.954 -0.5020 -0.4737 -0.1750
   25RES   C25710385   1.492   5.889   2.867  0.1993 -0.3333  0.4251
   25RES   C25810386   1.555   6.014   2.811  0.0973  0.2049  1.1280
   25RES   C25910387   1.649   5.994   2.689  0.5507 -0.8954  0.8499
   25RES   C26010388   1.716   6.127   2.654 -0.7023 -0.0297 -0.1399
   25RES   H26110389   1.709   5.532   3.001  0.3567 -3.3956 -1.4033
   25RES   H26210390   1.557   5.455   3.015  0.1619 -0.3344 -0.9902
   25RES   H26310391   1.432   5.676   2.992 -0.7238 -3.3163  1.9113
   25RES   H26410392   1.687   5.779   2.909 -0.0606  0.9199 -0.0270
   25RES   H26510393   1.616   5.875   3.033  1.2690 -1.9780  0.6437
   25RES   H26610394   1.446   5.842   2.780  2.2850  0.4844 -1.1754
   25RES   H26710395   1.406   5.916   2.928 -0.6364  1.2696 -1.4079
   25RES   H26810396   1.615   6.061   2.889  1.2439 -0.9030  0.9307
   25RES   H26910397   1.481   6.086   2.775  0.2293  0.1264  0.6947
   25RES   H27010398   1.732   5.930   2.718 -0.2634 -2.2035  0.3906
   25RES   H27110399   1.607   5.954   2.596 -0.0754  1.7598 -0.0501
   25RES   H27210400   1.656   6.193   2.592  2.7525  2.2312 -1.2301
   25RES   H27310401   1.748   6.187   2.739  1.5211  0.0276 -0.9949
   25RES   H27410402   1.810   6.116   2.599 -0.9773 -0.4259 -0.5308
   25RES   C27510403   1.541   5.684   3.180  0.5437  0.3243  0.6227
   25RES   C27610404   1.448   5.577   3.246  0.2114  0.0269 -0.1897
   25RES   C27710405   1.302   5.607   3.213  0.0760  0.9331 -0.0845
   25RES   C27810406   1.259   5.753   3.224 -0.4574  0.6952 -0.5403
   25RES   C27910407   1.108   5.763   3.178 -0.3605 -0.7999  0.5010
   25RES   C28010408   0.996   5.724   3.285 -0.2120 -0.6559  0.2732
   25RES   C28110409   0.850   5.723   3.242 -0.1595 -0.2276  0.2071
   25RES   H28210410   1.513   5.783   3.214 -0.6311 -0.1398  1.0231
   25RES   H28310411   1.644   5.680   3.216  1.6098  3.9571 -1.7644
   25RES   H28410412   1.477   5.476   3.217 -1.4734 -0.1214 -1.4103
   25RES   H28510413   1.280   5.569   3.114 -0.7227  0.0474  0.4227
   25RES   H28610414   1.237   5.534   3.262  2.9821 -2.3280 -0.9069
   25RES   H28710415   1.325   5.826   3.176  0.9325 -0.2598 -0.1117
   25RES   H28810416   1.262   5.780   3.330  1.0712 -2.1261  0.1793
   25RES   H28910417   1.090   5.707   3.087 -0.2495 -0.5074  0.2975
   25RES   H29010418   1.091   5.867   3.148  1.9023 -0.6558 -0.3626
   25RES   H29110419   1.022   5.622   3.314 -1.6502 -1.0634  0.1828
   25RES   H29210420   0.993   5.776   3.380 -1.7589 -1.9187  0.9437
   25RES   H29310421   0.791   5.672   3.317 -0.3084 -1.3204 -0.6359
   25RES   H29410422   0.832   5.676   3.145 -0.6120  2.7527 -1.2098
   25RES   H29510423   0.817   5.825   3.222  0.1050  0.1058  1.4146
   25RES   C29610424   1.464   5.594   3.403  0.2697 -0.2372  0.1729
   25RES   C29710425   1.603   5.545   3.464  0.4147 -0.6689 -0.0420
   25RES   C29810426   1.607   5.395   3.483 -0.0687  0.3114 -0.1820
   25RES   C29910427   1.741   5.330   3.450 -0.5747  0.2281  0.3753
   25RES   C30010428   1.742   5.188   3.501 -0.3226  0.5532  0.3197
   25RES   C30110429   1.830   5.083   3.439 -0.2606  0.0140 -0.4324
   25RES   C30210430   1.970   5.082   3.494 -0.2343 -0.6614  0.1387
   25RES   H30310431   1.455   5.699   3.430 -1.1746 -0.1542 -0.6017
   25RES   H30410432   1.384   5.541   3.453  0.8792  0.8333  2.3390
   25RES   H30510433   1.685   5.574   3.398 -0.4104  1.2261 -0.2935
   25RES   H30610434   1.567   5.370   3.582 -1.0201 -2.4314 -1.1896
   25RES   H30710435   1.532   5.360   3.412 -0.8705  0.6896  0.4611
   25RES   H30810436   1.825   5.374   3.505  1.0184 -1.7078 -0.4618
   25RES   H30910437   1.774   5.343   3.347 -0.9363 -0.7920  0.1308
   25RES   H31010438   1.636   5.164   3.496 -0.6151  2.0763 -1.2981
   25RES   H31110439   1.769   5.197   3.606 -0.6590  1.9525  0.2919
   25RES   H31210440   1.797   4.980   3.453 -0.4726  0.2242  0.5952
   25RES   H31310441   1.843   5.092   3.331  1.9085  0.8253 -0.1328
   25RES   H31410442   1.989   5.098   3.600 -0.9909  0.7120  0.0735
   25RES   H31510443   2.001   4.980   3.469 -0.8356 -1.5129  2.7065
   25RES   H31610444   2.028   5.154   3.436 -0.5426 -1.5894 -1.3734
   25RES   C31710445   1.642   5.616   3.595 -0.5031  0.7907  0.6129
   25RES   C31810446   1.673   5.772   3.585  0.1826  0.2928 -0.0353
   25RES   C31910447   1.633   5.842   3.717  0.1793 -0.9697  0.3905
   25RES   C32010448   1.482   5.873   3.717  0.2908 -0.0718 -0.0907
   25RES   C32110449   1.435   5.910   3.853  0.1831  0.4924  0.0057
   25RES   C32210450   1.302   5.987   3.850  0.1780 -0.0718 -0.1202
   25RES   C32310451   1.261   6.024   4.000 -0.4890 -0.5807 -0.5567
   25RES   H32410452   1.730   5.565   3.635 -0.3663  0.2442 -0.3674
   25RES   H32510453   1.566   5.588   3.668  0.4878 -0.6667  1.1123
   25RES   H32610454   1.616   5.823   3.508 -0.4396  1.2696  1.0584
   25RES   H32710455   1.689   5.934   3.734 -0.7717  0.0799 -1.9491
   25RES   H32810456   1.654   5.787   3.809 -1.5252  2.4284  2.9592
   25RES   H32910457   1.424   5.786   3.686 -0.5776  0.3571  0.3172
   25RES   H33010458   1.448   5.958   3.658 -1.2553  0.6917  1.8535
   25RES   H33110459   1.503   5.981   3.900 -0.0490  1.0683 -0.5234
   25RES   H33210460   1.432   5.821   3.916 -1.5638  0.6179  0.1078
   25RES   H33310461   1.221   5.924   3.812 -0.7297  2.1625 -1.9824
   25RES   H33410462   1.301   6.078   3.790  0.3311 -1.0360 -1.5997
   25RES   H33510463   1.277   5.940   4.067 -0.9011  0.0871  0.3942
   25RES   H33610464   1.157   6.052   4.012  0.3286  1.3396  2.7797
   25RES   H33710465   1.310   6.117   4.031 -0.1088 -0.2724 -2.0249
   25RES   C33810466   1.829   5.782   3.568 -0.0628 -0.1753  0.2219
   25RES   C33910467   1.877   5.882   3.464  0.2080  0.0849 -0.7027
   25RES   C34010468   1.997   5.813   3.398  0.3920  0.6759 -0.4360
   25RES   C34110469   1.968   5.708   3.280  0.5019 -0.2207 -0.6567
   25RES   C34210470   1.892   5.763   3.146  0.8778 -0.8394 -0.4099
   25RES   C34310471   1.981   5.877   3.085 -0.6538 -0.1698 -0.2648
   25RES   C34410472   1.936   5.900   2.942  0.3498  0.2747  0.2039
   25RES   H34510473   1.877   5.685   3.552 -1.1953 -0.6142 -0.6237
   25RES   H34610474   1.887   5.803   3.658 -0.4934 -2.3153  1.0243
   25RES   H34710475   1.802   5.893   3.386 -0.9109  1.5548  0.5556
   25RES   H34810476   2.069   5.891   3.370 -0.8711  1.5415 -1.2963
   25RES   H34910477   2.056   5.771   3.480  0.1253  1.2706  0.0699
   25RES   H35010478   1.912   5.630   3.331  0.4784  0.7943  0.9239
   25RES   H35110479   2.063   5.667   3.245 -0.8554 -1.8516 -2.5145
   25RES   H35210480   1.848   5.695   3.074 -0.6530  1.3791 -1.6460
   25RES   H35310481   1.799   5.816   3.170  1.3250 -0.6195  0.9126
   25RES   H35410482   1.975   5.970   3.143  0.2139  0.2614 -0.8478
   25RES   H35510483   2.085   5.844   3.090  0.0341  2.0943  1.3765
   25RES   H35610484   1.835   5.939   2.953  1.2260  2.1256  2.0906
   25RES   H35710485   1.929   5.805   2.889 -1.0248 -0.0283  0.8921
   25RES   H35810486   2.002   5.964   2.884 -0.3907 -0.9226 -2.0035
   25RES   C35910487   1.919   6.025   3.512 -0.3396  0.8985 -0.0592
   25RES   C36010488   1.795   6.119   3.523 -0.3038  0.4844 -0.3858
   25RES   C36110489   1.795   6.198   3.651 -0.2761  0.1655 -0.6948
   25RES   C36210490   1.658   6.266   3.693 -0.1994 -0.4105  0.0784
   25RES   C36310491   1.652   6.306   3.842  0.0282  0.1699 -0.4784
   25RES   C36410492   1.507   6.346   3.878 -0.5849 -0.0489  0.0639
   25RES   C36510493   1.479   6.489   3.840  0.8062  0.0248 -0.0658
   25RES   H36610494   1.983   6.070   3.437 -0.6525 -0.0048 -0.8792
   25RES   H36710495   1.970   6.029   3.609 -0.6624  2.5387  0.0551
   25RES   H36810496   1.705   6.057   3.524  1.9585 -2.9944 -1.7454
   25RES   H36910497   1.801   6.124   3.731  1.1478 -0.8215 -1.6893
   25RES   H37010498   1.872   6.274   3.643  0.2536 -0.3452 -0.4542
   25RES   H37110499   1.637   6.352   3.630 -2.9961 -1.0809  0.0080
   25RES   H37210500   1.576   6.196   3.674 -0.2543 -0.1381 -0.7064
   25RES   H37310501   1.679   6.226   3.911  0.5047 -0.8439 -1.8117
   25RES   H37410502   1.722   6.385   3.865  0.6963 -0.1070 -1.5162
   25RES   H37510503   1.430   6.282   3.836  0.5655 -1.2866 -0.2080
   25RES   H37610504   1.493   6.342   3.986 -0.3456  0.2870  0.1078
   25RES   H37710505   1.373   6.513   3.849  0.2701 -2.5749  1.0270
   25RES   H37810506   1.523   6.559   3.910  0.2237  0.9627 -0.6215
   25RES   H37910507   1.498   6.517   3.736 -4.2921  0.8968 -0.9029
   25RES   C38010508   1.790   6.210   3.400 -0.0794 -0.4961  0.3334
   25RES   C38110509   1.737   6.157   3.260 -0.6046 -0.1601  0.2797
   25RES   C38210510   1.602   6.088   3.268  1.0445  0.2275  0.6141
   25RES   C38310511   1.485   6.179   3.311  0.0004  0.0619 -0.6266
   25RES   C38410512   1.357   6.103   3.328  0.4629 -0.5346 -0.3153
   25RES   C38510513   1.221   6.184   3.344  0.2824 -0.0761  0.1279
   25RES   C38610514   1.218   6.285   3.458  0.1640 -0.5288  0.5945
   25RES   H38710515   1.728   6.296   3.425  0.0794 -0.1097 -0.5533
   25RES   H38810516   1.890   6.253   3.391 -0.5775  0.8133  0.9699
   25RES   H38910517   1.806   6.079   3.228 -0.8052  0.5871 -2.0589
   25RES   H39010518   1.611   5.997   3.328 -1.0439 -0.6977 -0.3880
   25RES   H39110519   1.586   6.037   3.173  0.1392 -1.8536  1.8458
   25RES   H39210520   1.514   6.236   3.399 -1.5730 -0.8874  0.5217
   25RES   H39310521   1.463   6.260   3.241  2.8650  0.0671 -1.5670
   25RES   H39410522   1.355   6.026   3.251  1.2776  0.5196 -1.4219
   25RES   H39510523   1.355   6.054   3.425  0.7624  0.1959  0.0648
   25RES   H39610524   1.131   6.123   3.348 -0.7223  1.3857  0.2955
   25RES   H39710525   1.223   6.248   3.256  1.1434 -2.1221 -1.3939
   25RES   H39810526   1.230   6.246   3.559 -2.9323  0.5014  1.4104
   25RES   H39910527   1.121   6.335   3.461 -0.5312 -1.8583  0.3172
   25RES   H40010528   1.290   6.367   3.458 -0.3754 -0.0257 -1.6102
   25RES   C40110529   1.737   6.260   3.145  0.1428  0.2583  0.2753
   25RES   C40210530   1.858   6.356   3.144 -0.0577  0.2651  0.3532
   25RES   C40310531   1.843   6.457   3.022  1.0706 -0.1128  0.1797
   25RES   C40410532   1.958   6.556   3.003  0.0708  0.3987 -1.4938
   25RES   C40510533   1.965   6.670   3.115 -0.6157 -0.2224  0.4130
   25RES   C40610534   2.055   6.792   3.080 -0.3345 -0.0810  0.8899
   25RES   C40710535   2.043   6.906   3.183  0.6577 -0.1380  0.0172
   25RES   H40810536   1.653   6.330   3.139  1.4028  1.9426  1.5743
   25RES   H40910537   1.728   6.212   3.048  1.6500 -1.1122  0.7960
   25RES   H41010538   1.951   6.301   3.130  0.2506  0.5020  1.4664
   25RES   H41110539   1.748   6.503   3.049  1.6572  1.3930 -0.3015
   25RES   H41210540   1.826   6.395   2.934  0.2225 -0.0329  0.2847
   25RES   H41310541   1.952   6.604   2.905 -1.8858 -2.2929 -2.7656
   25RES   H41410542   2.047   6.497   2.987  0.8566  0.6228  1.6374
   25RES   H41510543   1.866   6.715   3.128 -0.7956 -0.6043  0.3667
   25RES   H41610544   1.995   6.624   3.208  0.8999 -1.3293 -0.6032
   25RES   H41710545   2.158   6.759   3.075 -0.9399 -1.8990  0.1004
   25RES   H41810546   2.028   6.838   2.985  1.7268  0.8842  0.7559
   25RES   H41910547   2.079   6.875   3.281 -0.8104  1.5226  1.1360
   25RES   H42010548   1.943   6.946   3.201  0.9130 -0.4186  2.2488
   25RES   H42110549   2.108   6.989   3.156 -0.4578  1.1392  1.1131
   25RES   H42210550   1.863   6.403   3.242 -1.3246  0.0214  0.5412
   26RES     C110551   1.312   0.374   3.655 -0.1729 -0.3468 -0.0030
   26RES     C210552   1.389   0.373   3.523  0.0960  0.2629 -0.0667
   26RES     C310553   1.500   0.267   3.502 -0.0692  1.1554 -0.5601
   26RES     C410554   1.448   0.121   3.473 -0.1307 -0.1800 -0.0964
   26RES     C510555   1.381   0.102   3.338 -0.7038 -0.1789 -0.0676
   26RES     C610556   1.320   7.685   3.317  0.1061 -0.3322 -0.3542
   26RES     C710557   1.268   7.666   3.172 -0.7169  0.0909 -0.8220
   26RES     H810558   1.254   0.464   3.676  0.8053 -0.2380  2.4783
   26RES     H910559   1.389   0.370   3.732  3.0090  0.0320 -3.0761
   26RES    H1010560   1.317   0.351   3.443  0.4078  1.1727 -0.6029
   26RES    H1110561   1.563   0.282   3.415  0.7259 -0.9149 -0.3739
   26RES    H1210562   1.564   0.281   3.590  1.1456 -0.0101 -1.2364
   26RES    H1310563   1.523   0.042   3.471 -0.1477 -0.2415  1.1372
   26RES    H1410564   1.375   0.099   3.551  0.6532 -0.0303  0.6935
   26RES    H1510565   1.451   0.131   3.259 -0.3150  1.9797  1.0207
   26RES    H1610566   1.298   0.170   3.317  0.1568  0.3205 -1.9515
   26RES    H1710567   1.238   7.672   3.387 -2.5317 -0.4126 -3.3145
   26RES    H1810568   1.386   7.600   3.336  2.1697  1.3884  0.4397
   26RES    H1910569   1.222   0.030   3.133  0.6924  1.1988  0.0434
   26RES    H2010570   1.198   7.582   3.173  0.5098 -0.9709 -1.7640
   26RES    H2110571   1.357   7.649   3.111 -0.1511  0.6362 -0.1597
   26RES    H2210572   1.239   0.294   3.659  0.7980 -1.2298  0.0459
   26RES    C2310573   1.454   0.509   3.502 -0.1723  0.3351 -0.5726
   26RES    C2410574   1.356   0.605   3.431 -0.5285  0.5739 -0.0577
   26RES    C2510575   1.397   0.625   3.282 -0.0352  0.0924 -0.5130
   26RES    C2610576   1.399   0.492   3.198  0.7503  0.1166 -0.7410
   26RES    C2710577   1.422   0.515   3.049  0.4722 -0.6711 -0.4167
   26RES    C2810578   1.294   0.554   2.974  0.7844 -0.2518 -0.0121
   26RES    C2910579   1.299   0.507   2.826  0.4552 -0.0072  0.4017
   26RES    H3010580   1.483   0.540   3.603 -0.1531 -3.3102  0.5974
   26RES    H3110581   1.554   0.521   3.460 -0.2578  0.4364 -0.7476
   26RES    H3210582   1.261   0.553   3.440  0.9910 -2.2851  0.0169
   26RES    H3310583   1.498   0.667   3.279  1.1785 -2.6221  0.2141
   26RES    H3410584   1.331   0.701   3.241  0.8807  1.3062  0.2173
   26RES    H3510585   1.301   0.447   3.215  0.3203  1.7523  1.3426
   26RES    H3610586   1.465   0.413   3.234 -0.0224 -0.7893 -1.2551
   26RES    H3710587   1.457   0.419   3.010  1.1288  0.2074 -2.0532
   26RES    H3810588   1.507   0.579   3.025  1.6380 -1.0712  2.5154
   26RES    H3910589   1.272   0.660   2.980 -0.6177 -0.5746  0.6982
   26RES    H4010590   1.207   0.509   3.022 -1.8855  0.1901 -4.1202
   26RES    H4110591   1.295   0.399   2.819  0.8770 -0.1053  1.6146
   26RES    H4210592   1.209   0.549   2.780 -0.3515 -0.1795  1.8017
   26RES    H4310593   1.387   0.545   2.774  1.0681  0.9157  2.0759
   26RES    C4410594   1.342   0.726   3.523 -0.2467 -0.1205 -0.2442
   26RES    C4510595   1.230   0.824   3.477 -0.4253 -0.7912 -0.0777
   26RES    C4610596   1.087   0.757   3.479  0.1373 -0.3500  0.4916
   26RES    C4710597   1.035   0.702   3.614  0.6294  0.2015  0.2875
   26RES    C4810598   0.888   0.658   3.618 -0.3247 -0.0745  0.0101
   26RES    C4910599   0.854   0.570   3.742  0.0585 -0.7684 -0.0210
   26RES    C5010600   0.707   0.518   3.733  0.0693 -0.4334  0.3636
   26RES    H5110601   1.438   0.775   3.505 -0.0360 -0.5370 -0.2619
   26RES    H5210602   1.347   0.701   3.629 -1.9149  0.4544 -0.0196
   26RES    H5310603   1.263   0.852   3.377 -0.2679 -0.0109  0.1920
   26RES    H5410604   1.083   0.672   3.411 -1.8565  0.5877 -0.6110
   26RES    H5510605   1.013   0.831   3.450  1.1450  1.0338  1.3843
   26RES    H5610606   1.095   0.615   3.640 -0.0546 -1.3779 -3.0507
   26RES    H5710607   1.059   0.767   3.698  0.7756  0.4260  0.0746
   26RES    H5810608   0.864   0.597   3.531 -2.2563 -1.0050  1.1729
   26RES    H5910609   0.827   0.746   3.601 -0.5908 -0.3162 -0.2924
   26RES    H6010610   0.871   0.628   3.832 -0.4989 -0.7258  0.0591
   26RES    H6110611   0.920   0.483   3.741  0.8823 -0.1599  1.3218
   26RES    H6210612   0.686   0.436   3.801  0.7701 -1.3295 -0.4844
   26RES    H6310613   0.676   0.492   3.632  0.4296 -0.1268  0.1718
   26RES    H6410614   0.642   0.602   3.759  0.6434  0.2423 -0.3769
   26RES    C6510615   1.233   0.959   3.560  0.1781  0.3755  0.1691
   26RES    C6610616   1.345   1.059   3.535 -0.3242  0.5732  0.2704
   26RES    C6710617   1.354   1.164   3.649 -0.3399  0.4855 -0.1577
   26RES    C6810618   1.249   1.277   3.645 -0.0700  0.4508  0.0579
   26RES    C6910619   1.291   1.374   3.753  0.3296 -1.0680 -0.5228
   26RES    C7010620   1.202   1.503   3.738  0.6140  0.0208 -0.3100
   26RES    C7110621   1.213   1.582   3.602 -0.9538  0.1526 -0.0971
   26RES    H7210622   1.136   1.008   3.550 -0.6233 -1.3568 -0.7310
   26RES    H7310623   1.233   0.932   3.665  0.5365  1.8236  0.5504
   26RES    H7410624   1.435   0.999   3.552  0.2727  1.2211 -0.5735
   26RES    H7510625   1.356   1.118   3.747 -0.0875 -0.0693 -0.4225
   26RES    H7610626   1.454   1.208   3.640  0.7042 -1.7083  0.4508
   26RES    H7710627   1.248   1.327   3.548  1.8871  1.5308  0.5657
   26RES    H7810628   1.149   1.238   3.663 -0.5468  0.8073 -1.7284
   26RES    H7910629   1.274   1.329   3.851 -3.9618  0.2200 -0.5858
   26RES    H8010630   1.397   1.399   3.747  0.4477 -1.4854 -0.2094
   26RES    H8110631   1.211   1.563   3.828  1.2638 -0.6903  0.1030
   26RES    H8210632   1.096   1.483   3.751  0.3215  0.5086 -1.8304
   26RES    H8310633   1.320   1.594   3.583 -0.9906 -1.1579 -1.2793
   26RES    H8410634   1.174   1.527   3.516  0.9585 -2.4095  0.5828
   26RES    H8510635   1.168   1.680   3.612  0.6242  0.8766  0.0820
   26RES    C8610636   1.339   1.115   3.390 -0.2464 -0.0687 -0.4919
   26RES    C8710637   1.467   1.183   3.347  0.0919  0.3935 -0.3786
   26RES    C8810638   1.604   1.107   3.359  0.4447 -0.7964 -0.4237
   26RES    C8910639   1.614   0.977   3.276  0.3087 -0.1071 -0.2900
   26RES    C9010640   1.758   0.920   3.255  0.3589 -0.3175  0.9413
   26RES    C9110641   1.803   0.798   3.334 -0.5475  0.3240 -0.2926
   26RES    C9210642   1.800   0.819   3.490 -0.2464 -0.7041  0.4158
   26RES    H9310643   1.332   1.033   3.318 -0.5249 -0.2855 -0.2221
   26RES    H9410644   1.254   1.176   3.360  0.8402  0.7890 -1.8655
   26RES    H9510645   1.484   1.266   3.416  0.7232 -0.2385  0.2400
   26RES    H9610646   1.688   1.161   3.317  0.4402  0.1302  0.7146
   26RES    H9710647   1.621   1.095   3.466  1.1599  2.2229 -0.1531
   26RES    H9810648   1.542   0.898   3.298  0.4173 -0.2864 -0.5764
   26RES    H9910649   1.607   1.013   3.173  1.3350  1.2396  0.0950
   26RES   H10010650   1.834   0.997   3.268  0.7869 -0.5932  0.1069
   26RES   H10110651   1.765   0.892   3.150 -1.5384  1.1065  0.4033
   26RES   H10210652   1.739   0.716   3.301  0.4637  0.0032 -1.4839
   26RES   H10310653   1.903   0.768   3.302 -1.6974  0.1120 -3.8475
   26RES   H10410654   1.843   0.727   3.530 -0.9728 -1.6151 -0.8511
   26RES   H10510655   1.699   0.817   3.532  0.7569 -4.0825  2.8918
   26RES   H10610656   1.853   0.901   3.539 -0.2010 -1.0701  0.9858
   26RES   C10710657   1.447   1.229   3.205 -0.2621  0.4330 -0.2412
   26RES   C10810658   1.358   1.356   3.186 -0.6740 -0.1581  0.4997
   26RES   C10910659   1.402   1.479   3.271  0.2646  0.0399 -0.5640
   26RES   C11010660   1.546   1.527   3.253 -0.2885  1.0873 -0.1711
   26RES   C11110661   1.572   1.634   3.363  0.1249 -0.1884  0.1294
   26RES   C11210662   1.704   1.597   3.442  0.1845 -0.1096  0.4178
   26RES   C11310663   1.681   1.505   3.565  0.0839  0.0536 -0.6837
   26RES   H11410664   1.413   1.150   3.138 -0.8713 -0.1042  0.6880
   26RES   H11510665   1.547   1.251   3.166 -0.0275 -1.9565 -1.0536
   26RES   H11610666   1.252   1.338   3.202 -1.1811  2.2841  0.1016
   26RES   H11710667   1.397   1.450   3.376 -0.7906  0.1679 -0.5746
   26RES   H11810668   1.337   1.567   3.266 -2.2823 -1.7692 -0.5357
   26RES   H11910669   1.609   1.439   3.262 -1.3270  0.3222 -0.3365
   26RES   H12010670   1.566   1.570   3.155 -0.0369  0.0361 -0.5822
   26RES   H12110671   1.488   1.663   3.427 -0.6543 -1.9644 -0.0562
   26RES   H12210672   1.580   1.732   3.316  2.2298 -0.2237  0.3874
   26RES   H12310673   1.778   1.558   3.372  1.0416 -0.3667  1.4403
   26RES   H12410674   1.733   1.699   3.470  0.5321 -0.0175 -0.2688
   26RES   H12510675   1.781   1.478   3.600 -0.7407 -1.3965  0.6371
   26RES   H12610676   1.618   1.551   3.641 -0.4118 -0.2115 -0.9323
   26RES   H12710677   1.640   1.406   3.545 -0.6080  0.6353 -2.2188
   26RES   C12810678   1.366   1.405   3.037 -0.3420  0.4219 -0.1542
   26RES   C12910679   1.288   1.307   2.941  0.5141 -0.3274  0.8149
   26RES   C13010680   1.370   1.300   2.813 -0.0330  0.3678  0.0285
   26RES   C13110681   1.488   1.198   2.816  0.5027 -0.4423  0.6404
   26RES   C13210682   1.451   1.051   2.823 -0.0263 -0.5018 -0.2481
   26RES   C13310683   1.589   0.975   2.805  0.4738 -0.1092 -1.4361
   26RES   C13410684   1.572   0.829   2.868 -0.4798 -0.0809 -0.1957
   26RES   H13510685   1.332   1.508   3.038  0.6090  0.7382  0.0594
   26RES   H13610686   1.469   1.420   3.004 -1.0975  4.4158 -0.8221
   26RES   H13710687   1.274   1.206   2.981 -1.2801 -1.4241 -2.3987
   26RES   H13810688   1.402   1.401   2.786 -0.8470  0.4324 -0.7195
   26RES   H13910689   1.296   1.264   2.741 -2.6166  0.0139  2.7104
   26RES   H14010690   1.548   1.228   2.901  1.0700 -1.4657  0.6092
   26RES   H14110691   1.550   1.208   2.727  1.1801  0.7836  1.2426
   26RES   H14210692   1.375   1.026   2.749 -0.4082 -0.1830  0.0398
   26RES   H14310693   1.403   1.030   2.919 -0.1137 -1.3772 -0.4813
   26RES   H14410694   1.670   1.031   2.851  0.2877 -0.4831 -0.6420
   26RES   H14510695   1.613   0.976   2.699 -0.7646  1.0836 -1.7160
   26RES   H14610696   1.503   0.777   2.803 -2.6296  0.9541  1.2103
   26RES   H14710697   1.538   0.826   2.971  1.3052  2.0589  0.5108
   26RES   H14810698   1.667   0.775   2.867  0.3841  1.3756  0.3330
   26RES   C14910699   1.148   1.371   2.921 -0.5162  0.2612 -0.2345
   26RES   C15010700   1.038   1.265   2.903 -0.7661 -0.2849 -0.7637
   26RES   C15110701   0.913   1.313   2.829  0.3216  0.3640  0.1962
   26RES   C15210702   0.934   1.318   2.676 -0.5180  0.2433 -0.5131
   26RES   C15310703   0.818   1.366   2.584  0.3608  0.3467  0.0965
   26RES   C15410704   0.863   1.380   2.442 -0.8723 -0.4068  0.5465
   26RES   C15510705   0.945   1.510   2.419  0.0851  0.1578 -0.0317
   26RES   H15610706   1.128   1.452   2.992  1.0034  0.8920 -0.5153
   26RES   H15710707   1.154   1.416   2.822  0.9485  0.5153 -0.0432
   26RES   H15810708   1.086   1.185   2.847  2.0127  1.1279 -0.4476
   26RES   H15910709   0.841   1.234   2.848  0.0927  0.2125 -1.2598
   26RES   H16010710   0.872   1.411   2.853 -1.1824 -0.5425  1.4522
   26RES   H16110711   0.969   1.222   2.638 -1.3646  0.5450 -2.1294
   26RES   H16210712   1.018   1.387   2.677 -1.9061  1.9989 -0.5527
   26RES   H16310713   0.785   1.463   2.622  0.5189  0.6486 -0.5361
   26RES   H16410714   0.736   1.294   2.581 -0.0173  0.7605  0.3791
   26RES   H16510715   0.777   1.374   2.375  0.3177  1.0298 -1.1620
   26RES   H16610716   0.922   1.293   2.413 -0.2328  0.0617  0.4246
   26RES   H16710717   0.881   1.598   2.429 -2.1194 -1.5702  1.2828
   26RES   H16810718   0.977   1.513   2.315 -2.1625  0.2160 -0.7527
   26RES   H16910719   1.036   1.520   2.478  0.9097 -0.9339 -1.1052
   26RES   C17010720   0.982   1.211   3.036  1.0277 -0.8120 -0.5120
   26RES   C17110721   0.934   1.068   3.043 -0.2152  0.0980  0.7234
   26RES   C17210722   1.056   0.973   3.073 -0.3283 -0.9755 -0.2368
   26RES   C17310723   1.027   0.844   3.149 -0.1427 -0.4099 -1.1988
   26RES   C17410724   0.954   0.739   3.063  0.2218  0.7489 -0.2380
   26RES   C17510725   0.905   0.618   3.140 -0.0466 -1.5343  0.4425
   26RES   C17610726   0.784   0.636   3.236  0.2162 -0.7757  0.2905
   26RES   H17710727   0.905   1.276   3.079  2.0457  0.3676 -0.4306
   26RES   H17810728   1.058   1.221   3.114  0.7896 -1.5807 -0.1762
   26RES   H17910729   0.905   1.037   2.942  0.4363  2.1643 -0.1315
   26RES   H18010730   1.126   1.033   3.131 -0.9220  1.6213 -2.1524
   26RES   H18110731   1.115   0.959   2.982  0.2948 -1.4237  0.2289
   26RES   H18210732   0.974   0.879   3.238  0.3053 -1.3290 -0.5584
   26RES   H18310733   1.114   0.797   3.196 -1.6435  0.2551  2.3836
   26RES   H18410734   1.030   0.705   2.992 -0.5720  1.6866 -1.5541
   26RES   H18510735   0.873   0.777   3.001 -0.6867 -2.1667 -0.9226
   26RES   H18610736   0.987   0.587   3.204  0.7280 -0.8130 -0.1940
   26RES   H18710737   0.885   0.537   3.070  1.3109  1.0993 -3.1146
   26RES   H18810738   0.808   0.722   3.299 -0.2180  0.3455 -1.0341
   26RES   H18910739   0.758   0.543   3.287 -0.3086 -0.0516  1.3804
   26RES   H19010740   0.698   0.670   3.177  1.0262 -0.5503 -0.7717
   26RES   C19110741   0.805   1.048   3.126  0.4205 -0.6147  0.3538
   26RES   C19210742   0.671   1.117   3.076 -0.8075 -0.5536 -0.3094
   26RES   C19310743   0.606   1.030   2.966 -1.2616 -0.5109  0.3012
   26RES   C19410744   0.510   1.110   2.877  0.1986  0.4274  0.1176
   26RES   C19510745   0.455   1.015   2.769  0.2762  0.4730  0.3557
   26RES   C19610746   0.352   1.085   2.668 -0.3012  0.4875 -0.4905
   26RES   C19710747   0.287   0.982   2.571  0.4278 -0.1249 -0.6245
   26RES   H19810748   0.838   1.068   3.228  1.8591 -2.7370  0.3348
   26RES   H19910749   0.783   0.941   3.118  0.1380 -0.4528 -1.1513
   26RES   H20010750   0.705   1.212   3.035  0.6578 -0.8095  0.2816
   26RES   H20110751   0.555   0.942   3.006 -1.5396  0.8958  3.1439
   26RES   H20210752   0.690   1.000   2.903 -1.4614 -1.8510  0.6391
   26RES   H20310753   0.556   1.202   2.843 -1.7204  1.5765  0.6007
   26RES   H20410754   0.422   1.145   2.930 -1.4048 -0.2421 -2.0285
   26RES   H20510755   0.530   0.966   2.707  0.2399  1.1201 -0.2127
   26RES   H20610756   0.403   0.934   2.819 -1.5758  1.1284 -0.4672
   26RES   H20710757   0.412   1.153   2.608 -0.4359 -1.2999 -2.7209
   26RES   H20810758   0.289   1.154   2.724 -1.5461  0.7310 -2.1549
   26RES   H20910759   0.353   0.905   2.532 -0.0556 -1.0381  0.3444
   26RES   H21010760   0.215   1.025   2.501  0.2051 -0.3388 -0.5282
   26RES   H21110761   0.224   0.928   2.642  1.2076 -0.1845  0.0192
   26RES   C21210762   0.566   1.125   3.190 -0.3217  0.8175  0.4594
   26RES   C21310763   0.605   1.235   3.287  0.4126  0.0234 -0.0281
   26RES   C21410764   0.572   1.378   3.240  0.4544  0.1289  0.2750
   26RES   C21510765   0.426   1.399   3.172  0.1211 -0.0326  0.4117
   26RES   C21610766   0.411   1.540   3.111  0.3026 -0.1193 -0.6499
   26RES   C21710767   0.443   1.555   2.970 -0.1499  0.2459  0.1796
   26RES   C21810768   0.418   1.701   2.925  0.5143 -0.4385  1.1224
   26RES   H21910769   0.568   1.032   3.248  0.3672  1.0007  0.7331
   26RES   H22010770   0.465   1.136   3.152 -0.0719 -0.4823 -0.6122
   26RES   H22110771   0.709   1.229   3.318  0.3371  2.2255  0.7750
   26RES   H22210772   0.567   1.439   3.330  0.4081  0.6424 -0.0748
   26RES   H22310773   0.653   1.414   3.176 -0.0233 -0.0779 -0.4540
   26RES   H22410774   0.350   1.393   3.250 -1.9673  0.4095 -1.5243
   26RES   H22510775   0.398   1.324   3.099 -2.3651  0.6290  0.6197
   26RES   H22610776   0.308   1.577   3.113  0.5707  0.6899 -1.7787
   26RES   H22710777   0.462   1.612   3.175  0.4125 -0.7118 -0.0637
   26RES   H22810778   0.543   1.519   2.948  0.7091  1.8427  1.3273
   26RES   H22910779   0.379   1.491   2.910  1.7013 -0.3068 -1.2629
   26RES   H23010780   0.324   1.739   2.965  0.1291  0.2226 -0.3872
   26RES   H23110781   0.429   1.718   2.818 -0.1678 -1.9149  0.8130
   26RES   H23210782   0.494   1.763   2.974  1.2146 -0.3832 -0.0329
   26RES   C23310783   0.522   1.216   3.414 -0.0231  0.3347  0.4440
   26RES   C23410784   0.561   1.105   3.518  0.3219  0.6276 -0.1972
   26RES   C23510785   0.713   1.125   3.569  0.6005  0.3575 -0.1032
   26RES   C23610786   0.747   1.269   3.624  0.6295 -0.0063  0.1101
   26RES   C23710787   0.674   1.335   3.740  0.0980  0.3965 -1.1816
   26RES   C23810788   0.741   1.472   3.779  0.9272 -0.6630  0.3243
   26RES   C23910789   0.853   1.468   3.886  0.3841  0.0115 -0.2521
   26RES   H24010790   0.422   1.192   3.379 -0.1837  2.2651 -0.4319
   26RES   H24110791   0.492   1.311   3.458 -0.8006  1.2387 -1.9564
   26RES   H24210792   0.564   1.006   3.471  1.9437  1.0922 -1.0986
   26RES   H24310793   0.774   1.104   3.481  0.5969  1.2325 -0.3215
   26RES   H24410794   0.736   1.055   3.649 -0.0477  1.1072  0.7466
   26RES   H24510795   0.745   1.347   3.548  0.7741  1.2316  1.3316
   26RES   H24610796   0.851   1.270   3.656 -0.1085  1.0139  2.6219
   26RES   H24710797   0.663   1.274   3.829 -0.5810 -0.9126 -2.1435
   26RES   H24810798   0.570   1.354   3.711 -0.0819 -0.2305 -0.9524
   26RES   H24910799   0.763   1.517   3.682  1.8158  0.6471  1.1209
   26RES   H25010800   0.659   1.535   3.812  0.7191 -0.4820 -0.5294
   26RES   H25110801   0.915   1.557   3.880 -1.6983  1.6492  1.5971
   26RES   H25210802   0.802   1.455   3.982 -0.3788  1.0613 -0.5072
   26RES   H25310803   0.913   1.378   3.874  1.2157  0.5730 -0.3740
   26RES   C25410804   0.451   1.095   3.629  0.5966 -0.0687 -0.2630
   26RES   C25510805   0.462   0.983   3.733  0.5546  0.7184  0.8982
   26RES   C25610806   0.473   0.844   3.663  0.4465  0.2798  0.5030
   26RES   C25710807   0.350   0.782   3.585  0.2455 -0.7632  0.2168
   26RES   C25810808   0.378   0.654   3.502  0.4058  0.5243  0.0989
   26RES   C25910809   0.257   0.612   3.408  0.9871  0.4147  0.3757
   26RES   C26010810   0.118   0.592   3.482 -0.7085 -0.2699 -0.0998
   26RES   H26110811   0.355   1.079   3.580  1.2733 -1.8101 -1.0868
   26RES   H26210812   0.456   1.192   3.677 -0.2709  0.2198 -0.7447
   26RES   H26310813   0.561   0.996   3.777  1.8085 -0.0451 -1.5710
   26RES   H26410814   0.514   0.772   3.734  0.3380 -0.8495 -0.5656
   26RES   H26510815   0.557   0.849   3.595  0.3742 -0.4041  0.3648
   26RES   H26610816   0.270   0.772   3.658 -0.5179  1.8995 -0.1739
   26RES   H26710817   0.313   0.857   3.514  0.2336  1.1217  2.1717
   26RES   H26810818   0.411   0.564   3.554  0.1467  0.5070  0.2343
   26RES   H26910819   0.467   0.671   3.442  1.6524  1.1311  2.0935
   26RES   H27010820   0.231   0.690   3.337  0.8842  1.8044  1.9316
   26RES   H27110821   0.287   0.524   3.350  1.1911  1.3524 -0.9639
   26RES   H27210822   0.037   0.564   3.414  0.7640 -1.4256 -1.4209
   26RES   H27310823   0.125   0.519   3.562  0.8416 -0.0685 -0.0424
   26RES   H27410824   0.080   0.684   3.527  0.6601  0.2297  0.0436
   26RES   C27510825   0.347   0.991   3.840  0.0123 -0.6135 -0.2253
   26RES   C27610826   0.359   0.896   3.969 -0.2448  0.2820  0.2392
   26RES   C27710827   0.222   0.895   4.049  0.0246  0.9248  0.0864
   26RES   C27810828   0.121   0.807   3.967  0.9659  0.5711 -0.0019
   26RES   C27910829   7.724   0.771   4.049 -0.0356 -0.1764  0.4735
   26RES   C28010830   7.616   0.693   3.969 -0.1237 -0.3034 -0.5136
   26RES   C28110831   7.492   0.666   4.063  0.3930 -0.1237 -0.4283
   26RES   H28210832   0.253   0.995   3.786  0.5901 -1.0765 -1.2806
   26RES   H28310833   0.352   1.093   3.878 -0.7905 -0.3308 -0.8808
   26RES   H28410834   0.392   0.799   3.930  0.0785 -0.5345  2.4862
   26RES   H28510835   0.233   0.840   4.142 -2.6475 -0.1874 -0.2028
   26RES   H28610836   0.189   0.997   4.072 -1.0663  0.6820 -0.3705
   26RES   H28710837   0.179   0.716   3.951 -1.1406 -0.8430  0.1906
   26RES   H28810838   0.092   0.850   3.871 -2.0390  1.2159  1.1324
   26RES   H28910839   7.685   0.860   4.097 -2.3320 -0.4975 -0.7599
   26RES   H29010840   0.029   0.701   4.127  0.4360 -1.2742 -0.6769
   26RES   H29110841   7.569   0.759   3.896 -2.2921 -1.9596 -0.6986
   26RES   H29210842   7.642   0.598   3.923  1.1676 -0.4064  0.4215
   26RES   H29310843   7.393   0.656   4.019  0.4062  1.1573 -0.7636
   26RES   H29410844   7.479   0.764   4.109  0.4019 -0.9370  1.3659
   26RES   H29510845   7.513   0.596   4.144  0.8219 -1.6412 -1.8212
   26RES   C29610846   0.470   0.943   4.061 -0.9316 -0.1386 -0.2172
   26RES   C29710847   0.529   0.849   4.178  0.6138 -0.1323  0.5856
   26RES   C29810848   0.637   0.912   4.274  0.1541  0.8078  0.4034
   26RES   C29910849   0.627   1.062   4.286  0.2698  0.4061  0.3712
   26RES   C30010850   0.725   1.112   4.392 -0.3861  0.2029  0.7160
   26RES   C30110851   0.737   1.261   4.405  0.0257 -0.2723 -0.3827
   26RES   C30210852   0.811   1.293   4.540 -0.2096  0.4410  0.1982
   26RES   H30310853   0.557   0.957   3.997 -0.0441 -0.8318  0.8083
   26RES   H30410854   0.454   1.039   4.110 -1.7763 -1.0679  1.3818
   26RES   H30510855   0.445   0.830   4.246  0.6892 -0.9399  0.4658
   26RES   H30610856   0.633   0.864   4.372  0.3377 -0.9786 -0.4316
   26RES   H30710857   0.735   0.885   4.236 -1.3508 -3.4186 -0.8103
   26RES   H30810858   0.530   1.089   4.326  0.3355  0.7103  0.3237
   26RES   H30910859   0.641   1.106   4.188 -1.4627  1.1335  0.4359
   26RES   H31010860   0.823   1.064   4.397 -0.1226  0.9003  2.5101
   26RES   H31110861   0.676   1.076   4.482 -0.5613  1.1648  1.0074
   26RES   H31210862   0.789   1.295   4.316  0.9319 -0.3338  0.1173
   26RES   H31310863   0.638   1.305   4.403 -0.8417 -2.1797 -0.5657
   26RES   H31410864   0.813   1.402   4.547 -0.6155  0.5050 -0.5706
   26RES   H31510865   0.749   1.247   4.616 -2.9021  1.0918 -1.5293
   26RES   H31610866   0.912   1.252   4.546 -0.4639 -0.4545 -1.3841
   26RES   C31710867   0.577   0.712   4.127 -0.1856 -0.6707 -0.0349
   26RES   C31810868   0.566   0.595   4.220  0.4232 -0.3336  0.4429
   26RES   C31910869   0.429   0.523   4.200 -1.0103 -0.7331 -0.4055
   26RES   C32010870   0.393   0.467   4.063 -0.5054  0.9504  0.2299
   26RES   C32110871   0.270   0.369   4.069 -0.2858 -0.5730 -0.5187
   26RES   C32210872   0.248   0.304   3.933 -0.2441 -0.1306  0.2223
   26RES   C32310873   0.218   0.402   3.820  0.3620 -0.0841 -0.2581
   26RES   H32410874   0.680   0.722   4.093 -1.4552  0.6519 -3.8318
   26RES   H32510875   0.527   0.686   4.033  1.0097 -0.1097 -0.8384
   26RES   H32610876   0.560   0.626   4.324  0.1521  0.3823  0.2120
   26RES   H32710877   0.355   0.596   4.235  1.2069  1.2698  0.2431
   26RES   H32810878   0.428   0.438   4.268  0.0560  0.9209  1.7188
   26RES   H32910879   0.473   0.405   4.022 -0.9945 -0.0619  0.7732
   26RES   H33010880   0.376   0.545   3.989  2.6931 -0.2887 -1.9236
   26RES   H33110881   0.179   0.412   4.108 -0.5357 -1.8468  0.3466
   26RES   H33210882   0.299   0.283   4.130  0.4805 -0.9652 -1.4004
   26RES   H33310883   0.153   0.250   3.938 -0.3387  0.0014 -0.1098
   26RES   H33410884   0.321   0.231   3.897 -1.2763 -1.2404  0.3216
   26RES   H33510885   0.210   0.352   3.723 -2.3525  0.8647 -0.5802
   26RES   H33610886   0.275   0.494   3.812 -0.5852  0.4804 -0.5941
   26RES   H33710887   0.119   0.448   3.825  0.5230  0.0568  2.0686
   26RES   C33810888   0.687   0.496   4.209 -0.0136  0.1183 -0.5500
   26RES   C33910889   0.823   0.536   4.269 -0.4019 -0.2495 -0.3087
   26RES   C34010890   0.932   0.440   4.210  0.0218  0.4412 -0.1783
   26RES   C34110891   0.998   0.494   4.084 -0.6266  0.3945 -0.3063
   26RES   C34210892   1.130   0.411   4.043  0.1384 -0.2335 -0.4268
   26RES   C34310893   1.108   0.266   4.000  0.5310  0.4639  0.8202
   26RES   C34410894   0.997   0.248   3.897  1.2004 -0.2689  0.2952
   26RES   H34510895   0.699   0.478   4.102 -2.8068  1.5787 -1.1649
   26RES   H34610896   0.658   0.403   4.257 -1.5769  1.0778  0.4161
   26RES   H34710897   0.842   0.637   4.233  0.1417 -1.3911 -3.3363
   26RES   H34810898   1.012   0.420   4.282  1.1498  0.5063 -1.3952
   26RES   H34910899   0.892   0.340   4.193 -2.7476  1.5456 -0.3994
   26RES   H35010900   1.027   0.598   4.096  0.5120 -0.2349  2.7405
   26RES   H35110901   0.926   0.491   4.002  1.9650  0.1061 -2.6552
   26RES   H35210902   1.184   0.472   3.971 -0.6871 -0.0058 -0.8565
   26RES   H35310903   1.194   0.420   4.131 -0.7097 -0.8732  0.2732
   26RES   H35410904   1.197   0.223   3.953 -0.4231  0.0946 -0.6682
   26RES   H35510905   1.101   0.197   4.084 -3.3623 -3.0840 -2.2228
   26RES   H35610906   1.013   0.307   3.807 -2.2446  0.4104  0.0599
   26RES   H35710907   0.896   0.259   3.937  1.8905  0.8456  1.8147
   26RES   H35810908   1.005   0.142   3.873  2.6327 -0.0371 -0.2612
   26RES   C35910909   0.817   0.537   4.427 -0.1579 -0.1530 -0.5878
   26RES   C36010910   0.949   0.574   4.505  0.4648  0.1039  0.4824
   26RES   C36110911   1.001   0.714   4.475 -0.3286  0.1162 -0.5873
   26RES   C36210912   1.160   0.724   4.484 -0.5012 -0.5413 -0.9548
   26RES   C36310913   1.228   0.623   4.397  0.5478  0.4442 -0.1078
   26RES   C36410914   1.375   0.669   4.374 -0.0406 -0.2403 -0.5325
   26RES   C36510915   1.452   0.563   4.304 -0.0359  0.2323 -0.3190
   26RES   H36610916   0.775   0.446   4.470  1.6322 -0.0452  1.5352
   26RES   H36710917   0.743   0.615   4.441  0.4167  0.7484 -2.3625
   26RES   H36810918   1.024   0.503   4.472 -1.3891 -2.6259  2.0058
   26RES   H36910919   0.986   0.739   4.370  0.8582  1.9519 -0.3505
   26RES   H37010920   0.953   0.792   4.534  0.4747 -0.9700  1.5273
   26RES   H37110921   1.205   0.819   4.457  0.4022 -0.9702 -0.9616
   26RES   H37210922   1.195   0.711   4.587  0.1640 -0.6461 -1.1959
   26RES   H37310923   1.232   0.530   4.453  0.2365  0.7222  0.3817
   26RES   H37410924   1.186   0.594   4.301 -1.0705 -2.2119  1.3392
   26RES   H37510925   1.365   0.764   4.321 -0.1849  0.4818  0.7745
   26RES   H37610926   1.424   0.709   4.462  1.3007 -1.6549 -0.6054
   26RES   H37710927   1.548   0.579   4.254  0.3053 -0.0265  0.2474
   26RES   H37810928   1.479   0.482   4.371  0.0282  0.0626 -0.5511
   26RES   H37910929   1.387   0.526   4.225 -2.9020  0.4905  1.8473
   26RES   C38010930   0.938   0.556   4.660  0.8476 -0.2316  0.4579
   26RES   C38110931   0.923   0.413   4.715 -0.2053  0.1144 -0.0978
   26RES   C38210932   1.048   0.329   4.681 -0.0383  0.3985 -0.3673
   26RES   C38310933   1.181   0.354   4.749 -0.1413 -0.2974 -0.8070
   26RES   C38410934   1.275   0.234   4.728 -0.7842 -0.3951 -0.8103
   26RES   C38510935   1.235   0.117   4.822  0.2725  0.0013 -0.8886
   26RES   C38610936   1.313   7.719   4.798  0.3964 -0.0102 -0.4536
   26RES   H38710937   1.025   0.604   4.704  0.4372 -1.1308  2.2758
   26RES   H38810938   0.858   0.619   4.699  0.1089 -0.9390  0.1022
   26RES   H38910939   0.844   0.363   4.659  2.7335  0.0425 -4.4446
   26RES   H39010940   1.069   0.324   4.574 -1.2248 -1.2315 -0.5574
   26RES   H39110941   1.014   0.227   4.700 -2.1791  1.2295  0.4082
   26RES   H39210942   1.232   0.446   4.722  1.0663 -1.3228 -2.1720
   26RES   H39310943   1.167   0.354   4.857  2.5115 -0.4114 -0.4143
   26RES   H39410944   1.280   0.195   4.626  2.3267 -1.0396 -0.4693
   26RES   H39510945   1.369   0.269   4.771 -0.3056 -0.5170 -1.7481
   26RES   H39610946   1.132   0.088   4.798  0.2415  1.8545 -3.1007
   26RES   H39710947   1.232   0.148   4.926  1.0287 -1.1833 -0.5110
   26RES   H39810948   1.273   7.649   4.871  1.2176  0.3760  0.3860
   26RES   H39910949   1.420   7.721   4.818  0.2511  0.2992  0.3108
   26RES   H40010950   1.295   7.682   4.697  0.9465  1.1484 -0.9896
   26RES   C40110951   0.895   0.420   4.866  0.5015 -0.3366  0.2758
   26RES   C40210952   0.851   0.284   4.934 -0.0583 -0.0313  0.8698
   26RES   C40310953   0.909   0.263   5.071  0.3101 -0.7015 -0.7766
   26RES   C40410954   0.913   0.127   5.119  0.9432 -0.0993 -0.1948
   26RES   C40510955   0.773   0.067   5.107  0.0253  0.2409  0.4256
   26RES   C40610956   0.745   7.686   5.208 -0.4849 -0.0181  0.5633
   26RES   C40710957   0.832   7.559   5.185  0.3492  0.1885  0.0966
   26RES   H40810958   0.815   0.494   4.876 -0.5511 -1.5237  0.7257
   26RES   H40910959   0.972   0.467   4.928 -0.3802  0.2873  0.9117
   26RES   H41010960   0.898   0.206   4.874  1.2856 -1.2967  3.4683
   26RES   H41110961   0.837   0.312   5.136 -1.0022 -3.5289 -0.0201
   26RES   H41210962   1.007   0.308   5.084  0.2444 -0.4410 -1.1729
   26RES   H41310963   0.944   0.123   5.223  2.7040  0.0271 -0.6903
   26RES   H41410964   0.984   0.070   5.059 -0.0614 -0.6993 -0.8365
   26RES   H41510965   0.689   0.133   5.128 -0.4230 -0.2521  0.2008
   26RES   H41610966   0.759   0.024   5.008 -0.8866 -1.4790  1.2833
   26RES   H41710967   0.757   7.719   5.312 -2.2226  1.6877  0.2376
   26RES   H41810968   0.644   7.644   5.204 -0.4040 -0.1678  0.1057
   26RES   H41910969   0.802   7.500   5.099 -0.7929 -0.1797  0.7286
   26RES   H42010970   0.829   7.483   5.264 -0.0190  0.3784  0.2690
   26RES   H42110971   0.938   7.583   5.176  0.2601  0.0370 -1.3961
   26RES   H42210972   0.743   0.274   4.924 -0.0981  1.0437  0.1880
   27RES     C110973   6.351   7.526   0.420 -0.5768  0.4143 -0.4549
   27RES     C210974   6.419   7.600   0.304 -0.4972  0.2579  0.6577
   27RES     C310975   6.315   7.647   0.207  0.4257  0.1691  0.0850
   27RES     C410976   6.212   0.026   0.260  0.0284  0.2211 -0.1457
   27RES     C510977   6.139   0.083   0.137  0.6350 -0.8019  0.7628
   27RES     C610978   6.015   0.164   0.175 -0.1069  0.4730  0.1616
   27RES     C710979   5.943   0.197   0.042  0.0956 -0.1250  0.3977
   27RES     H810980   6.426   7.504   0.496 -2.2584 -0.4621  0.9904
   27RES     H910981   6.293   7.437   0.394 -0.4502  0.2552 -0.1926
   27RES    H1010982   6.474   7.680   0.354 -0.6340 -0.8776  2.6951
   27RES    H1110983   6.373   7.696   0.129 -2.4034 -2.3283 -3.7521
   27RES    H1210984   6.265   7.555   0.179  0.4124  0.0688  0.4285
   27RES    H1310985   6.150   7.694   0.328  1.2130  0.9353  1.5726
   27RES    H1410986   6.266   0.101   0.318  1.1267 -0.9032  0.3016
   27RES    H1510987   6.114   0.004   0.066  1.3710 -1.6901  1.4846
   27RES    H1610988   6.204   0.147   0.078 -0.5362 -0.1454  0.1461
   27RES    H1710989   6.041   0.251   0.235 -0.2379 -0.9457  2.3430
   27RES    H1810990   5.943   0.108   0.235 -0.3202 -0.5899 -1.0687
   27RES    H1910991   6.011   0.247   7.699  1.7713 -0.6784  1.6019
   27RES    H2010992   5.863   0.266   0.069 -0.8621 -1.2925  0.5932
   27RES    H2110993   5.900   0.113   7.716  0.7031  0.3742 -0.9181
   27RES    H2210994   6.276   7.592   0.463 -1.6651 -1.2266  0.2314
   27RES    C2310995   6.523   7.500   0.247  0.4246 -0.9401  0.1572
   27RES    C2410996   6.674   7.548   0.258  0.0258  0.3651  0.1267
   27RES    C2510997   6.699   7.672   0.176 -0.1768 -0.3034  0.4886
   27RES    C2610998   6.716   7.646   0.023  0.4765  0.8271 -0.8151
   27RES    C2710999   6.692   0.036   7.657  0.6327 -0.2460  0.8671
   27RES    C2811000   6.809   0.140   7.649  0.5450  0.3065  0.6142
   27RES    C2911001   6.937   0.090   7.596  0.8937  0.6825  0.1318
   27RES    H3011002   6.510   7.397   0.281 -0.1453 -0.6758  0.7392
   27RES    H3111003   6.502   7.483   0.142 -1.2410  0.1117  0.3044
   27RES    H3211004   6.695   7.574   0.362 -0.2230 -2.2826  0.8695
   27RES    H3311005   6.786   7.724   0.216  1.9059 -1.9668 -1.7410
   27RES    H3411006   6.612   0.010   0.191  0.1934  0.1598  0.6419
   27RES    H3511007   6.655   7.557   0.004  0.2050  1.4087 -2.7312
   27RES    H3611008   6.818   7.607   0.023  0.7273  1.4779 -0.4064
   27RES    H3711009   6.606   0.093   7.689 -1.0311 -2.0716 -0.2365
   27RES    H3811010   6.683   7.713   7.560 -1.0708  2.6337 -0.5076
   27RES    H3911011   6.837   0.183   0.018  0.0547  1.3423  0.2992
   27RES    H4011012   6.782   0.234   7.600 -1.3878  0.3310  1.6944
   27RES    H4111013   6.920   0.105   7.489  0.2116 -1.9360 -0.1690
   27RES    H4211014   7.015   0.162   7.622 -0.3555  2.1567 -0.1548
   27RES    H4311015   6.950   7.710   7.616 -2.9144  0.0259 -0.4807
   27RES    C4411016   6.773   7.427   0.227 -0.0715  0.0150  0.5677
   27RES    C4511017   6.810   7.329   0.343 -0.5072  0.1056 -0.2505
   27RES    C4611018   6.878   7.197   0.301  0.0398 -0.5075 -0.2678
   27RES    C4711019   6.771   7.094   0.277  0.3964  1.3170  0.3814
   27RES    C4811020   6.839   6.969   0.210  0.5629 -0.1077 -0.3328
   27RES    C4911021   6.948   6.897   0.281  0.5198  0.3103 -0.9848
   27RES    C5011022   6.908   6.854   0.423  0.1672  0.2136  0.6575
   27RES    H5111023   6.864   7.459   0.178 -0.0097 -1.2135 -0.1444
   27RES    H5211024   6.722   7.371   0.149 -0.7065  0.0864  0.9270
   27RES    H5311025   6.716   7.319   0.398  0.3544 -2.0468  0.9367
   27RES    H5411026   6.955   7.167   0.372 -1.1092  1.1430  1.7350
   27RES    H5511027   6.930   7.222   0.208 -0.1990  3.0925  0.5082
   27RES    H5611028   6.716   7.071   0.368  1.4751 -1.2821  0.4136
   27RES    H5711029   6.697   7.125   0.203  0.1684  0.8270  0.4028
   27RES    H5811030   6.874   6.992   0.110 -1.0071 -0.9546 -1.1102
   27RES    H5911031   6.751   6.905   0.199 -0.0596  0.7653 -0.3963
   27RES    H6011032   7.041   6.952   0.292  0.6727 -0.3564  1.3890
   27RES    H6111033   6.961   6.801   0.232  0.5573 -0.3947  0.3697
   27RES    H6211034   6.860   6.933   0.482 -0.4881  1.2208 -1.1688
   27RES    H6311035   6.996   6.812   0.471  1.1106 -2.2992 -3.1097
   27RES    H6411036   6.833   6.775   0.419 -0.4017  0.8053 -0.7995
   27RES    C6511037   6.899   7.399   0.453 -0.2605  0.7493  0.1278
   27RES    C6611038   6.849   7.380   0.599  0.4078  0.5779  0.2897
   27RES    C6711039   6.813   7.233   0.631  0.4507  0.2273  0.6537
   27RES    C6811040   6.805   7.186   0.782  0.2950 -0.4845  0.2468
   27RES    C6911041   6.782   7.038   0.796 -0.2333 -0.3302  0.4204
   27RES    C7011042   6.631   6.990   0.773 -0.4049  0.2723 -0.0974
   27RES    C7111043   6.597   6.840   0.790 -0.8612  0.4135 -0.4637
   27RES    H7211044   6.998   7.351   0.453 -1.6874 -2.3613  1.6253
   27RES    H7311045   6.923   7.503   0.430 -0.7348  0.4157 -1.9968
   27RES    H7411046   6.946   7.405   0.644  0.3269  1.1512  0.1540
   27RES    H7511047   6.714   7.213   0.589  0.7110  1.0203 -0.3661
   27RES    H7611048   6.890   7.171   0.586 -0.2371 -0.8251  0.8985
   27RES    H7711049   6.900   7.212   0.828 -0.2619  1.6831  0.1895
   27RES    H7811050   6.734   7.240   0.845 -1.2843 -1.6277 -0.5142
   27RES    H7911051   6.845   6.984   0.725 -1.1084  1.5184 -1.8490
   27RES    H8011052   6.811   7.005   0.895 -3.4152  0.4923  1.6888
   27RES    H8111053   6.599   7.015   0.672  2.3196  1.2680 -0.7609
   27RES    H8211054   6.556   7.033   0.839 -0.0890  0.6524  0.0149
   27RES    H8311055   6.630   6.801   0.886 -0.6089  0.9569 -0.3272
   27RES    H8411056   6.489   6.828   0.786 -1.0316  1.6950 -0.0641
   27RES    H8511057   6.641   6.769   0.720 -3.4165 -1.5710 -0.1294
   27RES    C8611058   6.751   7.479   0.647 -0.4202  0.1613 -0.3976
   27RES    C8711059   6.810   7.627   0.679  0.2130  0.1012  0.7501
   27RES    C8811060   6.718   0.020   0.639  0.2383 -0.6802 -0.6446
   27RES    C8911061   6.594   0.043   0.724  0.7147  0.7904 -0.5641
   27RES    C9011062   6.496   0.127   0.651  0.1298 -0.0928  0.2148
   27RES    C9111063   6.354   0.121   0.702  0.5963 -0.0214  0.5838
   27RES    C9211064   6.323   0.161   0.844  0.2265 -0.5706 -0.1398
   27RES    H9311065   6.677   7.498   0.569 -2.3134 -1.3543  0.9521
   27RES    H9411066   6.691   7.441   0.729  2.0210 -1.2666  0.7813
   27RES    H9511067   6.908   7.636   0.631 -0.4240  1.8932 -0.2484
   27RES    H9611068   6.772   0.114   0.640  0.9064 -1.0506 -1.2390
   27RES    H9711069   6.678   0.010   0.538  3.2462  0.9180 -2.0425
   27RES    H9811070   6.551   7.672   0.748  1.0333  0.4434 -1.3851
   27RES    H9911071   6.613   0.086   0.822 -0.3601  2.0230 -0.8724
   27RES   H10011072   6.491   0.091   0.548 -2.6174 -0.6636  0.4976
   27RES   H10111073   6.523   0.232   0.652 -1.2559  0.2924  3.4096
   27RES   H10211074   6.290   0.177   0.634  1.1804  0.5929  0.5368
   27RES   H10311075   6.310   0.023   0.686 -2.8633  1.6098 -0.3719
   27RES   H10411076   6.326   0.267   0.869 -0.2387 -0.2761 -1.3062
   27RES   H10511077   6.394   0.113   0.911 -0.9009  0.9126  2.2243
   27RES   H10611078   6.221   0.134   0.873  0.3407  0.1939  1.0145
   27RES   C10711079   6.835   7.639   0.831  0.1790 -0.0138  0.2638
   27RES   C10811080   6.944   7.543   0.891 -0.0330 -0.4186 -0.0383
   27RES   C10911081   7.084   7.568   0.828 -0.1032 -0.3176 -0.7339
   27RES   C11011082   7.148   7.700   0.868 -0.4490 -0.4675  0.4043
   27RES   C11111083   7.268   0.018   0.786 -1.2410 -0.1555 -0.3234
   27RES   C11211084   7.354   0.116   0.864 -0.5733 -0.2274  0.6234
   27RES   C11311085   7.480   0.167   0.784  0.1987 -0.1672 -0.3262
   27RES   H11411086   6.744   7.600   0.877  0.9726 -3.6971 -1.1133
   27RES   H11511087   6.854   0.013   0.867 -0.7217  0.1357  0.3275
   27RES   H11611088   6.917   7.439   0.869 -0.4427 -0.4284  0.5011
   27RES   H11711089   7.094   7.550   0.721  0.6999 -2.1167 -0.3936
   27RES   H11811090   7.145   7.489   0.874  1.7210  1.2500 -0.4036
   27RES   H11911091   7.076   0.051   0.842 -0.5766 -0.9073 -0.5800
   27RES   H12011092   7.172   7.694   0.974 -0.8152  1.2652  0.6133
   27RES   H12111093   7.231   0.054   0.690 -0.1642 -0.6773 -0.9464
   27RES   H12211094   7.334   7.662   0.758  0.9674  1.3149  0.4088
   27RES   H12311095   7.293   0.203   0.887 -2.0956 -1.1449  0.0956
   27RES   H12411096   7.396   0.070   0.954  0.3856 -1.4908 -0.4436
   27RES   H12511097   7.543   0.084   0.752 -0.2017 -0.0192 -1.5071
   27RES   H12611098   7.441   0.217   0.696 -1.0744 -0.2955  0.1495
   27RES   H12711099   7.542   0.233   0.845 -0.1338  0.3365 -0.5293
   27RES   C12811100   6.935   7.556   1.044  0.4902 -0.1232  0.5792
   27RES   C12911101   6.810   7.500   1.112  0.8339  0.3174 -0.2943
   27RES   C13011102   6.718   7.613   1.147 -0.3180 -0.9066 -0.0691
   27RES   C13111103   6.569   7.584   1.138 -0.0690  0.2360 -0.3010
   27RES   C13211104   6.480   7.701   1.182 -0.0202 -0.4277  0.4851
   27RES   C13311105   6.348   7.652   1.238 -0.8180 -0.6920  0.0470
   27RES   C13411106   6.263   0.038   1.272  0.3549  0.3662 -0.1142
   27RES   H13511107   7.019   7.498   1.081  1.0047 -0.9726 -1.8062
   27RES   H13611108   6.957   7.661   1.064  1.9718 -0.5307  1.1743
   27RES   H13711109   6.760   7.430   1.044 -0.0679  0.6648  0.0027
   27RES   H13811110   6.726   7.703   1.087 -1.6204  0.7254  2.1383
   27RES   H13911111   6.748   7.649   1.246 -1.1114 -1.1582  0.2670
   27RES   H14011112   6.544   7.502   1.205 -2.0484  1.3107  0.3245
   27RES   H14111113   6.533   7.559   1.039 -1.2327 -1.5819  0.5670
   27RES   H14211114   6.453   0.048   1.107 -1.6846 -1.0599  0.4380
   27RES   H14311115   6.545   0.039   1.242 -0.1174 -0.9917  1.2100
   27RES   H14411116   6.361   7.590   1.327  0.7361  0.2047  0.4641
   27RES   H14511117   6.305   7.590   1.159  0.5448  0.7975 -1.9275
   27RES   H14611118   6.168   0.013   1.319  0.8616  1.4340  1.5274
   27RES   H14711119   6.230   0.092   1.183  2.5024  0.2060 -1.0475
   27RES   H14811120   6.319   0.109   1.334 -1.2551  1.2007  0.4125
   27RES   C14911121   6.847   7.435   1.246  0.1402 -0.1122  0.0566
   27RES   C15011122   6.904   7.292   1.233  0.7947  0.4776  0.1770
   27RES   C15111123   6.811   7.188   1.170  0.4551  0.5005 -1.1246
   27RES   C15211124   6.680   7.153   1.244 -0.0628 -0.0043  0.2848
   27RES   C15311125   6.592   7.056   1.157 -0.9329  0.0384 -0.4001
   27RES   C15411126   6.458   7.044   1.216 -0.1860  0.2688 -0.4116
   27RES   C15511127   6.473   6.979   1.353  0.1561  0.2582 -0.5920
   27RES   H15611128   6.911   7.505   1.300 -0.2216  0.6279 -0.4659
   27RES   H15711129   6.763   7.434   1.315  0.3993  1.0105  0.3906
   27RES   H15811130   6.985   7.314   1.164  1.2856 -0.2470  0.5167
   27RES   H15911131   6.780   7.220   1.070  0.4890  1.4457 -0.8372
   27RES   H16011132   6.868   7.096   1.159  0.1165  0.0012  0.9931
   27RES   H16111133   6.633   7.245   1.279  0.5372  0.1914  0.5850
   27RES   H16211134   6.710   7.101   1.335  0.7534 -1.8889 -1.0294
   27RES   H16311135   6.635   6.956   1.156  2.3479  1.3023  2.8902
   27RES   H16411136   6.591   7.096   1.055 -1.1717  0.9492 -0.0520
   27RES   H16511137   6.402   6.978   1.149  1.1232 -0.7115 -0.5779
   27RES   H16611138   6.417   7.143   1.235  1.7483  0.4054  3.4221
   27RES   H16711139   6.379   6.956   1.403  2.2117 -0.3646  3.2170
   27RES   H16811140   6.530   7.042   1.421  0.7158  0.6306 -1.3936
   27RES   H16911141   6.527   6.885   1.337 -0.3944 -0.3808  1.1566
   27RES   C17011142   6.963   7.247   1.368  0.2885 -0.1596 -0.0468
   27RES   C17111143   7.050   7.127   1.385  0.8154  0.4771  0.0105
   27RES   C17211144   7.156   7.114   1.273  0.3595  0.9459  0.1233
   27RES   C17311145   7.273   7.221   1.283 -1.2461 -0.1437  0.1428
   27RES   C17411146   7.356   7.227   1.145  0.4094 -0.1999 -0.7097
   27RES   C17511147   7.422   7.104   1.100  0.2467 -0.2170 -0.4099
   27RES   C17611148   7.510   7.138   0.988 -0.1154  0.0476  0.8486
   27RES   H17711149   6.884   7.243   1.442  1.0382  1.5178  0.8784
   27RES   H17811150   7.009   7.338   1.406  2.0058 -0.4300 -1.3861
   27RES   H17911151   6.978   7.048   1.366 -0.9548  2.5490 -2.4289
   27RES   H18011152   7.099   7.128   1.181 -1.3955 -0.9490  0.8833
   27RES   H18111153   7.195   7.013   1.289 -1.1472  0.7988  3.2375
   27RES   H18211154   7.345   7.184   1.356  0.2349 -1.3642 -1.8729
   27RES   H18311155   7.235   7.320   1.304  0.4113  0.7586 -0.9903
   27RES   H18411156   7.425   7.311   1.142  0.4541 -0.2428 -0.8606
   27RES   H18511157   7.286   7.254   1.067 -0.3356 -1.7192 -0.5864
   27RES   H18611158   7.347   7.029   1.074 -0.2029  0.4290 -0.9824
   27RES   H18711159   7.479   7.063   1.184 -0.6261 -0.5615  0.0243
   27RES   H18811160   7.591   7.192   1.036  1.3821 -1.5220  0.1495
   27RES   H18911161   7.451   7.193   0.914  0.8183  2.5411  1.9250
   27RES   H19011162   7.546   7.046   0.942 -0.2946 -1.0694  2.9095
   27RES   C19111163   7.125   7.113   1.523 -0.0829  0.1206 -0.1082
   27RES   C19211164   7.035   7.092   1.649  0.6130  0.1268 -0.1870
   27RES   C19311165   7.008   6.941   1.669 -0.3564  0.2008 -0.3240
   27RES   C19411166   6.879   6.890   1.590  0.5012 -0.5221 -0.5156
   27RES   C19511167   6.783   6.810   1.678  0.4846 -0.5095 -0.6176
   27RES   C19611168   6.693   6.714   1.586 -0.6981 -0.2499 -0.3754
   27RES   C19711169   6.565   6.680   1.670  0.7074 -0.2232 -0.4677
   27RES   H19811170   7.181   7.204   1.545  1.3818 -1.3116  2.2617
   27RES   H19911171   7.208   7.043   1.521 -0.1364  0.0849 -2.6973
   27RES   H20011172   6.943   7.151   1.647 -0.1091 -1.0013 -0.5394
   27RES   H20111173   7.006   6.918   1.776  3.3284  1.2373  0.0532
   27RES   H20211174   7.095   6.887   1.631  0.9779  1.3339  1.0244
   27RES   H20311175   6.914   6.816   1.519  1.9082  0.0985 -0.4765
   27RES   H20411176   6.831   6.971   1.534 -0.5448 -0.5543  0.3147
   27RES   H20511177   6.836   6.756   1.756  0.8879  0.7441 -0.0047
   27RES   H20611178   6.721   6.876   1.739  0.3854 -2.8000  1.8449
   27RES   H20711179   6.749   6.634   1.537 -1.0336  0.5681 -2.1160
   27RES   H20811180   6.673   6.776   1.499  1.5543  1.1775  0.0753
   27RES   H20911181   6.595   6.597   1.735  0.5979 -0.1660 -0.3453
   27RES   H21011182   6.487   6.658   1.598  0.3921  0.5562 -0.3725
   27RES   H21111183   6.522   6.751   1.740  0.8353 -1.6093  1.0513
   27RES   C21211184   7.103   7.151   1.777 -0.1758  0.4173  0.3531
   27RES   C21311185   7.016   7.166   1.904  0.1234  0.2067 -0.2423
   27RES   C21411186   7.113   7.136   2.023 -1.2993  0.0245  0.9025
   27RES   C21511187   7.046   7.140   2.162  0.2355 -1.3357  0.4466
   27RES   C21611188   7.139   7.156   2.286 -0.6645  0.1912 -0.6040
   27RES   C21711189   7.050   7.170   2.419 -0.0864  0.0227 -0.0475
   27RES   C21811190   7.143   7.180   2.534 -0.2423  0.5980 -0.5037
   27RES   H21911191   7.136   7.252   1.752  1.9077 -0.0426  1.1679
   27RES   H22011192   7.191   7.092   1.804 -0.2700  0.2042  0.2017
   27RES   H22111193   6.938   7.090   1.907  0.4415 -0.0761  2.1300
   27RES   H22211194   7.175   7.047   2.014  2.5790  2.5076  1.6883
   27RES   H22311195   7.187   7.216   2.014 -0.8114 -0.6806 -1.8095
   27RES   H22411196   6.984   7.050   2.166 -2.8442  0.6858  0.1908
   27RES   H22511197   6.979   7.226   2.161  0.7347 -0.9490  0.3763
   27RES   H22611198   7.213   7.077   2.283 -1.4885 -0.5365 -4.6406
   27RES   H22711199   7.202   7.244   2.274 -1.5106  1.2258  2.2179
   27RES   H22811200   6.977   7.250   2.408  0.3458  0.2063 -1.6990
   27RES   H22911201   7.001   7.074   2.438 -1.1683  0.5874  0.0304
   27RES   H23011202   7.100   7.141   2.626  0.6448  0.0487 -0.3153
   27RES   H23111203   7.173   7.284   2.546 -0.9950  0.6584  1.0631
   27RES   H23211204   7.240   7.136   2.509 -1.5081 -2.0487 -0.9187
   27RES   C23311205   6.942   7.312   1.917 -0.5664  0.5161 -0.1934
   27RES   C23411206   6.880   7.382   1.788  0.1558 -0.0134  0.2937
   27RES   C23511207   6.739   7.317   1.775 -0.1830 -0.1455 -0.3110
   27RES   C23611208   6.659   7.366   1.648  0.0538 -0.0964 -0.0495
   27RES   C23711209   6.517   7.316   1.651 -0.6001 -0.1644 -0.2099
   27RES   C23811210   6.434   7.346   1.525  0.1577  0.4667  0.6037
   27RES   C23911211   6.294   7.280   1.525  0.1426 -0.2355  0.1100
   27RES   H24011212   7.015   7.378   1.963 -2.0067  0.7364  1.8755
   27RES   H24111213   6.862   7.312   1.992 -0.0647 -0.8678  0.3698
   27RES   H24211214   6.933   7.368   1.694  0.3827 -1.2999  0.6061
   27RES   H24311215   6.675   7.348   1.858  1.9544 -1.6169  1.9486
   27RES   H24411216   6.747   7.208   1.779 -0.0156 -0.0648  2.0301
   27RES   H24511217   6.714   7.342   1.557  1.3204 -0.3947  0.7913
   27RES   H24611218   6.637   7.473   1.657  3.2272  0.6505 -0.6696
   27RES   H24711219   6.464   7.360   1.736  0.6943  1.0275 -0.0017
   27RES   H24811220   6.517   7.209   1.672  0.7625 -0.0188  0.6383
   27RES   H24911221   6.426   7.454   1.530  0.2471  0.4517  1.0374
   27RES   H25011222   6.496   7.312   1.442  0.1447  1.7086  0.0747
   27RES   H25111223   6.241   7.323   1.609  2.3796  2.0762  0.3858
   27RES   H25211224   6.232   7.306   1.439  2.7542  0.6347 -1.5663
   27RES   H25311225   6.303   7.172   1.539 -0.5433 -0.4159 -0.7805
   27RES   C25411226   6.876   7.536   1.813 -0.1394 -0.3855  0.2411
   27RES   C25511227   7.015   7.598   1.795  0.3106  0.1605 -0.2023
   27RES   C25611228   7.048   7.711   1.891  0.3548 -0.2912  0.6576
   27RES   C25711229   6.960   0.107   1.885 -0.2715 -0.3016  0.3633
   27RES   C25811230   7.001   0.209   1.999 -0.1446 -0.2078  0.2731
   27RES   C25911231   6.930   0.343   1.990  0.2781 -0.6974 -0.2720
   27RES   C26011232   6.786   0.335   2.040  0.4484  1.0429  0.0460
   27RES   H26111233   6.830   7.541   1.912 -1.1133  0.5442 -0.2532
   27RES   H26211234   6.811   7.589   1.743 -0.1313 -2.5222 -1.4553
   27RES   H26311235   7.085   7.516   1.811 -0.0084 -0.2992 -1.1236
   27RES   H26411236   7.149   0.019   1.868 -0.9579  2.3448 -1.4540
   27RES   H26511237   7.041   7.674   1.994  1.1801  1.1148  1.2302
   27RES   H26611238   6.965   0.156   1.788 -0.9844 -0.8459  0.0502
   27RES   H26711239   6.859   0.069   1.903 -0.4678  0.4496  0.8731
   27RES   H26811240   7.109   0.223   1.997 -0.1615 -0.2134 -1.8558
   27RES   H26911241   6.973   0.159   2.092 -1.4862  0.4659  0.2525
   27RES   H27011242   6.981   0.419   2.049 -0.9808  0.2218 -0.3702
   27RES   H27111243   6.928   0.387   1.891  1.5976 -2.1660 -0.9797
   27RES   H27211244   6.733   0.431   2.042 -2.4373 -0.5076  0.2468
   27RES   H27311245   6.721   0.262   1.992 -2.2267  2.2937  1.6018
   27RES   H27411246   6.788   0.313   2.147 -1.1779 -0.5233 -0.2188
   27RES   C27511247   7.028   7.646   1.650  0.8499 -0.4905 -0.0821
   27RES   C27611248   7.176   7.662   1.595  0.8444 -0.2348  0.7141
   27RES   C27711249   7.190   0.001   1.452 -0.0569  0.0124 -0.3634
   27RES   C27811250   7.166   0.150   1.435  0.0359 -0.0223 -0.3583
   27RES   C27911251   7.191   0.205   1.297 -0.5629 -0.6672  0.0574
   27RES   C28011252   7.130   0.347   1.292  0.4820 -0.1466  0.3343
   27RES   C28111253   7.150   0.413   1.150 -0.3080 -0.2825 -0.0470
   27RES   H28211254   6.976   0.013   1.631  0.5074 -0.6198  0.2225
   27RES   H28311255   6.975   7.577   1.585 -0.9643 -0.5956  1.4915
   27RES   H28411256   7.219   0.005   1.665 -0.5885 -0.7732  2.1634
   27RES   H28511257   7.290   7.710   1.411 -0.7415 -2.2716 -1.0826
   27RES   H28611258   7.126   7.667   1.390  0.6079  0.9993 -2.0516
   27RES   H28711259   7.225   0.211   1.502 -0.8359 -0.2644  0.6411
   27RES   H28811260   7.065   0.171   1.470  0.8420  0.6839  1.5749
   27RES   H28911261   7.159   0.139   1.217 -1.8536 -1.6466  1.3420
   27RES   H29011262   7.298   0.214   1.276 -0.8145 -2.8016 -2.3824
   27RES   H29111263   7.023   0.343   1.312  0.0346 -0.7979 -2.0336
   27RES   H29211264   7.187   0.407   1.363  1.8826  0.0347 -0.9067
   27RES   H29311265   7.113   0.515   1.154 -0.6929 -0.4587  0.9903
   27RES   H29411266   7.111   0.352   1.068 -0.7665 -0.9890  0.6809
   27RES   H29511267   7.256   0.424   1.127 -0.5670 -1.0360 -1.6936
   27RES   C29611268   7.259   7.528   1.593  0.3801 -0.7491 -0.2628
   27RES   C29711269   7.403   7.558   1.620  1.0233 -0.3005  0.4627
   27RES   C29811270   7.476   7.433   1.572  0.3350 -0.4310  0.8635
   27RES   C29911271   7.528   7.445   1.430  0.4065  0.0767  0.2325
   27RES   C30011272   7.603   7.314   1.388  0.5958 -0.0206 -0.4262
   27RES   C30111273   0.002   7.276   1.466  0.8076  0.2840  0.8196
   27RES   C30211274   0.092   7.177   1.390 -0.1020  1.0190 -1.2034
   27RES   H30311275   7.223   7.459   1.670 -0.9406 -0.4615 -0.6010
   27RES   H30411276   7.228   7.490   1.496  0.8106 -0.0521 -0.6750
   27RES   H30511277   7.429   7.653   1.574  0.7533 -0.0842  0.7500
   27RES   H30611278   7.567   7.424   1.632  0.6931 -0.8369  0.2730
   27RES   H30711279   7.427   7.338   1.593  0.7517 -1.6386 -3.0258
   27RES   H30811280   7.583   7.534   1.400  1.3456 -1.0085 -1.3505
   27RES   H30911281   7.438   7.440   1.370  0.9379 -0.1680 -0.5525
   27RES   H31011282   7.637   7.329   1.286  0.1803  1.5701 -0.3413
   27RES   H31111283   7.527   7.235   1.384  0.0011  0.5733 -1.0082
   27RES   H31211284   0.060   7.366   1.484  0.7385  0.3115  0.9104
   27RES   H31311285   7.705   7.243   1.568 -0.9280  0.5692  0.5153
   27RES   H31411286   0.050   7.077   1.382  0.5935  0.7495 -1.5951
   27RES   H31511287   0.108   7.199   1.284  0.4682 -0.3237 -1.4090
   27RES   H31611288   0.190   7.157   1.432 -2.3562  0.1712  3.9887
   27RES   C31711289   7.436   7.581   1.770  0.1493  0.6511 -0.4635
   27RES   C31811290   7.568   7.647   1.799 -0.1634  0.0041  0.4227
   27RES   C31911291   7.551   0.077   1.800 -0.4024  0.5522  0.2486
   27RES   C32011292   7.476   0.148   1.915 -0.1796 -0.2925 -0.2939
   27RES   C32111293   7.484   0.299   1.899  1.2631  0.1107 -0.0358
   27RES   C32211294   7.411   0.355   1.773 -0.7500  0.0333 -0.4602
   27RES   C32311295   7.256   0.341   1.796 -0.1184 -0.1335  0.5652
   27RES   H32411296   7.423   7.490   1.828 -0.0595  0.4126 -0.8806
   27RES   H32511297   7.360   7.640   1.822 -0.0115 -0.7871  0.9599
   27RES   H32611298   7.632   7.627   1.713  0.0695  0.4266  0.4973
   27RES   H32711299   7.503   0.104   1.706 -0.5215  0.2104  0.2105
   27RES   H32811300   7.650   0.121   1.802  0.4002 -1.1671 -0.8438
   27RES   H32911301   7.511   0.124   2.015 -0.7425  2.7506  0.6970
   27RES   H33011302   7.369   0.124   1.921 -0.3749  1.1030  2.6567
   27RES   H33111303   7.591   0.321   1.893  1.7212 -1.6965  0.9294
   27RES   H33211304   7.450   0.361   1.982  0.2619 -0.7712  0.2254
   27RES   H33311305   7.442   0.303   1.682  0.3124  0.2895 -0.2493
   27RES   H33411306   7.425   0.459   1.745 -0.3927 -0.6408 -2.9154
   27RES   H33511307   7.233   0.373   1.897  0.1637 -0.3681  0.7064
   27RES   H33611308   7.228   0.236   1.803 -2.3082  0.2773 -1.3736
   27RES   H33711309   7.196   0.387   1.718 -0.6463  1.8939  2.1523
   27RES   C33811310   7.644   7.601   1.929  0.5834 -0.0196  0.3085
   27RES   C33911311   0.066   7.645   1.940 -0.2243  0.7222 -0.3042
   27RES   C34011312   0.156   7.577   1.827 -0.2778  0.3808 -0.2913
   27RES   C34111313   0.301   7.636   1.830 -0.8931  0.0599 -0.3722
   27RES   C34211314   0.393   7.583   1.715 -0.6423 -0.0374  0.4373
   27RES   C34311315   0.509   7.683   1.683  0.5504  0.1837  0.2508
   27RES   C34411316   0.631   7.689   1.776  0.4288  0.6210  0.1240
   27RES   H34511317   7.633   7.493   1.934 -0.1996  0.0122 -0.7178
   27RES   H34611318   7.598   7.642   2.019  2.0814 -0.7634  1.4439
   27RES   H34711319   0.069   0.026   1.929  0.2647  0.5823 -1.5858
   27RES   H34811320   0.172   7.469   1.835 -0.8550  0.3791  1.0725
   27RES   H34911321   0.119   7.588   1.725  0.1846 -2.3137 -0.7789
   27RES   H35011322   0.353   7.606   1.920 -2.4077 -0.5909  0.3078
   27RES   H35111323   0.292   0.018   1.824  2.0579  0.3297 -0.7157
   27RES   H35211324   0.433   7.482   1.720  1.5876  0.7878  0.1389
   27RES   H35311325   0.327   7.576   1.629 -1.0097 -4.0843  0.9619
   27RES   H35411326   0.535   7.674   1.578  0.5719 -0.4773  0.3114
   27RES   H35511327   0.465   0.056   1.682  0.9751  0.4032  1.7996
   27RES   H35611328   0.602   7.678   1.881 -1.9553  0.2598 -0.5339
   27RES   H35711329   0.692   0.050   1.758  1.5834 -0.2476 -0.2724
   27RES   H35811330   0.686   7.598   1.751  0.4271  0.9348 -1.0161
   27RES   C35911331   0.110   7.616   2.081 -0.0815  0.3250 -0.1798
   27RES   C36011332   0.109   7.472   2.136 -0.7714 -0.3564  0.1259
   27RES   C36111333   0.230   7.451   2.234 -0.5108 -0.0313 -0.1099
   27RES   C36211334   0.368   7.444   2.178 -0.1567  0.7426 -0.2533
   27RES   C36311335   0.476   7.429   2.287  0.0073 -0.0064  0.0720
   27RES   C36411336   0.616   7.464   2.239 -1.1031 -0.1123 -0.5279
   27RES   C36511337   0.729   7.467   2.346 -0.1277 -0.5053 -0.4041
   27RES   H36611338   0.047   7.679   2.143  1.5428  2.0404 -0.2426
   27RES   H36711339   0.209   7.660   2.089 -0.2878  0.8873 -0.7389
   27RES   H36811340   0.121   7.407   2.050 -0.2366 -0.6704  0.4372
   27RES   H36911341   0.232   7.516   2.322  0.1934 -1.6378  1.1004
   27RES   H37011342   0.216   7.351   2.277  2.4393 -0.2740  0.3697
   27RES   H37111343   0.370   7.358   2.112 -0.3825  1.0723 -0.6941
   27RES   H37211344   0.380   7.529   2.110 -2.1599  1.3611  0.1464
   27RES   H37311345   0.456   7.488   2.376 -0.8671 -0.7369  0.3686
   27RES   H37411346   0.485   7.324   2.316  2.2533  0.1613  0.1010
   27RES   H37511347   0.658   7.402   2.159  1.6054 -1.1886  1.6558
   27RES   H37611348   0.613   7.560   2.188  1.7792  0.4512  0.2858
   27RES   H37711349   0.829   7.496   2.312  0.1113 -1.1543 -0.2774
   27RES   H37811350   0.705   7.546   2.417  1.0524  0.9077 -1.5670
   27RES   H37911351   0.744   7.372   2.398  1.7448  0.6269  1.1936
   27RES   C38011352   7.703   7.431   2.217 -0.0442  1.2293 -0.0112
   27RES   C38111353   7.673   7.278   2.238 -0.6607  0.3338 -0.2829
   27RES   C38211354   7.574   7.238   2.355 -0.2940 -0.0433 -0.1951
   27RES   C38311355   7.655   7.223   2.486 -0.6547  0.2413 -0.8177
   27RES   C38411356   7.555   7.196   2.604  0.4502 -0.1775  0.3976
   27RES   C38511357   7.608   7.153   2.743 -0.3901 -0.0315 -0.1511
   27RES   C38611358   7.490   7.126   2.836 -0.2474 -0.6635 -0.4916
   27RES   H38711359   7.690   7.477   2.315 -3.6482 -1.0895  0.6735
   27RES   H38811360   7.609   7.455   2.166 -1.4033  0.6644  2.1672
   27RES   H38911361   0.043   7.243   2.276 -0.6381  0.1851 -0.4784
   27RES   H39011362   7.518   7.147   2.334  0.5870 -1.1903  2.3344
   27RES   H39111363   7.503   7.321   2.360 -0.1559  0.0504  0.2076
   27RES   H39211364   0.002   7.142   2.485  1.3511  2.0367 -1.6268
   27RES   H39311365   7.707   7.318   2.497 -2.1773  1.1014 -0.9020
   27RES   H39411366   7.484   7.278   2.613  0.9364  0.2861  0.0803
   27RES   H39511367   7.482   7.122   2.572 -1.2889  2.1070 -1.0622
   27RES   H39611368   7.671   7.235   2.777  1.0444 -0.4087 -1.8309
   27RES   H39711369   7.678   7.070   2.741 -1.0727 -0.6325  0.3461
   27RES   H39811370   7.420   7.050   2.803 -0.1334 -0.8130 -0.3859
   27RES   H39911371   7.437   7.220   2.855  2.5273  0.5769  1.4207
   27RES   H40011372   7.523   7.110   2.938  2.1543  2.1819 -0.7410
   27RES   C40111373   7.649   7.200   2.104 -0.2239  0.2662 -0.9755
   27RES   C40211374   7.505   7.222   2.054 -0.7596  0.3120 -0.0582
   27RES   C40311375   7.485   7.178   1.913  0.1362  0.0223  0.4310
   27RES   C40411376   7.504   7.027   1.896 -0.3895 -0.0042 -0.0177
   27RES   C40511377   7.466   6.962   1.765  0.3540 -0.0361  0.8231
   27RES   C40611378   7.516   7.030   1.647  0.2951 -0.2522  0.5979
   27RES   C40711379   7.506   6.937   1.525  0.3266 -0.2078  0.0892
   27RES   H40811380   7.695   7.101   2.104  2.7695  1.5585  0.8192
   27RES   H40911381   0.000   7.244   2.042  1.8942 -1.8329  0.0818
   27RES   H41011382   7.480   7.327   2.064 -1.1839  0.1464  0.6061
   27RES   H41111383   7.543   7.245   1.850  0.4503 -1.6399 -1.0841
   27RES   H41211384   7.385   7.199   1.877  0.1670  1.3812  1.1055
   27RES   H41311385   7.465   6.967   1.979  0.7299  0.2646  0.7102
   27RES   H41411386   7.611   7.018   1.913 -0.2434  1.2229 -0.2897
   27RES   H41511387   7.509   6.862   1.759  1.3378  0.3144  1.8324
   27RES   H41611388   7.357   6.959   1.756  0.4873  2.5266 -2.4007
   27RES   H41711389   7.462   7.123   1.629 -0.6262 -0.9380 -0.1896
   27RES   H41811390   7.620   7.062   1.657  0.9431 -2.7115  2.2674
   27RES   H41911391   7.400   6.916   1.512  0.1554 -0.9403  2.3875
   27RES   H42011392   7.569   6.850   1.539  0.5633 -0.1237 -0.4642
   27RES   H42111393   7.525   6.993   1.434  1.8810  1.4579  1.3872
   27RES   H42211394   7.438   7.164   2.117  0.4191  0.8487  1.7311
   28RES     C111395   5.110   2.500   6.565 -0.2162 -0.5375 -0.2768
   28RES     C211396   5.115   2.351   6.588 -0.1305  0.1963 -0.2855
   28RES     C311397   5.009   2.289   6.504 -0.2900  0.0982 -0.0338
   28RES     C411398   4.865   2.320   6.534  0.1018  0.0097  0.2598
   28RES     C511399   4.767   2.223   6.464 -0.3172  0.2316 -0.0801
   28RES     C611400   4.626   2.262   6.492  0.6036 -0.2334  0.4398
   28RES     C711401   4.516   2.168   6.434  0.4990 -0.0177  0.2664
   28RES     H811402   5.200   2.556   6.591 -1.1759  0.2664  1.3785
   28RES     H911403   5.031   2.545   6.627 -0.1359 -0.4672 -0.2244
   28RES    H1011404   5.211   2.315   6.552 -0.5958 -1.0766 -0.2694
   28RES    H1111405   5.025   2.295   6.396  0.2019  1.7387  0.1084
   28RES    H1211406   5.015   2.182   6.521 -1.9833  0.1429  0.8498
   28RES    H1311407   4.848   2.325   6.642 -0.7585  1.3428  0.0769
   28RES    H1411408   4.844   2.423   6.505  1.5408  0.5078  0.9350
   28RES    H1511409   4.776   2.118   6.491  0.4798  0.5184  0.7675
   28RES    H1611410   4.787   2.231   6.357  1.1775  1.9550  0.3169
   28RES    H1711411   4.611   2.367   6.465  1.3240 -0.3752 -0.5358
   28RES    H1811412   4.615   2.262   6.600  1.7220  1.2582  0.5650
   28RES    H1911413   4.418   2.197   6.473  0.6426  0.2013  0.4673
   28RES    H2011414   4.528   2.066   6.471 -2.9930 -0.0662  1.5248
   28RES    H2111415   4.514   2.165   6.325  0.3716 -1.3162  0.3015
   28RES    H2211416   5.092   2.525   6.461 -2.5942  2.5597  0.7805
   28RES    C2311417   5.119   2.318   6.744 -0.0936 -0.1789  0.6619
   28RES    C2411418   5.232   2.374   6.830 -0.2400 -1.0828 -0.1902
   28RES    C2511419   5.374   2.343   6.770  0.5114  0.1947  0.2288
   28RES    C2611420   5.422   2.197   6.762 -0.1196  0.0323  0.0623
   28RES    C2711421   5.558   2.186   6.688  0.8792  0.1097 -0.1836
   28RES    C2811422   5.617   2.046   6.677 -0.0784  0.3367 -0.1019
   28RES    C2911423   5.750   2.042   6.605 -0.1828 -0.1125  0.7658
   28RES    H3011424   5.030   2.365   6.786 -0.0264 -0.4164  1.0758
   28RES    H3111425   5.101   2.211   6.757 -1.8109 -0.0182 -0.3174
   28RES    H3211426   5.235   2.483   6.823  2.2422 -1.0725  0.4447
   28RES    H3311427   5.450   2.401   6.823 -0.2708  2.2274 -0.8328
   28RES    H3411428   5.382   2.376   6.667  0.3309 -1.7837 -0.4510
   28RES    H3511429   5.348   2.147   6.699 -0.5398 -0.9711  1.3191
   28RES    H3611430   5.421   2.135   6.852 -1.0353  0.9897  0.7176
   28RES    H3711431   5.630   2.255   6.733  0.2741  0.2991  0.4867
   28RES    H3811432   5.545   2.220   6.585 -0.3652 -2.7002 -0.9901
   28RES    H3911433   5.554   1.977   6.621 -0.5173  1.8435 -1.5066
   28RES    H4011434   5.626   1.998   6.775  0.9632  0.8047  0.0375
   28RES    H4111435   5.727   2.063   6.501 -0.0112 -2.2611  0.2713
   28RES    H4211436   5.821   2.119   6.637 -1.1430  1.1477 -0.1144
   28RES    H4311437   5.807   1.949   6.615 -0.6725 -0.5938 -0.8842
   28RES    C4411438   5.220   2.319   6.977 -0.0769 -0.4314 -0.4869
   28RES    C4511439   5.097   2.363   7.057  0.9281  1.6805 -0.4885
   28RES    C4611440   5.104   2.295   7.201 -0.0876 -0.3164  0.2090
   28RES    C4711441   5.115   2.145   7.198 -0.1837  0.2427 -0.1250
   28RES    C4811442   5.105   2.097   7.342  0.5163  0.1274  0.3015
   28RES    C4911443   5.136   1.950   7.358  0.6587  0.6016 -0.0595
   28RES    C5011444   5.128   1.910   7.506  0.3758  0.0023 -0.3297
   28RES    H5111445   5.306   2.355   7.034  0.1751 -0.3200 -0.9372
   28RES    H5211446   5.233   2.211   6.975 -1.4732 -0.6113 -0.3264
   28RES    H5311447   5.006   2.337   7.002 -0.1232  2.7979  0.7007
   28RES    H5411448   5.016   2.325   7.257 -0.7169 -0.4648 -0.6790
   28RES    H5511449   5.184   2.340   7.260  1.1148  2.2439 -3.1903
   28RES    H5611450   5.040   2.095   7.136 -0.8134 -0.8961  1.5133
   28RES    H5711451   5.206   2.100   7.158 -0.1813  0.0918  0.0464
   28RES    H5811452   5.006   2.109   7.387 -0.7497 -0.4410 -2.2509
   28RES    H5911453   5.181   2.153   7.398  1.4505 -0.7265 -0.0990
   28RES    H6011454   5.235   1.923   7.321  0.4714 -0.4675  0.1855
   28RES    H6111455   5.068   1.890   7.298  0.9250  0.6007 -0.3622
   28RES    H6211456   5.161   1.806   7.509 -2.6843 -0.9905  0.4067
   28RES    H6311457   5.026   1.928   7.541  0.9518  3.3135 -0.1593
   28RES    H6411458   5.174   1.977   7.578 -1.6333 -0.9266  1.8657
   28RES    C6511459   5.095   2.511   7.080 -0.2768  0.6047  0.0771
   28RES    C6611460   4.971   2.579   7.129  0.4661 -0.2508  0.1045
   28RES    C6711461   4.848   2.566   7.036 -0.1746 -0.3932 -0.3380
   28RES    C6811462   4.835   2.665   6.920  0.0847 -0.0916 -0.4278
   28RES    C6911463   4.703   2.641   6.856 -0.0549  0.5353  0.0044
   28RES    C7011464   4.670   2.728   6.736 -0.1366 -0.2468  0.2264
   28RES    C7111465   4.518   2.709   6.697  0.1950 -0.4880  1.1941
   28RES    H7211466   5.172   2.528   7.155 -1.0710  2.1968  0.5630
   28RES    H7311467   5.127   2.564   6.989  2.8822  1.1964  1.4500
   28RES    H7411468   4.946   2.510   7.209 -1.0467 -0.0386 -0.1730
   28RES    H7511469   4.832   2.461   7.010 -3.0990 -0.0653 -0.0296
   28RES    H7611470   4.763   2.588   7.101 -0.0891  0.4484 -0.4996
   28RES    H7711471   4.852   2.771   6.939  0.4857 -0.2770  0.2509
   28RES    H7811472   4.906   2.630   6.845  0.3598  1.5714 -0.9765
   28RES    H7911473   4.697   2.537   6.823 -3.3480  0.8741 -0.6801
   28RES    H8011474   4.628   2.675   6.927 -0.9413  0.2580 -0.7755
   28RES    H8111475   4.735   2.702   6.652  1.1536 -1.6207  1.6349
   28RES    H8211476   4.693   2.828   6.772  0.0497  0.1028 -0.8341
   28RES    H8311477   4.493   2.611   6.655  1.7216 -0.1308 -0.5881
   28RES    H8411478   4.449   2.712   6.782 -3.9619 -1.1409 -2.0197
   28RES    H8511479   4.484   2.791   6.634  2.5467 -0.9057 -0.6724
   28RES    C8611480   5.002   2.721   7.174  0.3360 -0.2891  0.5912
   28RES    C8711481   4.873   2.799   7.226  0.5898 -0.1684  0.1261
   28RES    C8811482   4.826   2.741   7.358 -0.4402 -0.3803  0.7111
   28RES    C8911483   4.675   2.768   7.390 -0.4682 -0.6272  0.5599
   28RES    C9011484   4.569   2.741   7.279 -0.6175  0.3555  0.4553
   28RES    C9111485   4.421   2.718   7.311 -0.0783  0.3310  0.2716
   28RES    C9211486   4.329   2.702   7.187  0.2603 -0.5304  0.3377
   28RES    H9311487   5.088   2.716   7.241 -0.0281  2.3821  1.3073
   28RES    H9411488   5.041   2.776   7.089 -0.4001 -1.8134 -0.7715
   28RES    H9511489   4.794   2.785   7.152  0.9907 -2.7255  0.1386
   28RES    H9611490   4.826   2.633   7.349 -1.5144 -0.4241  1.2260
   28RES    H9711491   4.884   2.776   7.444  2.5538  0.7955 -1.6744
   28RES    H9811492   4.654   2.709   7.480  2.7015 -2.2443  0.3424
   28RES    H9911493   4.672   2.873   7.417  3.1754  0.2329 -1.9856
   28RES   H10011494   4.595   2.654   7.218 -0.0490  1.2161 -0.5448
   28RES   H10111495   4.577   2.822   7.206  0.3611  0.5175  0.7441
   28RES   H10211496   4.414   2.626   7.368  1.2628 -0.5234 -0.9088
   28RES   H10311497   4.390   2.801   7.375 -3.0335 -0.7627  0.3473
   28RES   H10411498   4.372   2.640   7.108  1.1825  0.1746  0.2703
   28RES   H10511499   4.296   2.794   7.139  0.9310 -0.2225  0.4584
   28RES   H10611500   4.231   2.667   7.217  0.4069  0.1544  1.6483
   28RES   C10711501   4.892   2.949   7.247  0.3160 -0.2680 -0.1797
   28RES   C10811502   4.897   3.030   7.114 -0.3914 -0.5427 -0.1892
   28RES   C10911503   4.752   3.045   7.067  1.0359 -0.2365  0.2207
   28RES   C11011504   4.731   3.072   6.921 -0.3044  0.0834 -0.0841
   28RES   C11111505   4.580   3.079   6.886 -0.3262 -0.1463 -0.2131
   28RES   C11211506   4.554   3.094   6.731  0.0961 -0.5570  0.3048
   28RES   C11311507   4.407   3.084   6.688 -0.3940  0.3899  1.2822
   28RES   H11411508   4.986   2.961   7.299  0.2032 -1.3098  0.2841
   28RES   H11511509   4.819   2.996   7.312 -0.0030  0.9258 -1.3759
   28RES   H11611510   4.946   2.973   7.036 -0.0883  2.0591 -1.9787
   28RES   H11711511   4.706   3.124   7.125  1.7817 -1.3305  2.3530
   28RES   H11811512   4.700   2.954   7.097  1.0976 -0.6477 -0.8588
   28RES   H11911513   4.780   3.166   6.896  0.5465  0.1990  1.9389
   28RES   H12011514   4.763   2.985   6.863 -1.7527 -0.5670  0.0650
   28RES   H12111515   4.533   3.162   6.939  1.1556 -1.3997  3.2067
   28RES   H12211516   4.533   2.993   6.934 -0.1833 -1.5050 -2.4538
   28RES   H12311517   4.590   3.190   6.695 -3.1511  0.8549  0.6708
   28RES   H12411518   4.616   3.018   6.682 -0.3666 -0.1370 -0.9297
   28RES   H12511519   4.373   2.980   6.697 -0.7074  0.4353  0.5982
   28RES   H12611520   4.346   3.150   6.750 -1.7386  2.1844 -1.8746
   28RES   H12711521   4.402   3.111   6.583  0.8767 -2.4645  0.4248
   28RES   C12811522   4.959   3.174   7.125  0.7058  0.8228 -0.1310
   28RES   C12911523   5.114   3.181   7.149 -0.5140  0.1584  0.6932
   28RES   C13011524   5.144   3.271   7.269 -0.1231  0.2097 -0.5234
   28RES   C13111525   5.103   3.211   7.398 -0.3031 -0.7758  0.3169
   28RES   C13211526   5.149   3.287   7.529  0.1492 -1.2988 -0.1946
   28RES   C13311527   5.140   3.200   7.651  0.1814 -0.3429 -0.2998
   28RES   C13411528   5.224   3.269   0.037  0.1887  0.0533  0.2597
   28RES   H13511529   4.923   3.236   7.044 -0.1080 -2.1334 -2.1134
   28RES   H13611530   4.912   3.219   7.213  0.4392 -0.7899  0.5772
   28RES   H13711531   5.166   3.087   7.161  0.8646  0.8461  0.1917
   28RES   H13811532   5.099   3.370   7.265 -0.4778  0.0636 -0.1391
   28RES   H13911533   5.252   3.285   7.274  0.1503 -0.0365 -4.3168
   28RES   H14011534   5.151   3.114   7.408 -1.6603 -1.2017  2.9342
   28RES   H14111535   4.999   3.180   7.402 -0.2966 -1.2319 -2.0554
   28RES   H14211536   5.095   3.380   7.544 -0.8237 -1.8039 -0.5154
   28RES   H14311537   5.252   3.319   7.514 -0.6071  1.4244  0.2669
   28RES   H14411538   5.194   3.106   7.636  2.1379  0.9305 -1.6520
   28RES   H14511539   5.038   3.181   7.682  0.0390  1.2027  0.2205
   28RES   H14611540   5.329   3.257   0.011 -0.1077  1.4894 -1.7263
   28RES   H14711541   5.206   3.241   0.140 -1.1594 -0.1179 -0.0013
   28RES   H14811542   5.188   3.372   0.033  0.0719 -0.0071 -0.5102
   28RES   C14911543   5.180   3.252   7.027  0.4738 -0.0891  0.0271
   28RES   C15011544   5.180   3.172   6.893  0.5112 -0.2703 -0.1487
   28RES   C15111545   5.247   3.033   6.916  0.5868  0.4234  0.6608
   28RES   C15211546   5.389   3.029   6.982  0.2635 -0.0988 -0.0263
   28RES   C15311547   5.452   2.890   6.981 -0.2185 -0.2180 -0.1923
   28RES   C15411548   5.376   2.782   7.056 -0.5115 -0.4982  0.2183
   28RES   C15511549   5.452   2.655   7.092 -0.2516  0.1050  0.1966
   28RES   H15611550   5.131   3.349   7.017 -0.4187 -0.6038 -0.6677
   28RES   H15711551   5.283   3.284   7.043  0.1952  1.3238 -0.9020
   28RES   H15811552   5.076   3.153   6.867  0.6888  0.5357 -1.5227
   28RES   H15911553   5.172   2.979   6.973 -1.8642  1.0303 -1.8500
   28RES   H16011554   5.240   2.973   6.825  1.5504 -1.1609  1.6187
   28RES   H16111555   5.379   3.078   7.079 -1.3216  1.8148 -1.1076
   28RES   H16211556   5.452   3.094   6.921 -0.5930  1.0064  0.2428
   28RES   H16311557   5.547   2.888   7.035  0.8468  2.0032 -1.9041
   28RES   H16411558   5.468   2.858   6.877  0.1525  2.2398 -0.9051
   28RES   H16511559   5.289   2.755   6.996  0.0268 -2.8253  0.4575
   28RES   H16611560   5.338   2.826   7.148 -0.0181 -1.0269  0.6706
   28RES   H16711561   5.390   2.580   7.140 -1.1717  1.0126  0.4323
   28RES   H16811562   5.520   2.688   7.170  0.1808  2.6714 -1.2216
   28RES   H16911563   5.501   2.615   7.003 -0.5844 -1.7833  0.8263
   28RES   C17011564   5.246   3.263   6.785 -0.4595 -0.8413  0.0612
   28RES   C17111565   5.216   3.213   6.640  0.6645 -0.0754  0.2774
   28RES   C17211566   5.071   3.244   6.591 -0.1287  0.0703  0.2143
   28RES   C17311567   5.031   3.148   6.474 -0.4653  0.3128 -0.1415
   28RES   C17411568   4.894   3.193   6.420  0.1948  0.9732  0.2480
   28RES   C17511569   4.826   3.090   6.329 -0.3299 -0.5265 -0.1713
   28RES   C17611570   4.675   3.117   6.303  0.1608  0.3614 -0.3482
   28RES   H17711571   5.352   3.246   6.803 -0.4247 -3.2556 -2.1069
   28RES   H17811572   5.240   3.372   6.790  0.3792 -0.7967  0.1967
   28RES   H17911573   5.216   3.104   6.653  3.5601 -0.1263  0.1436
   28RES   H18011574   5.065   3.342   6.543 -1.1617  0.8086  1.8190
   28RES   H18111575   5.001   3.225   6.672  0.6819  1.4214  1.2609
   28RES   H18211576   5.022   3.047   6.511 -2.4001  0.3156 -0.5289
   28RES   H18311577   5.111   3.156   6.400  0.6894  2.2747  1.2550
   28RES   H18411578   4.909   3.290   6.371  0.9639 -0.2696 -2.0425
   28RES   H18511579   4.827   3.217   6.503  2.8029  0.0960  2.6602
   28RES   H18611580   4.842   2.993   6.376  2.3840  0.1903  0.4416
   28RES   H18711581   4.897   3.086   6.247  0.5062 -1.2563  0.5793
   28RES   H18811582   4.641   3.036   6.238  0.5329  0.7026 -0.9787
   28RES   H18911583   4.668   3.209   6.244  1.1517  2.2537  2.3879
   28RES   H19011584   4.624   3.102   6.398  1.9317 -1.1540  0.3992
   28RES   C19111585   5.331   3.255   6.540 -0.2923 -0.4880  0.7504
   28RES   C19211586   5.444   3.152   6.532  0.2588 -0.3958 -0.6619
   28RES   C19311587   5.399   3.028   6.450 -0.0493 -0.2452 -0.0294
   28RES   C19411588   5.483   2.901   6.485  0.5255  0.5463  0.0439
   28RES   C19511589   5.441   2.776   6.413  0.0559  0.4900 -0.5114
   28RES   C19611590   5.540   2.661   6.431 -0.1117 -0.9117 -0.1730
   28RES   C19711591   5.522   2.559   6.321 -0.1418 -0.2668 -0.1312
   28RES   H19811592   5.370   3.354   6.562  0.0801 -0.1734 -1.2675
   28RES   H19911593   5.291   3.266   6.439  0.0016  2.0556  0.8795
   28RES   H20011594   5.464   3.116   6.633  0.0660 -0.0985 -0.5182
   28RES   H20111595   5.389   3.049   6.344 -0.1628 -4.0528 -0.8240
   28RES   H20211596   5.301   2.998   6.486 -0.0752 -1.4102 -1.0497
   28RES   H20311597   5.479   2.880   6.592  0.7520 -0.2645 -0.1049
   28RES   H20411598   5.591   2.913   6.473  0.3686  2.2220  0.1500
   28RES   H20511599   5.336   2.754   6.435  0.9307 -0.2399  3.1341
   28RES   H20611600   5.443   2.813   6.310  0.3572 -1.0026 -1.0598
   28RES   H20711601   5.521   2.624   6.532 -0.7078  0.2683  0.1570
   28RES   H20811602   5.637   2.709   6.414 -0.2520 -1.1277 -1.6514
   28RES   H20911603   5.422   2.518   6.307 -1.0401  1.3053  1.5267
   28RES   H21011604   5.590   2.476   6.341 -0.0435 -0.0845  0.3074
   28RES   H21111605   5.562   2.589   6.224  0.2313  0.3453  0.2086
   28RES   C21211606   5.577   3.210   6.476  0.0880  0.0018 -0.1337
   28RES   C21311607   5.665   3.283   6.579 -0.0349 -0.2065  0.4498
   28RES   C21411608   5.743   3.169   6.653 -0.2494 -0.3977 -0.5387
   28RES   C21511609   5.801   3.188   6.791 -0.4238 -0.2397 -0.9449
   28RES   C21611610   5.876   3.066   6.850  0.2569  0.4512  0.2318
   28RES   C21711611   5.915   3.103   7.002 -0.4551  0.2386 -0.2632
   28RES   C21811612   5.960   2.987   7.087 -0.3690 -0.5201 -0.1468
   28RES   H21911613   5.556   3.270   6.387 -0.4863  1.6976  1.1036
   28RES   H22011614   5.631   3.122   6.442  0.5601 -0.5984  2.0823
   28RES   H22111615   5.601   3.340   6.645 -0.0489  1.0981 -0.6644
   28RES   H22211616   5.680   3.081   6.664 -2.3577  1.3861  2.4697
   28RES   H22311617   5.826   3.139   6.589  0.0574 -0.0660 -0.3019
   28RES   H22411618   5.728   3.223   6.863 -0.4860  1.6672 -1.8891
   28RES   H22511619   5.863   3.274   6.767 -1.0140 -0.0086 -1.6784
   28RES   H22611620   5.819   2.974   6.849  0.3436  0.3077 -4.4504
   28RES   H22711621   5.960   3.033   6.787 -1.1413 -1.3599 -0.7355
   28RES   H22811622   6.002   3.168   6.993  0.0229 -0.1877  1.0366
   28RES   H22911623   5.833   3.152   7.054 -1.6080 -4.1850  2.3531
   28RES   H23011624   5.865   2.935   7.098 -1.0980  0.8957  0.4542
   28RES   H23111625   6.003   3.008   7.185  0.3154  0.5381 -0.6684
   28RES   H23211626   6.044   2.936   7.039 -0.2701 -0.8839  0.4014
   28RES   C23311627   5.773   3.379   6.517 -0.3658  0.5780 -0.2184
   28RES   C23411628   5.737   3.522   6.486  0.3535 -0.0933  0.3803
   28RES   C23511629   5.652   3.544   6.359  0.1878  0.2030  0.0213
   28RES   C23611630   5.662   3.691   6.298 -0.3341  0.7446  0.2053
   28RES   C23711631   5.584   3.692   6.171  0.0215  0.5028 -0.0931
   28RES   C23811632   5.600   3.827   6.104 -0.4230 -0.4730  0.5648
   28RES   C23911633   5.534   3.831   5.964 -0.1681 -0.5674  0.3666
   28RES   H24011634   5.819   3.343   6.426 -0.5397  0.4195 -0.2429
   28RES   H24111635   5.858   3.391   6.584  0.0864  0.3408 -0.7573
   28RES   H24211636   5.825   3.584   6.469  1.2189 -2.0132 -2.7289
   28RES   H24311637   5.549   3.525   6.390  1.3724  1.1971  5.1544
   28RES   H24411638   5.677   3.470   6.284 -1.1548 -0.6790  0.4397
   28RES   H24511639   5.769   3.706   6.287 -0.2405  0.6145  0.8954
   28RES   H24611640   5.622   3.769   6.363  0.7544  0.4315  1.2725
   28RES   H24711641   5.480   3.662   6.183  0.1973 -0.5860 -1.1139
   28RES   H24811642   5.628   3.615   6.107 -1.2392  1.2288 -1.8695
   28RES   H24911643   5.570   3.909   6.169  0.3647 -0.9923  1.5852
   28RES   H25011644   5.704   3.858   6.093 -0.3075 -1.1973 -0.5169
   28RES   H25111645   5.440   3.777   5.956  0.4807 -1.7900  0.7584
   28RES   H25211646   5.502   3.932   5.941  2.0105  0.3240  1.1271
   28RES   H25311647   5.603   3.783   5.894 -1.8227 -1.6639 -0.5265
   28RES   C25411648   5.681   3.596   6.609  0.2098  0.4372  0.2862
   28RES   C25511649   5.765   3.594   6.743  0.3115 -0.3505 -0.7655
   28RES   C25611650   5.665   3.584   6.856 -0.5433 -0.5189  0.4923
   28RES   C25711651   5.722   3.556   6.998 -0.9754 -0.7659 -0.3292
   28RES   C25811652   5.613   3.497   7.094 -0.3884 -0.1756  0.2188
   28RES   C25911653   5.494   3.592   7.131 -0.8676  0.3750  0.3813
   28RES   C26011654   5.386   3.526   7.212  0.1620 -0.3362 -0.0014
   28RES   H26111655   5.585   3.547   6.624  1.3119 -2.2946 -1.1278
   28RES   H26211656   5.653   3.695   6.571  1.2259 -0.1968 -2.2356
   28RES   H26311657   5.817   3.499   6.753 -0.2320 -0.6906 -1.1644
   28RES   H26411658   5.589   3.510   6.835 -0.2552 -1.0570  1.3102
   28RES   H26511659   5.609   3.678   6.864  1.8387  1.1829 -1.7321
   28RES   H26611660   5.816   3.501   6.989 -1.1049 -1.0209 -0.1422
   28RES   H26711661   5.746   3.654   7.039 -1.8647 -0.3376 -0.8051
   28RES   H26811662   5.675   3.467   7.179 -0.2377  0.7893  0.4567
   28RES   H26911663   5.584   3.398   7.060 -1.4521 -0.2365  1.2988
   28RES   H27011664   5.535   3.676   7.188  0.8420 -0.0076 -0.2438
   28RES   H27111665   5.459   3.641   7.040 -1.0207 -1.2959 -0.4714
   28RES   H27211666   5.317   3.467   7.151  0.3981  0.7123 -1.3167
   28RES   H27311667   5.427   3.457   7.286 -1.7815 -0.0136  1.4208
   28RES   H27411668   5.324   3.604   7.256 -0.5987  0.1519 -1.8840
   28RES   C27511669   5.863   3.716   6.771 -0.0806  0.5299 -0.4576
   28RES   C27611670   5.976   3.747   6.670  0.1899 -0.0178 -0.2509
   28RES   C27711671   6.065   3.619   6.648  0.4255 -0.0568 -0.2582
   28RES   C27811672   6.139   3.578   6.775 -0.8779  0.7304  0.4718
   28RES   C27911673   6.240   3.464   6.751 -0.3766 -0.4806 -0.4044
   28RES   C28011674   6.177   3.326   6.739  0.0418 -0.5963 -0.0781
   28RES   C28111675   6.253   3.217   6.674 -0.2367  0.2550  0.1446
   28RES   H28211676   5.911   3.717   6.869  0.0680 -1.2144 -0.4976
   28RES   H28311677   5.792   3.799   6.764  0.2637  1.0132  1.4584
   28RES   H28411678   5.919   3.767   6.580 -1.0901 -1.0074  0.3162
   28RES   H28511679   6.014   3.534   6.602 -2.4678  0.8982  1.0425
   28RES   H28611680   6.147   3.639   6.580  0.5584 -0.8005 -0.3218
   28RES   H28711681   6.081   3.552   6.864 -3.3981  0.4831 -1.1914
   28RES   H28811682   6.181   3.671   6.813 -1.3581  1.3149 -0.4023
   28RES   H28911683   6.310   3.455   6.834 -0.1696 -0.3472 -0.5625
   28RES   H29011684   6.301   3.481   6.662 -0.5122 -0.7160 -0.5442
   28RES   H29111685   6.134   3.297   6.835 -1.5631  2.3534  0.1482
   28RES   H29211686   6.083   3.340   6.685 -1.0291 -2.7259  1.1766
   28RES   H29311687   6.232   3.231   6.568 -0.5772 -2.2977 -0.1587
   28RES   H29411688   6.208   3.123   6.708 -0.6181 -0.5732 -2.4771
   28RES   H29511689   6.358   3.218   6.703 -0.5790 -0.3274  1.4521
   28RES   C29611690   6.058   3.873   6.691 -0.7158 -0.3043 -0.2973
   28RES   C29711691   5.980   4.002   6.692 -0.4156 -0.4143 -0.8631
   28RES   C29811692   5.890   4.031   6.566  0.0695 -0.2717  0.1552
   28RES   C29911693   5.974   4.033   6.434  0.2750 -0.0522 -0.2091
   28RES   C30011694   5.874   4.057   6.318 -0.1386 -0.2185  0.4417
   28RES   C30111695   5.938   4.063   6.181 -0.3268  0.1146  0.1293
   28RES   C30211696   5.992   3.929   6.142 -0.1309  0.6133  0.7662
   28RES   H30311697   6.127   3.872   6.775  0.7115  2.9196 -1.3295
   28RES   H30411698   6.128   3.889   6.609  0.6301 -0.4943  0.8067
   28RES   H30511699   5.905   3.988   6.770  1.2236 -1.1193  0.5974
   28RES   H30611700   5.809   3.959   6.554 -0.1927  0.2271 -1.1262
   28RES   H30711701   5.834   4.124   6.576  0.7272  0.1605 -0.1686
   28RES   H30811702   6.043   3.951   6.414  2.6858  2.0875 -0.9034
   28RES   H30911703   6.043   4.117   6.441  1.0593 -0.4460 -2.6789
   28RES   H31011704   5.822   4.152   6.317  1.8790  0.9043 -0.8957
   28RES   H31111705   5.792   3.986   6.322  1.3013 -1.9453  0.1961
   28RES   H31211706   5.863   4.105   6.115  0.5654  0.2576 -0.8056
   28RES   H31311707   6.017   4.137   6.177  1.0154 -1.2875  0.2633
   28RES   H31411708   6.042   3.879   6.225  0.7404  0.4544  0.1508
   28RES   H31511709   5.910   3.862   6.115  0.3914 -0.4525  1.7939
   28RES   H31611710   6.061   3.943   6.059 -2.9614  0.3588 -1.7336
   28RES   C31711711   6.064   4.119   6.743  0.1406  0.0314 -1.0965
   28RES   C31811712   6.093   4.134   6.894 -0.6647 -0.5474 -0.1206
   28RES   C31911713   6.213   4.224   6.931  0.9058 -0.0625 -0.1784
   28RES   C32011714   6.196   4.373   6.884  0.2905  0.3375  0.1865
   28RES   C32111715   6.334   4.447   6.875 -0.6847 -1.0649 -0.2061
   28RES   C32211716   6.331   4.594   6.815 -0.2586  0.3212 -0.4079
   28RES   C32311717   6.414   4.716   6.877 -0.0223  0.3475  0.2834
   28RES   H32411718   6.016   4.206   6.698 -0.5625 -1.5257 -3.4569
   28RES   H32511719   6.158   4.115   6.687  0.4261  1.6890 -0.7679
   28RES   H32611720   6.120   4.034   6.929  0.2186  0.2072  1.4289
   28RES   H32711721   6.303   4.192   6.880  1.3757 -1.7576  1.6701
   28RES   H32811722   6.224   4.223   7.039  0.6490  2.0856 -0.1011
   28RES   H32911723   6.130   4.432   6.948 -0.5023  0.3624 -0.6423
   28RES   H33011724   6.158   4.377   6.783  1.7974  0.4872 -0.3912
   28RES   H33111725   6.414   4.385   6.836  1.0104  0.3180  0.9808
   28RES   H33211726   6.355   4.451   6.982 -1.0500 -3.1338 -0.0512
   28RES   H33311727   6.224   4.615   6.825 -0.5768 -1.6104  0.5171
   28RES   H33411728   6.357   4.596   6.709  1.3877 -0.0371 -0.0164
   28RES   H33511729   6.374   4.816   6.860  0.0993  0.2843 -0.4068
   28RES   H33611730   6.518   4.703   6.848 -0.0337  1.1922 -0.1503
   28RES   H33711731   6.405   4.711   6.985 -1.7951 -0.5793  0.1090
   28RES   C33811732   5.964   4.162   6.971 -0.3068 -0.5368 -0.9978
   28RES   C33911733   5.911   4.042   7.063  0.3332 -0.4180  0.3382
   28RES   C34011734   5.764   4.051   7.098 -0.0123 -0.3493  0.9343
   28RES   C34111735   5.667   3.998   6.987 -0.1546  0.4047 -0.2444
   28RES   C34211736   5.515   4.031   7.027 -0.1548 -0.0297 -0.3246
   28RES   C34311737   5.415   3.977   6.929 -0.5880  0.3131  0.2574
   28RES   C34411738   5.271   3.996   6.970  0.2645  0.0701 -0.2896
   28RES   H34511739   5.887   4.185   6.897 -0.3697 -0.8385 -1.0266
   28RES   H34611740   5.967   4.255   7.028 -1.9709 -0.6520 -0.6927
   28RES   H34711741   5.928   3.945   7.015 -1.2016  0.1684 -1.4343
   28RES   H34811742   5.746   3.997   7.191  2.2193 -0.9272  1.0454
   28RES   H34911743   5.742   4.155   7.120 -2.6902 -0.6913  0.0563
   28RES   H35011744   5.677   3.892   6.963 -0.8755  0.4004 -0.5551
   28RES   H35111745   5.709   4.053   6.902  1.1471  0.5410  0.4750
   28RES   H35211746   5.495   3.983   7.123 -2.3522  1.4908  0.0020
   28RES   H35311747   5.497   4.134   7.058  1.0006 -0.4416  1.8381
   28RES   H35411748   5.431   4.033   6.837  0.8963 -1.1783 -0.4223
   28RES   H35511749   5.434   3.873   6.900 -1.1714  0.0205  0.9253
   28RES   H35611750   5.251   4.092   7.017 -0.3355 -0.0282 -0.3393
   28RES   H35711751   5.241   3.911   7.032 -2.3745 -0.0287 -1.6199
   28RES   H35811752   5.210   3.994   6.879 -0.5896 -2.2179  0.2911
   28RES   C35911753   5.991   4.037   7.193  0.0514 -0.6853 -0.1775
   28RES   C36011754   5.999   3.905   7.277  1.1508 -0.5553  0.0952
   28RES   C36111755   6.123   3.822   7.221  0.8125  0.8155 -0.6480
   28RES   C36211756   6.135   3.676   7.277  0.7844 -0.0904 -0.3813
   28RES   C36311757   6.015   3.586   7.246  0.8242  0.0677  0.8606
   28RES   C36411758   6.023   3.466   7.340  0.6220 -0.2644 -0.2496
   28RES   C36511759   5.920   3.359   7.303 -0.2977  0.3625  0.1865
   28RES   H36611760   5.948   4.108   7.264 -1.4636 -0.5469 -1.2022
   28RES   H36711761   6.093   4.065   7.166 -0.1444 -0.9645 -1.2238
   28RES   H36811762   5.908   3.847   7.265  0.0806  1.0289  0.3604
   28RES   H36911763   6.108   3.819   7.114 -0.3824 -0.1994 -0.4661
   28RES   H37011764   6.216   3.878   7.236  1.2542  0.1236 -0.7669
   28RES   H37111765   6.228   3.627   7.248  0.2529 -0.7568 -0.9697
   28RES   H37211766   6.136   3.680   7.386  2.0107 -3.4824 -0.1945
   28RES   H37311767   5.918   3.631   7.263  0.8422  0.3975  0.0813
   28RES   H37411768   6.023   3.547   7.144 -2.1021  0.7350  0.3311
   28RES   H37511769   6.122   3.423   7.329  1.1917  0.4061  1.9755
   28RES   H37611770   6.026   3.500   7.444  2.0929 -0.8103 -0.1083
   28RES   H37711771   5.822   3.382   7.345 -0.0193  0.5053  0.7590
   28RES   H37811772   5.911   3.349   7.194 -3.3118  0.7204  0.3455
   28RES   H37911773   5.943   3.266   7.354  0.4413  1.9705  2.8613
   28RES   C38011774   6.012   3.926   7.432  0.0902  0.4126  0.2412
   28RES   C38111775   5.894   3.985   7.500 -0.1547 -0.2450  0.1190
   28RES   C38211776   5.824   3.895   7.600 -0.2795  0.1779  0.2952
   28RES   C38311777   5.762   3.765   7.535  0.5922  0.0701 -0.2775
   28RES   C38411778   5.665   3.686   7.626 -0.1554 -0.5663  0.5018
   28RES   C38511779   5.609   3.557   7.547 -0.0650  0.1337 -0.2606
   28RES   C38611780   5.549   3.452   7.638 -0.6075 -1.1648 -0.4832
   28RES   H38711781   6.029   3.829   7.479 -0.1634 -0.7036 -1.9093
   28RES   H38811782   6.104   3.984   7.442  1.1191 -1.5039  2.2545
   28RES   H38911783   5.815   3.991   7.426  1.7113  1.3199 -1.7949
   28RES   H39011784   5.742   3.952   7.645  0.1830  2.0822 -1.1994
   28RES   H39111785   5.892   3.866   7.680 -3.3367 -2.8757  1.9511
   28RES   H39211786   5.711   3.783   7.441 -0.0404 -1.6817 -0.2885
   28RES   H39311787   5.841   3.696   7.504 -1.4615 -1.7951 -1.4639
   28RES   H39411788   5.722   3.652   7.712  1.3085  2.0433  0.6230
   28RES   H39511789   5.590   3.754   7.666  0.5785  0.7684 -0.3144
   28RES   H39611790   5.690   3.510   7.490  1.3700  1.9881  0.1888
   28RES   H39711791   5.534   3.580   7.471  0.4204  2.3216 -0.1178
   28RES   H39811792   5.531   3.375   7.563  0.0918 -1.1899 -0.6288
   28RES   H39911793   5.454   3.484   7.681 -1.2128  0.7376 -3.0721
   28RES   H40011794   5.609   3.407   7.717  0.6622  1.1207 -0.1162
   28RES   C40111795   5.930   4.135   7.556 -0.7460 -0.5971  0.2563
   28RES   C40211796   5.802   4.218   7.580  0.2476  0.7070 -0.2662
   28RES   C40311797   5.828   4.365   7.628 -0.1879 -1.0409 -0.0288
   28RES   C40411798   5.826   4.377   0.055  0.0529 -0.4859 -0.2999
   28RES   C40511799   5.877   4.524   0.080 -0.2781 -0.1264 -0.7338
   28RES   C40611800   5.881   4.564   0.226  0.3539  0.4938 -0.8532
   28RES   C40711801   5.923   4.706   0.250 -0.2546 -0.1150  0.5383
   28RES   H40811802   5.990   4.203   7.496  1.3537 -2.1759  0.5038
   28RES   H40911803   5.984   4.125   7.650  0.1991 -0.2563 -0.2501
   28RES   H41011804   5.748   4.167   7.660 -0.6156  1.8021 -0.1368
   28RES   H41111805   5.755   4.433   7.585 -0.9738 -2.1060 -0.4066
   28RES   H41211806   5.918   4.408   7.585 -1.0562 -0.1683 -1.0054
   28RES   H41311807   5.887   4.311   0.118  0.1367 -0.1038  0.0207
   28RES   H41411808   5.730   4.366   0.105  0.4978  0.7102  0.8582
   28RES   H41511809   5.980   4.533   0.046 -0.2287  1.6821 -0.1833
   28RES   H41611810   5.817   4.600   0.028 -0.5311  0.4575  0.3941
   28RES   H41711811   5.779   4.549   0.262  0.5493 -3.9082 -1.7836
   28RES   H41811812   5.941   4.495   0.285 -2.7281 -1.8296 -0.2823
   28RES   H41911813   6.027   4.728   0.224 -0.9006  0.2451 -1.8770
   28RES   H42011814   5.933   4.721   0.357 -1.4832 -0.9409  0.7759
   28RES   H42111815   5.854   4.773   0.199 -1.9945 -3.4836 -1.7120
   28RES   H42211816   5.742   4.216   7.489 -1.0524  2.3954  0.5173
   29RES     C111817   6.976   5.213   5.463  0.3822 -0.2116 -0.6993
   29RES     C211818   7.107   5.162   5.394  0.6428  0.3165  0.2121
   29RES     C311819   7.076   5.107   5.254  0.0257  0.5099 -0.2084
   29RES     C411820   7.028   5.211   5.160  0.0854  0.0084  0.1569
   29RES     C511821   6.985   5.156   5.020 -0.1424 -0.5048 -0.0666
   29RES     C611822   6.998   5.267   4.908 -0.0225  0.3315  0.4584
   29RES     C711823   6.972   5.216   4.772 -0.7976 -0.5267 -0.5644
   29RES     H811824   6.934   5.300   5.411  0.1787  1.2837  1.8890
   29RES     H911825   6.995   5.240   5.566  3.6161 -5.4008  0.2357
   29RES    H1011826   7.177   5.242   5.372  0.0741  0.6354 -0.4817
   29RES    H1111827   7.164   5.064   5.206 -0.1419 -1.3843  1.1019
   29RES    H1211828   6.998   5.030   5.255  0.5477 -0.0214 -0.2433
   29RES    H1311829   6.955   5.282   5.200  0.0516  1.4189 -2.3189
   29RES    H1411830   7.105   5.288   5.148  2.1858 -2.1232 -0.3698
   29RES    H1511831   6.885   5.122   5.046 -1.1385  0.7500 -2.1723
   29RES    H1611832   7.038   5.065   4.994  0.9847 -0.6013  2.4220
   29RES    H1711833   7.095   5.315   4.925  0.3372 -1.2701  3.2869
   29RES    H1811834   6.934   5.353   4.922 -1.8463 -1.1192  1.3278
   29RES    H1911835   7.040   5.135   4.746 -0.3636 -0.4833  0.3871
   29RES    H2011836   6.989   5.297   4.701 -0.6184 -0.6502 -0.6640
   29RES    H2111837   6.869   5.184   4.757 -1.1978 -0.3922  1.7614
   29RES    H2211838   6.897   5.138   5.455  0.1639 -0.2378  1.6288
   29RES    C2311839   7.173   5.071   5.501 -0.1665  0.2359 -0.4593
   29RES    C2411840   7.296   4.995   5.461 -0.3829 -0.2450  0.5271
   29RES    C2511841   7.321   4.872   5.550  0.3066 -0.2861  0.2640
   29RES    C2611842   7.364   4.918   5.698  0.2683 -0.3996  0.2416
   29RES    C2711843   7.364   4.813   5.811  0.0045 -0.4246 -0.3486
   29RES    C2811844   7.490   4.733   5.808  0.2879 -0.3837  0.4571
   29RES    C2911845   7.491   4.635   5.924  0.2056  0.0195 -0.0393
   29RES    H3011846   7.190   5.133   5.589 -1.5632  0.0324 -0.0198
   29RES    H3111847   7.099   4.995   5.530 -0.1441  0.1476 -0.6328
   29RES    H3211848   7.266   4.949   5.367  0.4494 -0.9015  0.5752
   29RES    H3311849   7.387   4.803   5.496 -1.2221 -0.8275 -0.9317
   29RES    H3411850   7.226   4.821   5.536  0.6245 -0.4371 -1.4687
   29RES    H3511851   7.298   4.999   5.727  1.6884  0.4000  1.2696
   29RES    H3611852   7.461   4.965   5.705  0.0045 -0.0835  1.9637
   29RES    H3711853   7.274   4.754   5.795  0.3329 -0.0812 -3.8837
   29RES    H3811854   7.361   4.853   5.912  1.3592  1.7931 -1.1419
   29RES    H3911855   7.569   4.808   5.804  0.6169 -0.7845 -0.5412
   29RES    H4011856   7.498   4.682   5.712  0.3773 -0.6027  0.5802
   29RES    H4111857   7.497   4.682   6.022 -0.2483 -1.4145  0.6932
   29RES    H4211858   7.402   4.572   5.932 -0.0225 -0.0825 -2.9150
   29RES    H4311859   7.579   4.571   5.918 -0.4148 -0.8034 -0.5806
   29RES    C4411860   7.420   5.083   5.449 -0.6980 -0.2193  0.2610
   29RES    C4511861   7.555   5.029   5.389  0.4042  0.1793 -0.1523
   29RES    C4611862   7.543   4.984   5.245 -0.0263 -0.5024  0.6625
   29RES    C4711863   7.490   5.090   5.145 -0.0420 -0.1317  0.1320
   29RES    C4811864   7.428   5.047   5.010 -0.7751  0.7715  0.1248
   29RES    C4911865   7.397   5.168   4.917 -0.2911 -0.0013  0.2201
   29RES    C5011866   7.334   5.122   4.791  0.2116 -0.3016 -0.2102
   29RES    H5111867   7.442   5.135   5.542  2.1496 -1.9279  0.5900
   29RES    H5211868   7.385   5.176   5.403  1.3217 -0.8638 -2.7261
   29RES    H5311869   7.571   4.941   5.451  1.9894  0.2695 -0.4118
   29RES    H5411870   7.475   4.898   5.247 -0.1224 -0.4241  0.7731
   29RES    H5511871   7.639   4.952   5.206  0.6638  2.5237 -0.2575
   29RES    H5611872   7.405   5.143   5.188 -0.2955 -0.8694  0.5468
   29RES    H5711873   7.575   5.157   5.129 -0.5510  0.1857 -1.2893
   29RES    H5811874   7.336   4.992   5.030 -0.3443 -0.3389 -0.9509
   29RES    H5911875   7.492   4.975   4.959 -0.1611  1.4801 -0.1263
   29RES    H6011876   7.486   5.224   4.892 -0.6807  0.5742  0.1218
   29RES    H6111877   7.335   5.237   4.974  0.8391 -0.0923  1.5924
   29RES    H6211878   7.399   5.045   4.750  0.5965  0.6632 -1.4405
   29RES    H6311879   7.328   5.212   4.730  1.4542  0.1083  0.2554
   29RES    H6411880   7.239   5.075   4.816  0.1261 -1.2631 -2.2680
   29RES    C6511881   7.670   5.133   5.424  0.8221  0.5918  0.3039
   29RES    C6611882   0.064   5.081   5.504 -0.0886 -0.5422 -0.2494
   29RES    C6711883   0.140   5.195   5.577 -0.3848 -0.2953 -0.0745
   29RES    C6811884   0.183   5.299   5.476 -0.2124 -0.4692  0.4571
   29RES    C6911885   0.244   5.426   5.548 -0.3073  0.0709  0.4941
   29RES    C7011886   0.271   5.540   5.446  0.2712  0.1168  0.3009
   29RES    C7111887   0.383   5.634   5.485 -0.3444 -0.0934 -0.2120
   29RES    H7211888   7.696   5.173   5.326  1.7126 -0.4734  0.0981
   29RES    H7311889   7.629   5.222   5.474  1.7679  1.2916 -0.1496
   29RES    H7411890   0.022   5.015   5.579 -0.5230  2.1761  1.9786
   29RES    H7511891   0.071   5.243   5.646 -0.3717 -0.3648 -0.0136
   29RES    H7611892   0.232   5.166   5.630 -1.7262  1.5518  3.4591
   29RES    H7711893   0.264   5.256   5.418 -1.0946  0.7079 -1.7333
   29RES    H7811894   0.109   5.328   5.401  1.2462  1.0956 -0.4277
   29RES    H7911895   0.183   5.473   5.625 -1.0651 -1.6006  0.9438
   29RES    H8011896   0.338   5.400   5.596 -1.4289  1.5183  3.6271
   29RES    H8111897   0.178   5.597   5.441  0.6570  0.6767 -0.3983
   29RES    H8211898   0.309   5.506   5.350 -1.7407 -0.9367 -0.1433
   29RES    H8311899   0.479   5.582   5.485  0.5630  1.5384 -1.2812
   29RES    H8411900   0.382   5.722   5.421 -1.4279 -0.1870 -0.3328
   29RES    H8511901   0.372   5.672   5.586  0.7550  1.5967 -0.7030
   29RES    C8611902   0.154   4.973   5.432  0.3121 -0.1002  0.8111
   29RES    C8711903   0.277   4.925   5.511 -0.1971 -0.1816 -0.0797
   29RES    C8811904   0.234   4.836   5.630 -0.8487  0.6267 -0.4664
   29RES    C8911905   0.144   4.717   5.600  0.3689 -0.2364 -0.4007
   29RES    C9011906   0.126   4.630   5.727 -0.3379  0.0405 -0.8423
   29RES    C9111907   0.039   4.497   5.708 -0.0729  0.1208  0.9444
   29RES    C9211908   0.058   4.416   5.839 -0.0351 -0.0693  0.5210
   29RES    H9311909   0.092   4.891   5.398 -0.1328  0.1434  1.0296
   29RES    H9411910   0.179   5.020   5.337 -2.7533 -1.3222 -0.6615
   29RES    H9511911   0.341   5.004   5.549 -0.7388  0.2401 -0.0401
   29RES    H9611912   0.324   4.798   5.678 -0.1287  1.3763 -1.2060
   29RES    H9711913   0.184   4.898   5.704  1.7496  1.8368  0.2973
   29RES    H9811914   0.050   4.760   5.567 -1.3548 -1.7821  2.3229
   29RES    H9911915   0.195   4.652   5.528  0.1313 -0.1848 -0.6148
   29RES   H10011916   0.080   4.695   5.802 -0.7773 -0.7941 -0.3931
   29RES   H10111917   0.220   4.602   5.776 -0.5983 -1.3807 -1.1536
   29RES   H10211918   7.662   4.532   5.703  0.1615  1.3604  3.4046
   29RES   H10311919   0.060   4.438   5.619  0.6344  1.1235  0.4346
   29RES   H10411920   0.159   4.376   5.849 -0.3176 -0.6798  0.9793
   29RES   H10511921   7.709   4.339   5.853  0.4330 -0.7504 -0.6068
   29RES   H10611922   0.052   4.482   5.925 -1.6223 -2.2519  2.1348
   29RES   C10711923   0.360   4.854   5.405 -0.5671  0.1584  0.6263
   29RES   C10811924   0.506   4.808   5.441 -0.5488  0.1037 -0.0861
   29RES   C10911925   0.564   4.706   5.341 -0.0862  0.2992  0.4167
   29RES   C11011926   0.480   4.586   5.301 -0.3691 -0.2405  0.1827
   29RES   C11111927   0.562   4.476   5.221 -0.1158 -0.0635 -0.2247
   29RES   C11211928   0.483   4.348   5.179 -0.8431  0.1622  0.2685
   29RES   C11311929   0.584   4.262   5.105  0.0295 -0.5158  0.6075
   29RES   H11411930   0.385   4.917   5.319 -0.7256  0.7520  1.0142
   29RES   H11511931   0.296   4.777   5.361  0.3839 -0.1824 -0.1886
   29RES   H11611932   0.494   4.749   5.532  0.5582  2.8305  1.8789
   29RES   H11711933   0.648   4.668   5.398  0.6189  0.6270 -0.3815
   29RES   H11811934   0.602   4.757   5.252 -0.0613 -2.9891 -1.5436
   29RES   H11911935   0.427   4.544   5.387 -0.5547  0.6626  0.5158
   29RES   H12011936   0.401   4.622   5.234  0.5183  1.3860 -0.0061
   29RES   H12111937   0.636   4.435   5.289 -1.5492 -0.9406  0.8460
   29RES   H12211938   0.612   4.527   5.139  0.0216 -2.3347 -1.6006
   29RES   H12311939   0.445   4.286   5.261 -2.3178 -0.6188 -0.9612
   29RES   H12411940   0.403   4.376   5.110 -0.1388  1.6782  0.0542
   29RES   H12511941   0.648   4.205   5.172  0.3688  2.4144  2.8836
   29RES   H12611942   0.520   4.189   5.055  0.6814 -0.2721 -0.5975
   29RES   H12711943   0.647   4.306   5.028  0.4270 -0.0421  1.1998
   29RES   C12811944   0.597   4.928   5.474 -0.0948 -0.0191 -0.8072
   29RES   C12911945   0.642   4.936   5.622  1.2377  0.4531 -0.4686
   29RES   C13011946   0.684   5.082   5.660 -0.2718  0.6791 -0.2713
   29RES   C13111947   0.564   5.171   5.697  0.0523  0.2066  0.6229
   29RES   C13211948   0.611   5.292   5.782  0.3400  0.1273  0.2878
   29RES   C13311949   0.680   5.403   5.707  0.5018  0.5430  0.2715
   29RES   C13411950   0.724   5.526   5.785  0.5291 -0.4509  0.9875
   29RES   H13511951   0.689   4.926   5.416 -0.0916 -1.2029 -0.7651
   29RES   H13611952   0.546   5.021   5.447 -3.0820 -0.8097  1.8441
   29RES   H13711953   0.552   4.899   5.672  1.0412 -1.2927 -2.0428
   29RES   H13811954   0.755   5.136   5.597  0.9297 -1.1379 -0.5104
   29RES   H13911955   0.743   5.074   5.752 -1.3498  2.3642  0.5968
   29RES   H14011956   0.494   5.114   5.758 -0.7366  1.8385  1.2655
   29RES   H14111957   0.504   5.203   5.612  0.6122  0.4326  0.3154
   29RES   H14211958   0.664   5.255   5.869 -0.2078  0.8672  0.9531
   29RES   H14311959   0.519   5.329   5.828 -0.4385 -0.3890 -0.8374
   29RES   H14411960   0.614   5.437   5.628  1.0171  0.2023 -0.3135
   29RES   H14511961   0.767   5.366   5.652 -1.2124 -0.8649 -1.5764
   29RES   H14611962   0.636   5.586   5.808 -0.8336 -2.6736  1.7130
   29RES   H14711963   0.800   5.584   5.732 -0.8338  1.7961  1.4476
   29RES   H14811964   0.762   5.495   5.882  0.0410 -1.2696  0.9252
   29RES   C14911965   0.760   4.840   5.641 -0.0061  0.0509 -0.4557
   29RES   C15011966   0.796   4.808   5.782 -0.5565 -0.1381 -0.6885
   29RES   C15111967   0.929   4.728   5.782 -0.3723 -0.1030  0.7251
   29RES   C15211968   1.053   4.806   5.753 -0.4691 -0.0530  0.3105
   29RES   C15311969   1.183   4.729   5.794 -0.2065 -0.2014 -0.6840
   29RES   C15411970   1.312   4.799   5.748  0.1566 -0.0783 -0.1641
   29RES   C15511971   1.340   4.909   5.852  0.4688 -0.2265 -0.2427
   29RES   H15611972   0.728   4.748   5.592 -1.3646  0.0820  0.3612
   29RES   H15711973   0.842   4.889   5.589  1.3157 -1.2945  0.2710
   29RES   H15811974   0.816   4.897   5.841  1.2303 -1.8817  1.4563
   29RES   H15911975   0.944   4.661   5.867  0.9386 -0.1239  0.4871
   29RES   H16011976   0.916   4.654   5.703  0.2961 -0.3236  0.8172
   29RES   H16111977   1.059   4.898   5.812  2.2296  0.6346 -0.9288
   29RES   H16211978   1.055   4.831   5.647  2.0839 -1.2103  0.0551
   29RES   H16311979   1.193   4.628   5.754 -2.2476 -0.2740 -1.0340
   29RES   H16411980   1.163   4.714   5.900 -0.0037  1.2544 -0.4206
   29RES   H16511981   1.298   4.837   5.646 -2.7201 -0.0714  0.2062
   29RES   H16611982   1.396   4.730   5.754 -0.1162 -0.5537 -1.4445
   29RES   H16711983   1.359   4.862   5.948 -3.1270 -0.0061  0.6849
   29RES   H16811984   1.259   4.980   5.872  2.7583  2.2549  0.4144
   29RES   H16911985   1.429   4.965   5.824  1.0657 -0.1263  1.7579
   29RES   C17011986   0.684   4.725   5.863  0.7504 -0.0542  0.1919
   29RES   C17111987   0.591   4.810   5.950 -0.2957 -0.0303  0.7022
   29RES   C17211988   0.467   4.722   5.979  0.5118  0.5711 -0.0239
   29RES   C17311989   0.488   4.608   6.083 -0.4647  0.2679 -0.2831
   29RES   C17411990   0.368   4.518   6.065 -0.6342  0.8283 -0.0065
   29RES   C17511991   0.360   4.394   6.154 -0.0739  0.0390  0.1615
   29RES   C17611992   0.494   4.327   6.165  0.6155  0.6967  0.1151
   29RES   H17711993   0.738   4.647   5.916  1.6054  0.1015 -0.4499
   29RES   H17811994   0.626   4.668   5.791  0.5066  0.5464 -0.0954
   29RES   H17911995   0.545   4.897   5.902 -0.1107 -1.2252 -1.7314
   29RES   H18011996   0.421   4.700   5.883  0.9436  3.7995 -1.0391
   29RES   H18111997   0.395   4.791   6.023 -0.0323  0.6344 -1.0087
   29RES   H18211998   0.504   4.630   6.189 -0.2543 -0.4608 -0.1580
   29RES   H18311999   0.578   4.556   6.050 -0.9766  0.6313 -2.3073
   29RES   H18412000   0.363   4.485   5.961 -1.0545  1.1727 -0.0959
   29RES   H18512001   0.281   4.582   6.078 -0.5242  0.8031  0.8602
   29RES   H18612002   0.304   4.325   6.091 -0.5201  2.8932 -2.7374
   29RES   H18712003   0.311   4.412   6.249  0.6380  0.0991  0.5182
   29RES   H18812004   0.570   4.384   6.218  1.1610  0.9158 -0.8845
   29RES   H18912005   0.552   4.324   6.073  0.5154  1.2202  0.0333
   29RES   H19012006   0.499   4.227   6.208  1.1295  0.1325 -1.2174
   29RES   C19112007   0.673   4.854   6.077 -0.3463 -0.2111  0.0162
   29RES   C19212008   0.584   4.908   6.191 -0.2585  1.0125 -0.3116
   29RES   C19312009   0.666   4.903   6.313 -0.3743  0.3029  0.0226
   29RES   C19412010   0.695   4.765   6.367  0.1047 -0.0744 -0.5258
   29RES   C19512011   0.591   4.696   6.451 -0.5598  0.0976 -0.5178
   29RES   C19612012   0.632   4.549   6.495  0.7267  0.2660  0.1123
   29RES   C19712013   0.544   4.497   6.604  0.1682  0.1547  0.9053
   29RES   H19812014   0.732   4.941   6.049  0.0430 -0.1153  1.1205
   29RES   H19912015   0.744   4.775   6.101  0.7633  0.5762 -0.6005
   29RES   H20012016   0.494   4.850   6.211  0.2673  0.3982  0.2859
   29RES   H20112017   0.620   4.964   6.391  0.4216  0.8887  0.0398
   29RES   H20212018   0.756   4.959   6.288  1.2373 -1.8926  0.7684
   29RES   H20312019   0.779   4.779   6.435 -0.0753 -0.4673 -0.2173
   29RES   H20412020   0.742   4.702   6.292  0.8850  1.4979 -1.3886
   29RES   H20512021   0.583   4.740   6.550  2.7995  0.4431 -0.3297
   29RES   H20612022   0.495   4.706   6.400 -1.2353 -3.3586 -0.0148
   29RES   H20712023   0.734   4.553   6.533  0.6306 -0.1829  0.4247
   29RES   H20812024   0.620   4.477   6.414 -0.7392 -0.4641  0.9399
   29RES   H20912025   0.437   4.506   6.583 -0.0735  0.1668  2.1304
   29RES   H21012026   0.565   4.536   6.703 -0.4770  1.6715  0.4658
   29RES   H21112027   0.555   4.390   6.621  1.8165  0.4090  1.4751
   29RES   C21212028   0.541   5.054   6.139 -0.8468  0.0084  0.5111
   29RES   C21312029   0.424   5.119   6.217 -0.4790  0.0367  0.0837
   29RES   C21412030   0.401   5.264   6.184  0.0331  0.1583  0.1653
   29RES   C21512031   0.514   5.365   6.223 -0.5461  0.3907 -0.6385
   29RES   C21612032   0.462   5.509   6.199  0.4089  0.3152  0.3304
   29RES   C21712033   0.565   5.618   6.235 -0.2334  0.6237 -0.9054
   29RES   C21812034   0.590   5.619   6.382 -0.0649  0.2885  0.4879
   29RES   H21912035   0.500   5.045   6.039  1.0826  0.2077 -0.3191
   29RES   H22012036   0.623   5.126   6.138  0.8093 -1.8496 -0.9127
   29RES   H22112037   0.451   5.128   6.322 -1.4940 -0.4300  0.3876
   29RES   H22212038   0.360   5.273   6.083  0.2663 -2.2404 -0.1669
   29RES   H22312039   0.318   5.306   6.240 -0.3646 -0.3832 -0.0128
   29RES   H22412040   0.600   5.351   6.157  1.1168 -1.7249  1.8884
   29RES   H22512041   0.546   5.341   6.324  1.4144  0.6308 -1.1851
   29RES   H22612042   0.440   5.513   6.093  2.1388  0.7004 -0.0412
   29RES   H22712043   0.368   5.530   6.250 -0.4832  2.6387 -2.1443
   29RES   H22812044   0.663   5.597   6.194 -0.4648  0.9404 -1.6220
   29RES   H22912045   0.536   5.709   6.183 -0.0859 -0.8055 -3.5462
   29RES   H23012046   0.648   5.531   6.410  1.3456  0.4348 -1.9145
   29RES   H23112047   0.493   5.608   6.430 -0.1051  0.2169  0.3897
   29RES   H23212048   0.629   5.715   6.417  1.8605 -0.2467 -0.1546
   29RES   C23312049   0.292   5.042   6.212 -0.2900 -0.1385 -0.2049
   29RES   C23412050   0.268   4.965   6.338  1.1855  0.9294 -0.1035
   29RES   C23512051   0.219   5.052   6.459  0.6548  1.2133 -0.7649
   29RES   C23612052   0.182   4.959   6.580  0.3914 -0.4998 -0.6967
   29RES   C23712053   0.163   5.034   6.711 -0.0887 -0.4332  0.8536
   29RES   C23812054   0.070   5.150   6.707  0.0160  0.1911  0.5704
   29RES   C23912055   7.663   5.114   6.642 -0.0558  0.7330 -0.3619
   29RES   H24012056   0.295   4.986   6.119  2.0192 -0.1662 -0.1288
   29RES   H24112057   0.212   5.117   6.212 -0.9107 -0.7883  0.0702
   29RES   H24212058   0.360   4.920   6.377  0.8228  0.3792  0.1087
   29RES   H24312059   0.135   5.111   6.423  0.8150  1.0431 -1.4435
   29RES   H24412060   0.303   5.113   6.493  1.0171  0.3843 -0.1546
   29RES   H24512061   0.257   4.880   6.587  0.3794 -0.5664 -1.3068
   29RES   H24612062   0.086   4.912   6.557 -0.5333  0.6369  0.6830
   29RES   H24712063   0.258   5.075   6.745  0.9513  0.6148 -3.0719
   29RES   H24812064   0.142   4.960   6.789 -0.3782 -1.6880 -0.3840
   29RES   H24912065   0.055   5.178   6.811  1.1378  0.5337  0.6455
   29RES   H25012066   0.118   5.239   6.666  0.7766  0.0140  1.0815
   29RES   H25112067   7.673   5.097   6.535  0.6252 -1.0293 -0.0343
   29RES   H25212068   7.619   5.032   6.698  1.2236  1.0553  1.1713
   29RES   H25312069   7.590   5.194   6.643 -1.3258 -0.4133 -0.2482
   29RES   C25412070   0.187   4.836   6.304 -0.1601  0.2470  0.7208
   29RES   C25512071   0.033   4.850   6.283  0.3414 -0.1213 -0.4916
   29RES   C25612072   7.675   4.730   6.319  0.2087 -0.6469 -0.7770
   29RES   C25712073   7.718   4.601   6.244  0.3316 -0.0743  0.0152
   29RES   C25812074   7.624   4.484   6.276 -0.3865  0.0147 -0.0266
   29RES   C25912075   7.655   4.346   6.205  0.3307 -0.7725  0.2812
   29RES   C26012076   7.539   4.249   6.231 -0.6419  1.3525 -0.2441
   29RES   H26112077   0.197   4.762   6.384  2.1359  0.2412  0.4711
   29RES   H26212078   0.237   4.779   6.226  0.9015  1.8774  0.1830
   29RES   H26312079   7.724   4.921   6.357  1.5530 -0.6385  0.5987
   29RES   H26412080   7.574   4.751   6.284 -0.0569 -0.4447  0.1194
   29RES   H26512081   7.683   4.714   6.426 -0.4644 -0.5545 -0.7113
   29RES   H26612082   7.724   4.615   6.136 -0.4619 -1.5935 -0.2297
   29RES   H26712083   0.095   4.572   6.261  0.3580  0.1568  0.2393
   29RES   H26812084   7.523   4.509   6.247 -0.8185  2.0377  3.0095
   29RES   H26912085   7.625   4.468   6.384 -0.1847 -0.8932 -0.1562
   29RES   H27012086   7.652   4.359   6.097 -2.5090 -1.4596  0.2343
   29RES   H27112087   0.029   4.306   6.218 -0.0436 -1.4534  1.1031
   29RES   H27212088   7.443   4.297   6.212 -1.3234 -0.4237 -1.4586
   29RES   H27312089   7.559   4.161   6.169  1.7686  1.7017 -0.0232
   29RES   H27412090   7.535   4.210   6.332 -0.4660 -0.7728 -1.0263
   29RES   C27512091   0.003   4.908   6.140  0.1524  0.2781 -0.6276
   29RES   C27612092   7.668   5.050   6.126  0.0238 -0.4780 -0.1120
   29RES   C27712093   7.523   5.046   6.160  0.0494  0.7261 -0.4853
   29RES   C27812094   7.490   5.069   6.308 -0.0368  0.2438  0.3232
   29RES   C27912095   7.343   5.056   6.332 -0.4631 -0.9978  0.1547
   29RES   C28012096   7.302   5.103   6.470 -0.6904  0.2527 -0.0802
   29RES   C28112097   7.151   5.101   6.478  0.1568 -0.2237 -0.1820
   29RES   H28212098   7.670   4.835   6.086 -0.0431  0.7172 -1.0097
   29RES   H28312099   0.093   4.904   6.078 -0.0374 -0.5909 -0.8597
   29RES   H28412100   7.712   5.124   6.193  0.1902 -1.4335  0.8677
   29RES   H28512101   7.459   5.117   6.108 -0.2852  0.5289 -0.3422
   29RES   H28612102   7.476   4.950   6.137  0.1755  0.5134  0.1349
   29RES   H28712103   7.530   5.167   6.333  0.8918  0.1110 -0.5960
   29RES   H28812104   7.533   4.992   6.372  1.4357  1.0836  0.3643
   29RES   H28912105   7.305   4.955   6.315 -2.2809 -0.8039  2.7365
   29RES   H29012106   7.306   5.128   6.259  1.1527 -2.5232 -2.2362
   29RES   H29112107   7.348   5.041   6.547 -1.8392 -0.8186 -0.2348
   29RES   H29212108   7.344   5.202   6.488  0.2733 -0.6393  2.9385
   29RES   H29312109   7.119   5.178   6.409  0.3360  1.6161  1.7212
   29RES   H29412110   7.117   5.142   6.573  1.2949  1.5779 -0.5248
   29RES   H29512111   7.103   5.007   6.452 -0.0073  0.0150 -0.7420
   29RES   C29612112   7.680   5.088   5.972  0.0593 -0.5872 -0.0889
   29RES   C29712113   7.649   5.241   5.955  0.1279 -0.1950 -0.1869
   29RES   C29812114   7.545   5.260   5.842 -0.0124 -0.0513 -0.5684
   29RES   C29912115   7.447   5.378   5.861  0.2943  1.0056  0.4657
   29RES   C30012116   7.316   5.368   5.776  0.8086 -0.3206 -0.0073
   29RES   C30112117   7.195   5.456   5.837  0.0979  0.8315 -0.6682
   29RES   C30212118   7.240   5.604   5.845  0.1780  0.0336 -0.2261
   29RES   H30312119   0.058   5.072   5.945 -0.1847 -0.9907 -0.8078
   29RES   H30412120   7.619   5.018   5.914  0.0609  0.7182 -1.6967
   29RES   H30512121   7.585   5.261   6.041  0.1520 -0.7891 -0.0274
   29RES   H30612122   7.595   5.261   5.746  0.0358  0.0797 -0.5416
   29RES   H30712123   7.483   5.170   5.832 -0.4037  0.2940 -1.2759
   29RES   H30812124   7.500   5.470   5.838 -0.7835  1.6419  0.5064
   29RES   H30912125   7.407   5.371   5.962 -0.2743 -0.5227  0.1550
   29RES   H31012126   7.277   5.266   5.783 -0.3552  0.1511  0.4636
   29RES   H31112127   7.330   5.391   5.670 -1.2541  2.5485  0.2999
   29RES   H31212128   7.107   5.441   5.775  0.9243 -0.8950 -1.4625
   29RES   H31312129   7.171   5.436   5.942 -1.2420  0.7630 -0.9781
   29RES   H31412130   7.336   5.612   5.895  0.1358  1.7225 -0.3823
   29RES   H31512131   7.256   5.640   5.743 -4.0063 -0.2142 -1.0670
   29RES   H31612132   7.158   5.660   5.889  1.4088  0.8749  1.0109
   29RES   C31712133   0.046   5.336   5.949  0.4762  0.1364  0.4270
   29RES   C31812134   0.023   5.486   5.978  0.0936 -0.2349  0.1985
   29RES   C31912135   7.690   5.516   6.119 -0.0438 -0.3094 -0.4250
   29RES   C32012136   0.051   5.489   6.249 -0.2086  0.6182  0.5053
   29RES   C32112137   7.710   5.514   6.383 -0.4273 -0.0866  0.0772
   29RES   C32212138   0.036   5.437   6.506 -0.3009 -0.1351  0.0527
   29RES   C32312139   0.013   5.511   6.631  0.8981 -0.1236 -0.1735
   29RES   H32412140   0.091   5.331   5.850  0.6988  2.4059  0.3945
   29RES   H32512141   0.116   5.296   6.023 -0.5557 -0.4999  1.0784
   29RES   H32612142   7.691   5.519   5.892  2.8433 -1.9950 -2.4736
   29RES   H32712143   7.600   5.456   6.132  0.2031 -0.2774  1.5649
   29RES   H32812144   7.653   5.618   6.123 -0.4393 -0.4206 -1.1326
   29RES   H32912145   0.137   5.555   6.236  2.0146 -2.0627  1.1753
   29RES   H33012146   0.098   5.391   6.242  1.1167  1.2702  0.0421
   29RES   H33112147   7.609   5.474   6.375  0.1418 -1.6214  0.3064
   29RES   H33212148   7.701   5.622   6.396 -2.8771  0.0957 -2.5527
   29RES   H33312149   0.142   5.421   6.486  0.1222  1.7845  0.7122
   29RES   H33412150   7.715   5.339   6.516  1.9771 -1.2355  0.2850
   29RES   H33512151   0.081   5.594   6.644 -0.1735  0.7322  0.0331
   29RES   H33612152   0.039   5.451   6.718 -0.5773 -1.4186 -0.5874
   29RES   H33712153   7.637   5.541   6.651  0.8883  1.0768 -1.9059
   29RES   C33812154   0.150   5.564   5.946 -0.3737 -0.3712  0.2262
   29RES   C33912155   0.141   5.720   5.950  0.0401 -0.5184 -0.2984
   29RES   C34012156   0.103   5.778   5.814 -0.8109  0.4242 -0.4607
   29RES   C34112157   7.681   5.780   5.777  0.2048  0.8130 -0.2858
   29RES   C34212158   7.622   5.870   5.666  0.4593  0.0387 -0.3727
   29RES   C34312159   7.696   5.851   5.533  0.2327 -0.2697  0.1340
   29RES   C34412160   7.605   5.903   5.423 -0.1939  0.6141  0.6321
   29RES   H34512161   0.193   5.533   5.851  2.2916 -1.4489  1.7337
   29RES   H34612162   0.229   5.522   6.009 -0.3434 -1.9000 -0.8063
   29RES   H34712163   0.068   5.754   6.024  0.1909 -3.1088  1.1036
   29RES   H34812164   0.136   5.882   5.820  2.5947 -0.5712 -0.6286
   29RES   H34912165   0.165   5.740   5.733  0.4534  2.1606 -0.3313
   29RES   H35012166   7.622   5.775   5.869 -0.8989 -1.0917 -1.0571
   29RES   H35112167   7.657   5.683   5.732 -1.0377  1.0762 -0.2128
   29RES   H35212168   7.515   5.853   5.653  0.2373  1.8566 -1.2149
   29RES   H35312169   7.626   5.973   5.702  0.0340 -0.9872  2.7567
   29RES   H35412170   0.063   5.906   5.538 -0.8625  1.8206 -1.9113
   29RES   H35512171   7.722   5.746   5.516  2.4752  0.0254  1.4823
   29RES   H35612172   7.499   5.875   5.421 -0.2941  1.0128  0.1314
   29RES   H35712173   7.648   5.882   5.325  0.0224  0.7760  0.6940
   29RES   H35812174   7.599   6.009   5.445 -1.7593  0.4749  0.9607
   29RES   C35912175   0.272   5.784   6.009 -0.6889  0.4247  0.0969
   29RES   C36012176   0.283   5.935   6.039 -0.4545 -0.1180 -0.4668
   29RES   C36112177   0.162   5.979   6.123 -0.5207 -0.5638 -0.6621
   29RES   C36212178   0.142   6.130   6.167 -0.1108  0.0863  0.7616
   29RES   C36312179   7.726   6.164   6.211 -0.9990  0.1143 -0.3267
   29RES   C36412180   7.709   6.313   6.230 -0.7128 -0.2173 -0.3416
   29RES   C36512181   7.567   6.356   6.250  0.2873  0.0247  0.0032
   29RES   H36612182   0.350   5.756   5.938  0.0313 -1.0093  1.4226
   29RES   H36712183   0.291   5.726   6.099 -1.5509 -0.0818 -0.0400
   29RES   H36812184   0.276   5.990   5.945 -1.9997  0.5174  0.0054
   29RES   H36912185   0.071   5.956   6.068  0.1322  0.5250 -2.2507
   29RES   H37012186   0.159   5.925   6.217  0.4077  1.6264  0.6777
   29RES   H37112187   0.211   6.162   6.245  1.2049 -0.3008 -0.2465
   29RES   H37212188   0.166   6.199   6.087  0.3008 -0.2267  0.6161
   29RES   H37312189   7.655   6.132   6.135 -2.8847  1.6172  0.7505
   29RES   H37412190   7.709   6.104   6.301  0.8254  1.3093  0.8464
   29RES   H37512191   0.043   6.344   6.315  2.2396 -0.0163 -2.4523
   29RES   H37612192   0.028   6.364   6.145  2.1394  0.6285  1.6431
   29RES   H37712193   7.547   6.458   6.284 -0.8269 -0.0114 -0.5177
   29RES   H37812194   7.523   6.351   6.151 -0.5453  0.3555  0.3487
   29RES   H37912195   7.520   6.295   6.327 -1.8617  0.9515 -0.5362
   29RES   C38012196   0.422   5.974   6.105  0.2607  0.5405  0.4214
   29RES   C38112197   0.536   5.966   6.005  0.1708 -0.1598  0.4969
   29RES   C38212198   0.530   6.069   5.887 -0.7393  0.4888 -0.3696
   29RES   C38312199   0.521   5.995   5.747  0.8561 -0.4188 -0.0889
   29RES   C38412200   0.637   5.909   5.704  0.3119  0.4847 -0.9678
   29RES   C38512201   0.632   5.903   5.552 -0.1231  0.3252  0.2489
   29RES   C38612202   0.747   5.825   5.483 -0.7055 -0.5318 -0.2507
   29RES   H38712203   0.413   6.082   6.121  2.6465  0.9643 -0.8544
   29RES   H38812204   0.439   5.914   6.194 -0.7792 -0.6184 -0.1429
   29RES   H38912205   0.541   5.865   5.964 -1.0906 -0.1827  0.3992
   29RES   H39012206   0.620   6.130   5.876 -0.8466  0.1722 -3.3815
   29RES   H39112207   0.442   6.132   5.899  0.0877  1.3667  1.2122
   29RES   H39212208   0.430   5.935   5.754  0.6276  0.0319  0.9023
   29RES   H39312209   0.496   6.066   5.668 -0.8163 -0.0829  0.7066
   29RES   H39412210   0.726   5.956   5.746 -0.2016 -0.6462  1.4798
   29RES   H39512211   0.641   5.810   5.749 -1.5334  2.2508  3.3023
   29RES   H39612212   0.631   6.007   5.518 -0.9558  0.9481  2.1363
   29RES   H39712213   0.534   5.864   5.527  0.0827 -0.7309  1.0691
   29RES   H39812214   0.841   5.862   5.522  0.4022 -1.5045 -1.9341
   29RES   H39912215   0.745   5.824   5.374 -0.5296  0.6184 -0.2698
   29RES   H40012216   0.733   5.718   5.499 -0.6700 -0.3793  0.8287
   29RES   C40112217   0.669   5.984   6.083  0.1379 -0.5486 -0.1913
   29RES   C40212218   0.696   6.120   6.148  0.2356 -0.0018  0.1942
   29RES   C40312219   0.827   6.115   6.220 -0.1506 -0.1323  0.3886
   29RES   C40412220   0.874   6.251   6.272  0.4798  1.0692 -0.1066
   29RES   C40512221   0.780   6.304   6.379  0.6699 -0.0978  0.0367
   29RES   C40612222   0.843   6.429   6.442  0.4252 -0.2531 -0.3465
   29RES   C40712223   0.749   6.511   6.538  0.3776  0.3174 -0.7244
   29RES   H40812224   0.752   5.960   6.017 -0.1060 -1.0932 -0.2988
   29RES   H40912225   0.666   5.914   6.167  1.0693  0.9322  1.1090
   29RES   H41012226   0.612   6.145   6.212 -0.8958  0.0139 -1.2913
   29RES   H41112227   0.909   6.073   6.162 -0.0224 -1.3983  1.4727
   29RES   H41212228   0.817   6.039   6.298 -0.1655 -2.0146 -1.4108
   29RES   H41312229   0.887   6.314   6.184 -1.3872  1.5589 -0.0667
   29RES   H41412230   0.971   6.232   6.317  0.6834  0.4235 -0.8104
   29RES   H41512231   0.678   6.330   6.351  0.4976 -0.3200  0.4617
   29RES   H41612232   0.783   6.223   6.451  1.8290 -1.1370 -1.1671
   29RES   H41712233   0.929   6.403   6.504  1.1451  2.5271 -0.0999
   29RES   H41812234   0.885   6.493   6.365 -1.0098  0.7043 -0.3528
   29RES   H41912235   0.699   6.595   6.490 -1.1444 -0.1588  0.0021
   29RES   H42012236   0.806   6.546   6.624  1.0843 -2.5664  0.0458
   29RES   H42112237   0.672   6.445   6.578  1.8722 -0.0198  1.7124
   29RES   H42212238   0.693   6.201   6.074 -0.6926 -0.5062 -0.3192
   30RES     C112239   1.597   1.233   6.968  0.1905 -0.2400  0.2970
   30RES     C212240   1.500   1.311   6.878  0.2843  0.1667  0.0359
   30RES     C312241   1.568   1.440   6.821  0.1330  0.2753 -0.2087
   30RES     C412242   1.618   1.550   6.912  0.0800 -0.0247  0.1427
   30RES     C512243   1.671   1.678   6.845 -0.0390  0.5686  0.2190
   30RES     C612244   1.694   1.790   6.939 -0.2788  0.7685  0.2542
   30RES     C712245   1.759   1.902   6.852 -0.9996  0.1999 -0.5090
   30RES     H812246   1.631   1.290   7.055  0.2671  0.6869 -0.3289
   30RES     H912247   1.684   1.210   6.906 -0.5493  2.4299 -1.8271
   30RES    H1012248   1.477   1.244   6.796 -0.4232 -0.8609  1.0569
   30RES    H1112249   1.660   1.408   6.773 -0.2846  0.6424 -1.2658
   30RES    H1212250   1.515   1.478   6.733  1.8100  2.1314 -0.4408
   30RES    H1312251   1.533   1.589   6.968 -0.8547 -1.5493 -0.1676
   30RES    H1412252   1.694   1.507   6.977  2.3314  2.1096 -0.9939
   30RES    H1512253   1.600   1.714   6.771  1.0444 -1.8073 -2.0537
   30RES    H1612254   1.758   1.648   6.785 -0.8642 -1.2121 -0.1144
   30RES    H1712255   1.765   1.759   7.016  1.6523 -1.0767 -2.1744
   30RES    H1812256   1.607   1.834   6.986 -1.0942  0.2071 -0.7248
   30RES    H1912257   1.696   1.929   6.767  0.1977  2.5397 -0.6775
   30RES    H2012258   1.843   1.850   6.805  1.0339  2.3965  0.6598
   30RES    H2112259   1.790   1.990   6.908 -0.7105 -1.3339  1.8082
   30RES    H2212260   1.545   1.145   7.005 -0.3750  0.0024  0.0847
   30RES    C2312261   1.373   1.334   6.951 -0.2080  0.2481  0.0332
   30RES    C2412262   1.258   1.407   6.872 -0.1274 -0.0044 -0.4481
   30RES    C2512263   1.153   1.467   6.969 -0.1519  0.3381 -0.4707
   30RES    C2612264   1.184   1.616   7.018  0.0981 -0.6361  0.6538
   30RES    C2712265   1.121   1.631   7.159 -0.6784 -0.1352  0.1883
   30RES    C2812266   1.110   1.773   7.204  0.0302 -0.7603  0.3323
   30RES    C2912267   1.033   1.790   7.344  0.5486 -0.2205  0.4334
   30RES    H3012268   1.324   1.244   6.988 -2.0684  0.2226 -2.4099
   30RES    H3112269   1.386   1.395   7.040 -0.3415  0.9122 -0.3980
   30RES    H3212270   1.310   1.489   6.824 -1.1480 -0.1822 -1.8988
   30RES    H3312271   1.127   1.389   7.040 -0.5088  1.7547  0.9933
   30RES    H3412272   1.056   1.469   6.919 -0.6036 -1.3063  0.3180
   30RES    H3512273   1.145   1.694   6.953  1.8286  2.1796  2.8883
   30RES    H3612274   1.288   1.642   7.036  0.0935  1.5102 -1.9486
   30RES    H3712275   1.185   1.580   7.231 -0.8588  0.1547  0.5548
   30RES    H3812276   1.022   1.585   7.156 -0.2565 -0.9953 -0.9669
   30RES    H3912277   1.047   1.832   7.137  0.3582 -1.1357 -0.3201
   30RES    H4012278   1.206   1.825   7.207 -0.6752  0.4375  2.6205
   30RES    H4112279   1.058   1.705   7.407  3.2387 -1.0761 -1.6798
   30RES    H4212280   1.060   1.882   7.396  0.3651  1.0646 -1.6851
   30RES    H4312281   0.928   1.765   7.332  0.4361 -0.1585  1.2673
   30RES    C4412282   1.195   1.322   6.753  0.3363  0.4953 -0.2510
   30RES    C4512283   1.132   1.399   6.642  0.4286 -0.2385  0.3708
   30RES    C4612284   1.224   1.465   6.545  0.1752 -0.4348  0.8392
   30RES    C4712285   1.330   1.376   6.473 -0.3094  0.2585  0.4736
   30RES    C4812286   1.437   1.469   6.400  0.1865 -0.3643 -0.6211
   30RES    C4912287   1.571   1.394   6.371  0.0324 -0.7179 -1.0630
   30RES    C5012288   1.669   1.358   6.482  0.2491  0.0431  0.0293
   30RES    H5112289   1.121   1.259   6.801  0.3051  0.7888  0.0944
   30RES    H5212290   1.256   1.248   6.701 -0.0494  0.1725 -0.2401
   30RES    H5312291   1.078   1.479   6.693  0.9905  0.8891 -0.7923
   30RES    H5412292   1.279   1.541   6.601 -0.7685  0.0886  1.0681
   30RES    H5512293   1.172   1.510   6.461  2.9559  0.8796 -0.2548
   30RES    H5612294   1.385   1.315   6.545 -1.5585 -0.9140  0.4551
   30RES    H5712295   1.276   1.320   6.397  0.6754  0.6457 -0.5277
   30RES    H5812296   1.454   1.566   6.446  2.1180 -0.0544 -1.9008
   30RES    H5912297   1.399   1.496   6.301 -1.6624 -1.0041 -0.1145
   30RES    H6012298   1.629   1.466   6.313 -0.0885  0.3546  0.1285
   30RES    H6112299   1.548   1.303   6.315  1.8821 -0.0799 -2.8786
   30RES    H6212300   1.760   1.310   6.447  0.7796  1.1762 -0.1867
   30RES    H6312301   1.625   1.296   6.560 -0.1998 -0.6700 -0.7850
   30RES    H6412302   1.697   1.448   6.537  1.8205 -0.8230  0.6606
   30RES    C6512303   1.036   1.307   6.564 -0.2270 -0.0028  0.3378
   30RES    C6612304   0.885   1.306   6.600 -0.0925  0.3964 -0.4032
   30RES    C6712305   0.824   1.179   6.534 -0.6836 -0.2036  0.8361
   30RES    C6812306   0.861   1.048   6.592 -0.9034 -0.3366 -0.6315
   30RES    C6912307   0.806   0.935   6.501  0.2773 -0.5878 -0.4591
   30RES    C7012308   0.836   0.802   6.567  0.2176  0.6052  0.1196
   30RES    C7112309   0.819   0.682   6.474  0.2418  0.8584 -0.3713
   30RES    H7212310   1.039   1.335   6.459 -2.1277  2.2618  0.8235
   30RES    H7312311   1.085   1.211   6.552 -1.0044 -0.3831  0.2447
   30RES    H7412312   0.891   1.300   6.709  4.8095  1.1837 -0.4894
   30RES    H7512313   0.716   1.192   6.534 -0.4195  2.3336  1.8739
   30RES    H7612314   0.838   1.181   6.426 -2.4143  0.3975  0.6040
   30RES    H7712315   0.969   1.030   6.596 -0.6673  0.9298 -1.1926
   30RES    H7812316   0.830   1.034   6.696  1.1885 -0.6602 -0.0251
   30RES    H7912317   0.700   0.939   6.478  0.9308 -0.6767 -3.8046
   30RES    H8012318   0.854   0.951   6.405 -1.5724  0.4411 -1.2294
   30RES    H8112319   0.775   0.791   6.656 -0.9654  0.4355 -0.6963
   30RES    H8212320   0.941   0.801   6.597  0.1498  1.2412  0.3825
   30RES    H8312321   0.729   0.689   6.413  0.3518 -2.3372 -0.9626
   30RES    H8412322   0.904   0.679   6.405  0.9553  0.0767  0.5240
   30RES    H8512323   0.819   0.586   6.525  3.1063  0.0042 -1.8448
   30RES    C8612324   0.811   1.440   6.568 -0.3945  0.2945  0.3901
   30RES    C8712325   0.700   1.476   6.673  0.2645 -0.4273  0.3543
   30RES    C8812326   0.749   1.564   6.787 -0.4097  0.4688  0.2745
   30RES    C8912327   0.667   1.535   6.914  0.1929 -0.4092 -0.9550
   30RES    C9012328   0.709   1.623   7.036 -0.2273  0.5383 -0.0592
   30RES    C9112329   0.672   1.775   7.039 -0.1051  0.6594  0.3204
   30RES    C9212330   0.715   1.862   7.152 -0.1378 -0.2506  1.2874
   30RES    H9312331   0.877   1.526   6.582 -0.1676  0.0667  0.7349
   30RES    H9412332   0.764   1.435   6.470  1.3302  2.1277 -0.5638
   30RES    H9512333   0.664   1.376   6.697  0.6008 -0.9131 -1.1158
   30RES    H9612334   0.857   1.557   6.801 -0.9345 -0.3266  4.6510
   30RES    H9712335   0.729   1.667   6.757 -1.8576  0.4464  1.1129
   30RES    H9812336   0.560   1.552   6.908 -0.2788 -2.7440  0.2339
   30RES    H9912337   0.681   1.428   6.934 -0.8581 -0.4846 -0.5983
   30RES   H10012338   0.818   1.624   7.038 -0.1912  1.4407 -1.7101
   30RES   H10112339   0.691   1.576   7.132  0.2149  0.5431  0.0292
   30RES   H10212340   0.704   1.816   6.944  0.3542 -1.3031 -0.3988
   30RES   H10312341   0.563   1.772   7.028 -0.1193  1.3563  0.2746
   30RES   H10412342   0.670   1.960   7.138 -0.1231 -0.3006  0.9004
   30RES   H10512343   0.821   1.886   7.144  0.0935 -1.5141  0.4421
   30RES   H10612344   0.683   1.832   7.252 -0.9117 -0.3167  1.0236
   30RES   C10712345   0.572   1.542   6.601  0.3844  0.3077  0.3610
   30RES   C10812346   0.483   1.435   6.528  0.4237 -0.1262  0.2573
   30RES   C10912347   0.375   1.382   6.616 -0.7250 -0.7056  0.3855
   30RES   C11012348   0.324   1.247   6.562  0.1126  0.3421 -0.2623
   30RES   C11112349   0.188   1.207   6.634 -0.1716 -0.2930 -0.8357
   30RES   C11212350   0.132   1.075   6.582 -0.0634  0.6890 -0.2265
   30RES   C11312351   7.724   1.029   6.643  0.0705  0.5884  0.2087
   30RES   H11412352   0.585   1.620   6.525 -0.1458 -0.5800 -0.6560
   30RES   H11512353   0.514   1.606   6.668 -0.9105 -1.8847  1.3647
   30RES   H11612354   0.541   1.347   6.501 -0.5350 -1.9670  3.9275
   30RES   H11712355   0.288   1.448   6.631  0.9467  2.1966 -2.2053
   30RES   H11812356   0.413   1.376   6.718  2.1912  2.3366 -0.4436
   30RES   H11912357   0.288   1.243   6.460 -3.0621 -1.7241  0.8480
   30RES   H12012358   0.402   1.172   6.580 -0.4470 -0.4269 -1.0160
   30RES   H12112359   0.115   1.285   6.617 -0.0766  0.3963  1.6628
   30RES   H12212360   0.200   1.196   6.742  2.4790  0.6776 -0.9986
   30RES   H12312361   0.110   1.092   6.476  0.1706 -0.8700 -0.5350
   30RES   H12412362   0.204   0.993   6.578 -1.9814 -1.0854  1.0463
   30RES   H12512363   0.004   0.984   6.742  0.8487  1.6556  0.6566
   30RES   H12612364   7.649   1.107   6.656 -1.3129 -0.6132 -0.4686
   30RES   H12712365   7.672   0.965   6.572 -1.1343  0.8446  0.8486
   30RES   C12812366   0.422   1.497   6.403  0.6115  0.7591  0.8497
   30RES   C12912367   0.512   1.495   6.273 -0.0494 -0.3221  0.4087
   30RES   C13012368   0.498   1.621   6.185  0.0656 -0.0363  0.0756
   30RES   C13112369   0.577   1.742   6.245 -0.4218 -0.9575 -0.1946
   30RES   C13212370   0.592   1.868   6.160 -0.1201  0.1558 -0.6513
   30RES   C13312371   0.458   1.937   6.125  0.0629 -0.2468  0.2367
   30RES   C13412372   0.473   2.038   6.014 -0.0541 -0.0559  0.4177
   30RES   H13512373   0.341   1.437   6.364  1.3399 -0.0894  0.6307
   30RES   H13612374   0.383   1.595   6.431 -1.4237 -0.1014  1.0408
   30RES   H13712375   0.617   1.497   6.303  0.0829 -1.3534  0.0457
   30RES   H13812376   0.391   1.639   6.177  0.2477  2.2457  2.2105
   30RES   H13912377   0.526   1.591   6.084 -2.2292 -0.6626 -0.3938
   30RES   H14012378   0.679   1.710   6.267  0.0565  0.0626 -0.9189
   30RES   H14112379   0.534   1.777   6.339  1.1931 -0.6980  0.4635
   30RES   H14212380   0.647   1.842   6.069  2.0392 -2.3515  1.2908
   30RES   H14312381   0.657   1.937   6.213 -1.5937  0.8556  0.2663
   30RES   H14412382   0.410   1.992   6.206  1.7747  0.1142  1.0285
   30RES   H14512383   0.386   1.859   6.103  2.1303 -2.3875  0.8584
   30RES   H14612384   0.373   2.059   5.976  0.4006  2.2468  0.3968
   30RES   H14712385   0.519   1.990   5.928 -1.5859 -0.2881 -0.3006
   30RES   H14812386   0.526   2.130   6.039  2.4178 -1.0578 -0.9882
   30RES   C14912387   0.495   1.373   6.184 -0.0504  0.1365 -0.5252
   30RES   C15012388   0.603   1.342   6.080 -0.2974 -0.0196  0.2972
   30RES   C15112389   0.576   1.207   6.004 -0.1712 -0.1025  0.0708
   30RES   C15212390   0.584   1.082   6.098  0.1879 -0.3711  0.5455
   30RES   C15312391   0.578   0.943   6.038 -0.6029 -0.2602  0.3645
   30RES   C15412392   0.594   0.849   6.149  0.0985 -0.1563  0.0851
   30RES   C15512393   0.566   0.704   6.111  0.1463 -0.6707 -0.9559
   30RES   H15612394   0.480   1.282   6.243  2.2995 -0.4212 -0.7541
   30RES   H15712395   0.401   1.391   6.132 -0.9056  0.1062  0.9572
   30RES   H15812396   0.593   1.410   5.995 -1.3061  1.2087  1.3734
   30RES   H15912397   0.481   1.204   5.950  0.3868 -1.8781 -0.8652
   30RES   H16012398   0.650   1.191   5.926  1.4103  0.2817  1.4669
   30RES   H16112399   0.502   1.085   6.170 -1.4630  1.6707 -1.3877
   30RES   H16212400   0.674   1.101   6.156  1.1447  0.7754 -1.2808
   30RES   H16312401   0.650   0.927   5.958 -0.2815 -1.5446  0.8972
   30RES   H16412402   0.477   0.928   6.000 -0.1729 -0.8133 -0.5855
   30RES   H16512403   0.532   0.864   6.237  2.7059 -2.1057  2.3555
   30RES   H16612404   0.699   0.846   6.181 -0.3609 -0.7668  1.5727
   30RES   H16712405   0.462   0.695   6.078  0.2553 -2.3820 -0.8627
   30RES   H16812406   0.593   0.627   6.183 -1.2599 -0.7028 -0.4347
   30RES   H16912407   0.628   0.677   6.026  0.2313 -1.0389 -0.7779
   30RES   C17012408   0.746   1.347   6.146  0.5875 -0.3323  0.3977
   30RES   C17112409   0.860   1.290   6.057 -0.0604  0.7352 -0.2049
   30RES   C17212410   0.870   1.369   5.925  0.4157 -0.1307  0.1053
   30RES   C17312411   0.993   1.357   5.836 -0.0562  0.0521  0.3583
   30RES   C17412412   0.975   1.438   5.710  0.6023  0.3617  0.2987
   30RES   C17512413   1.069   1.431   5.595 -0.5653 -0.2307  0.1843
   30RES   C17612414   1.206   1.482   5.640 -0.7112  0.0101 -0.5950
   30RES   H17712415   0.741   1.300   6.244 -0.1734  2.3172  1.6716
   30RES   H17812416   0.776   1.449   6.170 -1.0930  0.7371 -1.8726
   30RES   H17912417   0.837   1.185   6.038  0.1194  0.4540  1.1195
   30RES   H18012418   0.846   1.473   5.949  1.9615  0.0170  1.0721
   30RES   H18112419   0.785   1.334   5.866  1.5161  0.8258 -2.1140
   30RES   H18212420   1.019   1.256   5.807 -0.4329  0.3140 -0.8960
   30RES   H18312421   1.081   1.392   5.889 -0.0646 -3.5998  3.0023
   30RES   H18412422   0.974   1.542   5.746 -0.7174  0.7210 -0.7576
   30RES   H18512423   0.874   1.412   5.678  1.0000 -0.1574 -0.5211
   30RES   H18612424   1.023   1.494   5.518 -0.8493 -0.2908  0.3018
   30RES   H18712425   1.064   1.333   5.548  0.3238  0.6821 -1.8621
   30RES   H18812426   1.206   1.585   5.675 -0.2641 -0.0018 -0.5643
   30RES   H18912427   1.283   1.479   5.563  0.0715 -0.1520  0.2011
   30RES   H19012428   1.248   1.429   5.725 -2.5876 -0.5908 -0.0096
   30RES   C19112429   0.995   1.314   6.138  0.0429  1.0850  0.4032
   30RES   C19212430   1.084   1.186   6.123 -0.0949 -0.7731  0.2616
   30RES   C19312431   1.235   1.222   6.134 -0.0489 -0.0697 -0.0226
   30RES   C19412432   1.323   1.182   6.015 -0.2403 -0.2059 -1.0003
   30RES   C19512433   1.468   1.172   6.053 -0.3172 -0.2510 -0.8464
   30RES   C19612434   1.560   1.163   5.938 -0.0198  0.2300 -0.5075
   30RES   C19712435   1.515   1.065   5.837  0.4397  0.3380 -0.8672
   30RES   H19812436   0.974   1.328   6.244 -0.1497 -0.9158  0.6457
   30RES   H19912437   1.042   1.405   6.102 -0.8012  0.7975 -1.4845
   30RES   H20012438   1.066   1.156   6.019  2.7286  1.9732 -1.0920
   30RES   H20112439   1.282   1.183   6.224  1.4377  2.1888  0.2215
   30RES   H20212440   1.247   1.329   6.152 -0.0691  0.4901 -2.9612
   30RES   H20312441   1.304   1.253   5.935  2.1801  1.3573 -0.2689
   30RES   H20412442   1.288   1.084   5.985 -0.5085  0.1314 -1.7866
   30RES   H20512443   1.495   1.268   6.098 -3.7920  1.0298 -1.3571
   30RES   H20612444   1.475   1.093   6.128 -1.1067  0.9103  0.4869
   30RES   H20712445   1.653   1.120   5.974  0.0351  0.3898 -0.4554
   30RES   H20812446   1.588   1.262   5.900 -0.9844  1.7474  2.5344
   30RES   H20912447   1.430   1.103   5.781 -1.7844 -3.9413 -0.5187
   30RES   H21012448   1.510   0.965   5.879  0.2553  0.7242  0.0387
   30RES   H21112449   1.589   1.062   5.756 -1.1747 -0.3648 -2.3373
   30RES   C21212450   1.042   1.075   6.223  0.2694  0.3659 -0.4158
   30RES   C21312451   1.109   0.935   6.201 -0.1791 -0.0895  0.1305
   30RES   C21412452   1.159   0.884   6.340 -0.7017 -0.1172  0.0184
   30RES   C21512453   1.290   0.937   6.393 -0.3820  0.2891 -0.3456
   30RES   C21612454   1.315   0.880   6.534  0.1724  0.4130  0.4395
   30RES   C21712455   1.440   0.937   6.607  0.6132 -0.5213 -0.2305
   30RES   C21812456   1.455   0.885   6.748 -0.0824  0.0855  0.9970
   30RES   H21912457   0.934   1.063   6.223  0.3297 -0.2798 -1.9213
   30RES   H22012458   1.061   1.113   6.324  1.9320  0.4455 -0.7511
   30RES   H22112459   1.195   0.928   6.134  0.3215  0.2187  0.7379
   30RES   H22212460   1.087   0.912   6.417 -0.0218 -1.8435  1.3088
   30RES   H22312461   1.160   0.775   6.335 -2.4464 -0.1148 -0.8746
   30RES   H22412462   1.306   1.044   6.388  0.8656  0.1385  0.2241
   30RES   H22512463   1.369   0.899   6.330  0.0792 -2.2587  1.6642
   30RES   H22612464   1.233   0.906   6.601 -0.5212  1.7015 -0.8764
   30RES   H22712465   1.315   0.771   6.535  1.0643  0.3876 -0.9738
   30RES   H22812466   1.537   0.920   6.562  0.8261 -0.6701  0.2831
   30RES   H22912467   1.434   1.045   6.607  2.2034 -0.4243  0.2441
   30RES   H23012468   1.552   0.904   6.793  0.2729 -1.0983  0.7567
   30RES   H23112469   1.425   0.780   6.751  0.0318 -0.1203 -2.6906
   30RES   H23212470   1.386   0.941   6.811  1.5386  1.2561  1.7503
   30RES   C23312471   1.005   0.830   6.147 -0.2827 -0.4148  0.0008
   30RES   C23412472   1.043   0.689   6.102 -0.1949  0.3041  0.1569
   30RES   C23512473   0.916   0.601   6.095  0.1384 -0.4516  0.0308
   30RES   C23612474   0.942   0.445   6.084 -0.1548 -0.1864 -0.4407
   30RES   C23712475   0.985   0.384   6.223 -0.1198 -0.0894  0.3515
   30RES   C23812476   1.035   0.239   6.220 -1.0324 -0.6269  0.4925
   30RES   C23912477   1.121   0.200   6.336  0.4253  0.2040  0.1177
   30RES   H24012478   0.949   0.874   6.064  2.1549 -1.2099 -2.1349
   30RES   H24112479   0.921   0.815   6.215  0.7821  1.2490  1.7389
   30RES   H24212480   1.098   0.646   6.186 -1.4773 -1.2397  0.2158
   30RES   H24312481   0.856   0.644   6.014  1.0922 -1.9626 -1.5138
   30RES   H24412482   0.846   0.610   6.178  0.2939  0.0336  0.1133
   30RES   H24512483   1.023   0.408   6.021  1.4134  1.0776  0.7941
   30RES   H24612484   0.848   0.396   6.057 -1.3074  1.3342  0.7458
   30RES   H24712485   0.893   0.379   6.282  1.6782 -0.6888  3.2230
   30RES   H24812486   1.060   0.437   6.282  0.5796 -1.0794  0.3652
   30RES   H24912487   0.950   0.172   6.212 -0.5813 -1.0875 -0.4812
   30RES   H25012488   1.088   0.214   6.129  0.0266 -2.0828  1.4833
   30RES   H25112489   1.180   0.111   6.311 -0.8625 -0.7467  0.4178
   30RES   H25212490   1.198   0.262   6.383 -0.1911  0.5456  0.6880
   30RES   H25312491   1.050   0.177   6.416 -1.4518 -0.0602 -1.6068
   30RES   C25412492   1.144   0.673   5.984 -0.4341 -0.3192  0.2760
   30RES   C25512493   1.104   0.715   5.841  0.2125  0.0663 -0.0850
   30RES   C25612494   1.187   0.627   5.736 -0.1338  0.8685 -0.2146
   30RES   C25712495   1.138   0.480   5.739  0.0711  0.5183 -0.7561
   30RES   C25812496   1.179   0.397   5.617  0.2715  0.0489  0.3840
   30RES   C25912497   1.100   0.273   5.605 -0.0969 -0.2016  0.3884
   30RES   C26012498   1.144   0.189   5.481  0.2416  0.6642  0.0772
   30RES   H26112499   1.189   0.574   5.985 -1.6288 -0.8607  0.6857
   30RES   H26212500   1.238   0.726   6.000 -0.4462 -0.1516 -0.1944
   30RES   H26312501   0.997   0.694   5.838  0.2926 -0.3162 -0.2861
   30RES   H26412502   1.296   0.631   5.744  0.0222 -0.3182 -1.5989
   30RES   H26512503   1.172   0.668   5.636  1.2589 -0.5656 -1.0384
   30RES   H26612504   1.167   0.426   5.830  0.1904 -1.7273 -2.0814
   30RES   H26712505   1.030   0.484   5.743  0.1106  1.3787 -0.5637
   30RES   H26812506   1.286   0.378   5.626  0.4687  1.5189  1.2593
   30RES   H26912507   1.166   0.457   5.527 -2.1984 -1.0860 -0.0610
   30RES   H27012508   1.118   0.202   5.686  0.4531 -0.9994 -0.4223
   30RES   H27112509   0.993   0.293   5.595 -0.0845 -0.4752 -0.3690
   30RES   H27212510   1.239   0.139   5.496 -0.4282 -0.6679 -0.0244
   30RES   H27312511   1.071   0.108   5.471  1.5368 -0.5842  0.6327
   30RES   H27412512   1.151   0.237   5.383 -1.6966  4.2875  1.6124
   30RES   C27512513   1.124   0.874   5.819 -0.1390  1.0652 -0.0376
   30RES   C27612514   1.052   0.929   5.696 -0.5192 -0.0420 -0.8142
   30RES   C27712515   1.121   1.050   5.631 -0.1274 -0.0268  0.0929
   30RES   C27812516   1.239   1.019   5.538 -0.0203 -0.4188 -0.0468
   30RES   C27912517   1.324   1.147   5.505  0.2949  0.7730 -0.1822
   30RES   C28012518   1.447   1.099   5.430 -0.2547  0.2000 -0.2426
   30RES   C28112519   1.513   1.220   5.352  0.6469 -0.2711 -0.2277
   30RES   H28212520   1.230   0.893   5.805  0.2268 -0.4968  0.5772
   30RES   H28312521   1.104   0.931   5.910 -0.8641 -0.4269  0.7482
   30RES   H28412522   1.040   0.855   5.617 -0.2888  0.1637 -1.0413
   30RES   H28512523   1.050   1.117   5.582  1.0871  1.0703 -0.2097
   30RES   H28612524   1.152   1.120   5.709  1.0484  0.9709 -1.2477
   30RES   H28712525   1.202   0.963   5.453 -0.5557  2.2795 -1.6523
   30RES   H28812526   1.297   0.940   5.585 -0.7751 -0.7088  0.4045
   30RES   H28912527   1.344   1.205   5.595  0.3918  1.7653 -0.8272
   30RES   H29012528   1.265   1.210   5.437 -2.1423  0.9201  1.9781
   30RES   H29112529   1.527   1.067   5.497  0.2920 -1.1217 -1.4769
   30RES   H29212530   1.442   1.020   5.354 -1.4033  1.7218 -1.7897
   30RES   H29312531   1.455   1.239   5.263  1.2079  1.5161 -0.2262
   30RES   H29412532   1.620   1.198   5.344  0.5249 -1.6983  1.6461
   30RES   H29512533   1.501   1.308   5.415 -0.8479 -0.9957  0.5265
   30RES   C29612534   0.900   0.944   5.731 -0.5385 -0.6433  0.6713
   30RES   C29712535   0.799   0.917   5.610  0.5839  0.3983 -0.4416
   30RES   C29812536   0.816   1.008   5.489 -0.4437  0.8701 -0.1800
   30RES   C29912537   0.768   1.150   5.505  0.5592 -0.2778  0.9176
   30RES   C30012538   0.829   1.240   5.390 -0.4414 -0.5445 -0.5643
   30RES   C30112539   0.764   1.379   5.399 -0.0174  0.1447 -0.3946
   30RES   C30212540   0.814   1.455   5.275  0.2096  0.2586  0.2474
   30RES   H30312541   0.872   0.875   5.811 -1.6534 -0.1440  0.7156
   30RES   H30412542   0.880   1.043   5.770  1.5386  0.1137 -0.1341
   30RES   H30512543   0.812   0.813   5.580  0.8840  0.3699 -0.2191
   30RES   H30612544   0.921   1.012   5.459 -0.4081  0.1987 -0.1589
   30RES   H30712545   0.764   0.973   5.400  1.2315  0.7415 -1.1393
   30RES   H30812546   0.802   1.188   5.601 -0.8269  0.1456  1.2537
   30RES   H30912547   0.660   1.162   5.501  0.6127 -0.2688 -1.3406
   30RES   H31012548   0.786   1.196   5.300  3.2917 -1.3261 -2.0875
   30RES   H31112549   0.938   1.240   5.380 -0.3597  2.8540 -0.4456
   30RES   H31212550   0.656   1.373   5.384  0.1375 -1.2216 -0.9865
   30RES   H31312551   0.780   1.438   5.489 -0.1557 -1.0823  0.4523
   30RES   H31412552   0.796   1.561   5.291 -2.3061  0.2199 -2.0000
   30RES   H31512553   0.922   1.447   5.266  0.0197 -0.7182 -1.3141
   30RES   H31612554   0.770   1.421   5.181  1.4554  2.2733 -1.0980
   30RES   C31712555   0.655   0.921   5.670 -0.5538  0.7441  0.1786
   30RES   C31812556   0.541   0.874   5.574 -0.1055 -0.5040  0.2769
   30RES   C31912557   0.483   0.732   5.591 -0.6944  0.2071 -0.5206
   30RES   C32012558   0.589   0.616   5.611  0.0650  0.4970  0.1326
   30RES   C32112559   0.523   0.476   5.632 -0.1563 -0.1812  0.5082
   30RES   C32212560   0.617   0.362   5.643 -0.1899  0.3737  0.0702
   30RES   C32312561   0.538   0.230   5.657 -0.7400 -0.6834 -0.1150
   30RES   H32412562   0.653   1.026   5.700  4.3657  0.8734  0.3802
   30RES   H32512563   0.645   0.859   5.760  1.2104 -0.9904 -0.7937
   30RES   H32612564   0.590   0.862   5.477  1.9635  2.1322  0.9206
   30RES   H32712565   0.439   0.713   5.493  3.8077  0.0634 -2.6595
   30RES   H32812566   0.402   0.740   5.663 -0.7572  1.2824 -0.6921
   30RES   H32912567   0.664   0.631   5.688  0.6594  1.3013 -0.5903
   30RES   H33012568   0.655   0.609   5.525  2.5536 -2.7937  2.2135
   30RES   H33112569   0.451   0.467   5.551  0.7157  0.5083 -0.3566
   30RES   H33212570   0.458   0.488   5.719  0.3029 -1.7434  1.0791
   30RES   H33312571   0.679   0.386   5.729 -0.2103  1.1227 -0.1191
   30RES   H33412572   0.685   0.370   5.559  1.6488  1.3831  1.6232
   30RES   H33512573   0.521   0.217   5.764  0.4618  1.6048  0.3745
   30RES   H33612574   0.591   0.147   5.610 -2.6958 -1.4960 -0.9592
   30RES   H33712575   0.448   0.224   5.594 -0.2333 -2.2107 -0.7267
   30RES   C33812576   0.437   0.984   5.578 -0.1388 -0.3491  0.5161
   30RES   C33912577   0.331   0.981   5.465  0.3290  0.0656  0.6365
   30RES   C34012578   0.393   0.977   5.325 -0.1611  0.2655 -0.3745
   30RES   C34112579   0.290   0.960   5.212  0.1587 -0.2207 -0.6963
   30RES   C34212580   0.330   0.918   5.071  0.0420 -0.0245 -0.5290
   30RES   C34312581   0.210   0.921   4.972 -0.6254 -0.5108 -0.1043
   30RES   C34412582   0.259   0.918   4.823  0.5943 -0.5847 -0.1138
   30RES   H34512583   0.479   1.085   5.581 -0.0036 -0.4340  1.5993
   30RES   H34612584   0.379   0.972   5.670  1.4015  1.2377  1.7198
   30RES   H34712585   0.271   0.890   5.478 -1.2596  0.9743 -0.1576
   30RES   H34812586   0.468   1.055   5.315  1.5823 -1.3663 -0.3615
   30RES   H34912587   0.456   0.888   5.314 -1.0878 -0.1265 -2.6409
   30RES   H35012588   0.229   1.050   5.206  3.6190  2.3566  0.5382
   30RES   H35112589   0.204   0.901   5.242 -0.7711  1.3693 -0.1246
   30RES   H35212590   0.410   0.983   5.034  0.6242 -1.1885 -1.3359
   30RES   H35312591   0.388   0.827   5.082 -0.6543 -0.5003 -0.7878
   30RES   H35412592   0.141   0.842   5.000  0.0953 -1.0262  0.2575
   30RES   H35512593   0.160   1.013   4.999 -1.7267 -1.0287 -0.3568
   30RES   H35612594   0.299   1.014   4.791  2.5670 -0.9512  1.1355
   30RES   H35712595   0.166   0.899   4.770  0.4860  1.7071 -0.7985
   30RES   H35812596   0.333   0.841   4.797  1.0992  0.4490 -1.8162
   30RES   C35912597   0.224   1.094   5.482 -0.4720 -0.2840  0.2861
   30RES   C36012598   0.151   1.093   5.621 -0.5607  0.1569  0.5138
   30RES   C36112599   0.214   1.198   5.716  0.4328  0.6457  0.2404
   30RES   C36212600   0.158   1.213   5.854  0.2585 -0.6551  0.0586
   30RES   C36312601   0.176   1.092   5.931 -0.6068  0.7018 -0.0751
   30RES   C36412602   0.154   1.124   6.081 -0.1495  0.6516 -0.1251
   30RES   C36512603   0.161   0.996   6.169  0.0125  0.5309 -0.3987
   30RES   H36612604   0.149   1.080   5.405 -0.2419  0.1295 -0.0182
   30RES   H36712605   0.262   1.193   5.457 -1.6116 -0.2349 -1.2995
   30RES   H36812606   0.167   0.996   5.668  2.0263  0.8353  1.1624
   30RES   H36912607   0.320   1.182   5.732  0.1321 -1.7764 -0.1170
   30RES   H37012608   0.200   1.288   5.655  0.2978 -1.1836 -2.4892
   30RES   H37112609   0.210   1.298   5.899  1.2212 -0.9010 -0.5719
   30RES   H37212610   0.053   1.230   5.832  0.3248  0.3984  0.5003
   30RES   H37312611   0.099   1.022   5.898 -0.9713  1.2950 -0.5083
   30RES   H37412612   0.268   1.037   5.910  0.4822  1.5571  2.2942
   30RES   H37512613   0.233   1.193   6.112 -0.3252  1.0009 -0.4384
   30RES   H37612614   0.062   1.182   6.087  0.1834  1.0831  0.9212
   30RES   H37712615   0.075   0.930   6.155  2.3501 -2.8432  0.5719
   30RES   H37812616   0.258   0.947   6.159  0.7475  2.4702 -3.7908
   30RES   H37912617   0.149   1.036   6.270 -0.1598  0.3107 -0.3313
   30RES   C38012618   0.001   1.113   5.602 -0.3086 -0.8388 -0.0384
   30RES   C38112619   7.657   0.976   5.577  0.3400  0.4910  0.2418
   30RES   C38212620   7.594   0.926   5.703 -0.1339 -0.3017  0.6498
   30RES   C38312621   7.569   0.771   5.704 -0.0096  0.5144 -0.1476
   30RES   C38412622   7.524   0.716   5.840 -0.5572 -0.0636  0.1175
   30RES   C38512623   7.628   0.718   5.952  0.0227 -0.2146 -0.0889
   30RES   C38612624   7.584   0.649   6.086 -0.2835 -0.2965  0.4217
   30RES   H38712625   7.673   1.152   5.688 -2.3824  1.2672 -2.2333
   30RES   H38812626   7.704   1.185   5.524 -1.2122 -2.5534 -1.3963
   30RES   H38912627   0.009   0.903   5.559 -2.2977 -2.8124  1.6078
   30RES   H39012628   7.501   0.977   5.724 -1.1190 -1.1296 -1.5153
   30RES   H39112629   7.653   0.946   5.792 -1.2260 -0.2095  1.3577
   30RES   H39212630   7.489   0.747   5.633 -1.7944  0.4815  1.8435
   30RES   H39312631   7.660   0.721   5.669 -1.1081 -1.2204 -0.6174
   30RES   H39412632   7.432   0.768   5.868 -0.3956 -0.7882  2.1168
   30RES   H39512633   7.485   0.615   5.827 -1.9267  0.7285 -2.2514
   30RES   H39612634   7.643   0.824   5.970 -1.7452  0.0497 -0.0657
   30RES   H39712635   7.724   0.677   5.922 -0.7170 -0.4319 -2.2460
   30RES   H39812636   7.647   0.686   6.167  1.0061  0.4746 -0.9133
   30RES   H39912637   7.605   0.542   6.088 -1.5746 -0.5309  1.7539
   30RES   H40012638   7.481   0.659   6.119  0.3963  0.8316  2.2288
   30RES   C40112639   7.551   0.973   5.464  0.3014 -0.3562  0.5885
   30RES   C40212640   7.612   1.023   5.328 -0.6790  0.3692 -0.4168
   30RES   C40312641   7.533   0.960   5.212  0.5076  0.1291 -0.0585
   30RES   C40412642   7.391   1.016   5.187  0.2508  0.0219 -0.2059
   30RES   C40512643   7.292   0.911   5.144 -0.2465  0.8932  0.3790
   30RES   C40612644   7.146   0.961   5.112  0.3506 -0.1730  0.3831
   30RES   C40712645   7.054   0.844   5.087 -0.3122 -0.0804 -0.1253
   30RES   H40812646   7.468   1.039   5.489 -0.1040 -0.4321 -0.5128
   30RES   H40912647   7.506   0.874   5.466  3.6154 -1.9254  1.4072
   30RES   H41012648   7.711   0.977   5.317 -0.2298  1.4308 -0.8531
   30RES   H41112649   7.521   0.853   5.228 -2.1890  0.4641  0.4430
   30RES   H41212650   7.596   0.961   5.124 -0.0167 -3.6241 -0.5208
   30RES   H41312651   7.399   1.095   5.112  2.6127 -0.3768 -0.4150
   30RES   H41412652   7.345   1.053   5.279  0.1592 -0.1676 -0.1747
   30RES   H41512653   7.344   0.873   5.055  0.3170 -1.8086  1.8022
   30RES   H41612654   7.295   0.825   5.210  0.7529 -1.0922 -2.1449
   30RES   H41712655   7.102   1.015   5.195 -3.2544 -0.1580 -1.4416
   30RES   H41812656   7.150   1.029   5.027 -1.1428 -1.0063 -0.3747
   30RES   H41912657   6.953   0.861   5.124 -1.3893  2.1104 -3.8218
   30RES   H42012658   7.084   0.756   5.144  0.2369  1.1840  1.5743
   30RES   H42112659   7.046   0.823   4.980 -2.9879  0.3542 -0.0482
   30RES   H42212660   7.614   1.132   5.324 -2.8194  0.4106 -0.6375
   31RES     C112661   1.655   1.833   6.465 -0.8622 -0.5116  0.1106
   31RES     C212662   1.657   1.947   6.366 -0.4248  0.4017  0.1686
   31RES     C312663   1.566   1.924   6.236  0.4444 -0.3848 -0.2355
   31RES     C412664   1.606   1.811   6.147 -0.0120  0.1946  0.2839
   31RES     C512665   1.490   1.759   6.068 -0.6823 -0.0928  0.2577
   31RES     C612666   1.512   1.627   6.000 -0.0119  0.1236 -0.0993
   31RES     C712667   1.383   1.549   5.970 -0.8049  0.1160 -0.4229
   31RES     H812668   1.670   1.877   6.564 -0.5948  0.9700 -0.5766
   31RES     H912669   1.731   1.758   6.442 -1.2083 -0.0826 -2.5922
   31RES    H1012670   1.609   2.033   6.413 -1.1069 -0.4233  1.0269
   31RES    H1112671   1.469   1.895   6.276  0.6814  0.2101  0.7767
   31RES    H1212672   1.538   2.013   6.179  0.9069  0.8115  1.3564
   31RES    H1312673   1.691   1.832   6.082 -0.8517  2.9852  0.0357
   31RES    H1412674   1.648   1.737   6.215  0.3507 -0.6417 -0.8236
   31RES    H1512675   1.446   1.833   6.001 -2.4867 -1.0448  0.3584
   31RES    H1612676   1.417   1.743   6.148 -1.7051  1.3032 -0.3741
   31RES    H1712677   1.575   1.556   6.054 -0.2531 -3.3443 -4.0889
   31RES    H1812678   1.563   1.651   5.906  2.4061  1.3322  1.4906
   31RES    H1912679   1.353   1.512   6.068  1.1284 -4.8031 -1.5285
   31RES    H2012680   1.419   1.468   5.908 -0.0865 -0.2884  0.5168
   31RES    H2112681   1.304   1.604   5.919 -3.5132 -1.5437  1.8135
   31RES    H2212682   1.557   1.784   6.465 -0.6220 -1.0891 -3.1061
   31RES    C2312683   1.800   1.986   6.326 -0.3176  0.1894 -0.5855
   31RES    C2412684   1.887   2.039   6.450  0.6170  0.2903 -0.2645
   31RES    C2512685   1.854   2.185   6.476  0.1177  0.5412  0.8307
   31RES    C2612686   1.902   2.233   6.619 -0.1298 -0.1286 -0.0770
   31RES    C2712687   1.820   2.343   6.685 -0.2136  0.6097  0.1825
   31RES    C2812688   1.677   2.306   6.722  0.7417  0.1092  0.0818
   31RES    C2912689   1.617   2.413   6.805 -0.2487  0.5445 -0.3797
   31RES    H3012690   1.843   1.895   6.285  0.1382  0.3779 -0.5316
   31RES    H3112691   1.788   2.066   6.254 -0.6670 -0.2019 -0.9684
   31RES    H3212692   1.871   1.972   6.535 -0.3280  2.2170  1.1166
   31RES    H3312693   1.747   2.202   6.463  0.5512  2.5321 -0.1950
   31RES    H3412694   1.903   2.233   6.392 -1.3310 -1.2212 -1.0923
   31RES    H3512695   2.007   2.260   6.616  0.4247 -1.9354  2.2138
   31RES    H3612696   1.899   2.154   6.694 -0.2418  0.6386  0.7331
   31RES    H3712697   1.827   2.432   6.624 -1.3602 -0.8108 -2.0664
   31RES    H3812698   1.884   2.367   6.771  0.7027  0.0397 -0.3245
   31RES    H3912699   1.675   2.205   6.764  1.3811  1.0194  2.3912
   31RES    H4012700   1.630   2.301   6.624 -1.3812 -0.4728  1.0890
   31RES    H4112701   1.517   2.375   6.829 -0.3629  0.2732 -1.2464
   31RES    H4212702   1.667   2.422   6.901  2.1793  0.7302 -1.6393
   31RES    H4312703   1.605   2.509   6.755  1.1647  0.8549 -0.1336
   31RES    C4412704   2.038   2.024   6.420 -0.4210  0.1150  0.0777
   31RES    C4512705   2.101   1.885   6.470 -0.0798 -0.5629 -0.1249
   31RES    C4612706   2.195   1.815   6.362  0.1114  0.3089 -0.4139
   31RES    C4712707   2.333   1.890   6.345 -0.2398 -0.1180  0.4499
   31RES    C4812708   2.437   1.804   6.270  0.1974  0.0467 -0.8266
   31RES    C4912709   2.500   1.698   6.363 -0.0143  0.2689  0.2927
   31RES    C5012710   2.613   1.618   6.294  0.0097 -0.1384  0.1010
   31RES    H5112711   2.091   2.111   6.457 -1.3363  1.0334 -0.7427
   31RES    H5212712   2.059   2.037   6.314 -0.8523 -0.9745 -0.1467
   31RES    H5312713   2.018   1.815   6.477  0.7828 -1.5775  0.0885
   31RES    H5412714   2.146   1.802   6.266  1.1368  0.2660 -0.9418
   31RES    H5512715   2.208   1.713   6.401  0.8683  0.3594 -0.5300
   31RES    H5612716   2.308   1.986   6.301 -0.3047 -0.9405 -1.3802
   31RES    H5712717   2.371   1.913   6.444 -0.1878  0.3538  0.3175
   31RES    H5812718   2.519   1.865   6.229  0.2320 -1.9166 -3.8499
   31RES    H5912719   2.394   1.763   6.178 -0.2417  1.1310 -1.1125
   31RES    H6012720   2.431   1.625   6.405 -0.5235 -0.3351 -1.5217
   31RES    H6112721   2.542   1.738   6.455  3.7826 -2.7976  0.0405
   31RES    H6212722   2.676   1.678   6.228  2.3137  3.3104  5.1660
   31RES    H6312723   2.563   1.546   6.230 -2.1563  0.9906  0.4984
   31RES    H6412724   2.662   1.552   6.366 -0.0787 -1.8517 -1.3696
   31RES    C6512725   2.155   1.896   6.619 -0.7514 -0.1167 -0.5922
   31RES    C6612726   2.212   1.763   6.693 -0.4559 -1.0803  0.7617
   31RES    C6712727   2.086   1.668   6.720 -0.4390  0.1913 -0.2448
   31RES    C6812728   2.125   1.518   6.735 -0.3090 -0.4605  0.1564
   31RES    C6912729   2.004   1.434   6.756  0.4864  0.5599  0.1570
   31RES    C7012730   2.035   1.287   6.767  0.4697 -0.2333 -0.3672
   31RES    C7112731   2.093   1.245   6.900 -0.6975 -0.1108  0.0723
   31RES    H7212732   2.248   1.952   6.605 -1.4441  1.0377 -0.6441
   31RES    H7312733   2.089   1.960   6.677  2.6636  3.3344 -0.2428
   31RES    H7412734   2.282   1.711   6.628  0.2915  0.7480  0.0970
   31RES    H7512735   2.024   1.710   6.799 -0.5908  1.3728 -0.9820
   31RES    H7612736   2.022   1.673   6.631 -0.6022 -0.7912 -0.1884
   31RES    H7712737   2.172   1.494   6.639 -1.0534  0.4248 -0.4452
   31RES    H7812738   2.199   1.505   6.813  0.9703  1.7392 -0.6302
   31RES    H7912739   1.960   1.474   6.847  1.7178 -1.9067  1.8746
   31RES    H8012740   1.939   1.456   6.671  2.3750 -0.3846 -1.5954
   31RES    H8112741   2.093   1.251   6.682 -1.8670 -0.9414 -1.7067
   31RES    H8212742   1.942   1.231   6.761  0.9677 -1.0519 -0.5334
   31RES    H8312743   2.191   1.287   6.921 -0.3121 -0.2975 -1.3026
   31RES    H8412744   2.029   1.281   6.980 -1.2750  1.7744 -1.2076
   31RES    H8512745   2.113   1.138   6.904  0.6533  0.0840 -0.9178
   31RES    C8612746   2.276   1.795   6.830  0.2412  0.4787  0.0169
   31RES    C8712747   2.369   1.913   6.838 -0.6500  0.4028  0.5609
   31RES    C8812748   2.421   1.939   6.977 -0.1993  0.0541 -1.1496
   31RES    C8912749   2.312   1.946   7.084  0.2667  0.0179 -0.4142
   31RES    C9012750   2.358   2.018   7.206 -0.1028 -0.4889 -0.5175
   31RES    C9112751   2.251   2.007   7.325 -0.5143 -0.1307  0.0330
   31RES    C9212752   2.285   2.099   7.434  0.1802 -0.8219  0.1679
   31RES    H9312753   2.195   1.810   6.901 -1.0774  2.1848 -1.7708
   31RES    H9412754   2.329   1.702   6.849  0.9753  0.1761 -3.1556
   31RES    H9512755   2.316   2.005   6.811  2.5829  2.5096  1.1634
   31RES    H9612756   2.495   1.869   7.015 -1.7705 -0.2339  1.5182
   31RES    H9712757   2.473   2.034   6.982 -1.6398  0.7455  1.8952
   31RES    H9812758   2.228   1.999   7.040 -0.6571 -1.5393 -0.5527
   31RES    H9912759   2.275   1.849   7.117 -0.8512 -0.5506 -3.1509
   31RES   H10012760   2.388   2.120   7.180 -0.8366 -0.3422 -0.8139
   31RES   H10112761   2.452   1.977   7.241  0.4288  1.2639  0.2021
   31RES   H10212762   2.150   2.027   7.291 -0.6283  1.2055  1.1077
   31RES   H10312763   2.249   1.910   7.374  0.2477  0.9151  2.2212
   31RES   H10412764   2.387   2.077   7.467 -0.0264  0.9695  2.0350
   31RES   H10512765   2.213   2.080   7.514 -1.6276 -1.4924 -1.5685
   31RES   H10612766   2.277   2.199   7.393 -1.0104 -0.8574  0.2972
   31RES   C10712767   2.495   1.895   6.751 -0.7874 -0.6669  0.1291
   31RES   C10812768   2.583   2.024   6.733 -0.2238 -0.7110  0.3294
   31RES   C10912769   2.726   1.980   6.712  0.0116  1.1094 -0.3650
   31RES   C11012770   2.833   2.094   6.684  0.5493  0.2842 -0.0319
   31RES   C11112771   2.969   2.025   6.646 -0.1352 -0.0918  0.5053
   31RES   C11212772   3.081   2.129   6.661 -0.1478  0.3580 -0.2643
   31RES   C11312773   3.115   2.185   6.799  0.1994 -0.7788  0.4662
   31RES   H11412774   2.479   1.844   6.656  1.0100  0.0989 -0.5985
   31RES   H11512775   2.561   1.833   6.812  0.9023 -1.0639 -2.0113
   31RES   H11612776   2.585   2.077   6.828  1.8425  1.4935 -0.8953
   31RES   H11712777   2.718   1.902   6.636  0.2756  0.2174  0.5138
   31RES   H11812778   2.750   1.924   6.802 -0.9077  0.5864 -0.4378
   31RES   H11912779   2.805   2.165   6.608 -1.5554 -2.0278 -1.4835
   31RES   H12012780   2.847   2.148   6.778 -0.1009  0.0499  0.2008
   31RES   H12112781   2.955   1.994   6.542 -0.6501  1.4735  0.0965
   31RES   H12212782   2.973   1.932   6.703 -2.0169 -0.7835 -0.4276
   31RES   H12312783   3.172   2.077   6.633 -2.0179 -2.9920 -0.4058
   31RES   H12412784   3.080   2.204   6.583  1.4596  0.2445 -0.4063
   31RES   H12512785   3.066   2.268   6.850  0.1375  0.1786 -1.1356
   31RES   H12612786   3.107   2.100   6.868 -3.5081  0.2063  1.3421
   31RES   H12712787   3.222   2.206   6.789 -0.3020  1.1516 -0.9580
   31RES   C12812788   2.524   2.120   6.627 -0.1905  0.5564  0.3483
   31RES   C12912789   2.523   2.266   6.661 -0.7728 -0.1812  0.6196
   31RES   C13012790   2.410   2.288   6.762 -0.0261 -0.4625 -0.5827
   31RES   C13112791   2.390   2.434   6.808  0.5382  0.0990  0.1789
   31RES   C13212792   2.319   2.457   6.943 -0.0049  0.1690  0.4226
   31RES   C13312793   2.293   2.606   6.956 -0.6026 -0.0610  0.2527
   31RES   C13412794   2.177   2.663   6.881  0.0802 -0.4503  0.4698
   31RES   H13512795   2.583   2.097   6.538 -1.3028 -0.2316 -0.1878
   31RES   H13612796   2.421   2.092   6.607 -0.8283  1.1836  2.5961
   31RES   H13712797   2.611   2.296   6.719 -0.5931 -0.3181  0.4203
   31RES   H13812798   2.427   2.231   6.853 -2.0325  0.0558  0.1523
   31RES   H13912799   2.315   2.257   6.720 -0.3997  1.4201 -1.1797
   31RES   H14012800   2.349   2.500   6.732  0.7037  1.6029  1.3713
   31RES   H14112801   2.485   2.484   6.824  0.4910 -0.2888  1.7850
   31RES   H14212802   2.377   2.432   7.032  0.9483  4.7401  1.2357
   31RES   H14312803   2.223   2.410   6.925 -0.5307  1.0206  0.9709
   31RES   H14412804   2.382   2.665   6.932 -1.5618  1.1863 -0.2945
   31RES   H14512805   2.280   2.635   7.061 -2.8234 -1.9726  0.5505
   31RES   H14612806   2.180   2.771   6.898  0.5326 -0.6734  1.8842
   31RES   H14712807   2.077   2.630   6.909 -0.8216  1.3001 -0.6253
   31RES   H14812808   2.185   2.652   6.773 -1.3693  1.7289  0.1174
   31RES   C14912809   2.506   2.344   6.536 -0.1530  0.0568  0.5193
   31RES   C15012810   2.579   2.485   6.539  0.7938 -0.1573 -1.1667
   31RES   C15112811   2.528   2.561   6.416  0.2714 -0.7713 -0.2399
   31RES   C15212812   2.590   2.703   6.402  0.8943  0.5439  0.6610
   31RES   C15312813   2.514   2.818   6.474  0.2624  0.8888  0.1014
   31RES   C15412814   2.552   2.953   6.409  0.5214 -0.6814  0.4452
   31RES   C15512815   2.504   3.074   6.499  0.1087  0.5783  0.0323
   31RES   H15612816   2.552   2.289   6.454  1.1577  1.7736  0.0724
   31RES   H15712817   2.402   2.360   6.511 -0.0569 -0.0535  0.0493
   31RES   H15812818   2.556   2.547   6.626 -1.3768 -0.7496 -1.2801
   31RES   H15912819   2.551   2.496   6.332  1.1923 -1.3198  0.4315
   31RES   H16012820   2.421   2.581   6.410 -0.5253 -4.4168  1.0195
   31RES   H16112821   2.587   2.718   6.294 -2.2691 -2.4464  0.2423
   31RES   H16212822   2.695   2.708   6.430  0.5769  1.6369  1.7247
   31RES   H16312823   2.532   2.826   6.581 -0.4307  0.9070  0.2175
   31RES   H16412824   2.408   2.800   6.452  0.4066  0.0538  0.0559
   31RES   H16512825   2.502   2.959   6.312  0.6859 -0.0952  0.3978
   31RES   H16612826   2.658   2.961   6.386  0.6111  2.3875  1.6855
   31RES   H16712827   2.513   3.166   6.441  1.3509  0.4361 -0.0028
   31RES   H16812828   2.564   3.075   6.589  0.0541  0.5123  0.0700
   31RES   H16912829   2.398   3.070   6.523  0.1744  0.0026  0.2330
   31RES   C17012830   2.733   2.466   6.549  1.4204  0.2274  0.7753
   31RES   C17112831   2.810   2.556   6.644 -0.0993  0.1347  0.3387
   31RES   C17212832   2.792   2.513   6.795 -0.2894  0.0342  0.2331
   31RES   C17312833   2.789   2.629   6.892 -0.7142  0.7755  0.3055
   31RES   C17412834   2.770   2.585   7.032  0.3927 -1.5461  0.1974
   31RES   C17512835   2.754   2.709   7.125 -0.1007 -0.0172  0.1428
   31RES   C17612836   2.624   2.788   7.112 -0.1290 -0.6274  0.3621
   31RES   H17712837   2.755   2.485   6.444 -1.7257 -1.1261 -0.1784
   31RES   H17812838   2.768   2.364   6.566 -0.1143 -0.9386 -2.6978
   31RES   H17912839   2.759   2.652   6.636  1.1880  0.8654  0.8872
   31RES   H18012840   2.861   2.432   6.817  0.6578  0.9654  0.6840
   31RES   H18112841   2.691   2.472   6.801 -1.2718  2.4049  0.2749
   31RES   H18212842   2.704   2.691   6.861  0.4964  2.5879  0.5333
   31RES   H18312843   2.871   2.700   6.880 -1.3832  1.0454 -3.3076
   31RES   H18412844   2.856   2.530   7.070 -0.0277 -1.4972  1.2649
   31RES   H18512845   2.685   2.516   7.036  0.3093 -1.3717  1.7497
   31RES   H18612846   2.842   2.773   7.123  0.4197 -0.7631 -1.3000
   31RES   H18712847   2.764   2.668   7.226  3.3276 -0.4765 -0.3068
   31RES   H18812848   2.618   2.867   7.187 -0.1635 -0.7451  0.4824
   31RES   H18912849   2.544   2.716   7.128  0.0764 -1.0578 -0.4848
   31RES   H19012850   2.616   2.818   7.007 -0.9865 -3.8612 -0.5601
   31RES   C19112851   2.960   2.549   6.603  0.2801  0.8135  0.1435
   31RES   C19212852   3.019   2.644   6.498 -0.8164  0.1511 -1.1081
   31RES   C19312853   3.043   2.792   6.539  0.3533 -0.1892 -0.7311
   31RES   C19412854   2.916   2.893   6.543 -0.3586 -0.1363 -0.0931
   31RES   C19512855   2.953   3.036   6.583  0.2740  0.5730  0.1368
   31RES   C19612856   2.919   3.058   6.732 -0.1161 -0.6409  0.5370
   31RES   C19712857   2.967   3.185   6.803 -0.5630 -0.6939 -0.6843
   31RES   H19812858   2.982   2.447   6.575 -0.4915  1.0310 -1.2765
   31RES   H19912859   3.015   2.578   6.693  2.3667 -0.1999 -0.7773
   31RES   H20012860   2.938   2.653   6.425 -2.1392 -0.0665  0.2986
   31RES   H20112861   3.110   2.848   6.473  2.2976  0.5419  1.7766
   31RES   H20212862   3.082   2.798   6.640 -2.6080 -1.3283  0.5387
   31RES   H20312863   2.835   2.853   6.604 -0.1048 -0.4145  0.0635
   31RES   H20412864   2.875   2.898   6.442 -0.4572 -1.4727 -0.1331
   31RES   H20512865   3.058   3.062   6.568  0.3089 -0.1548 -0.9194
   31RES   H20612866   2.895   3.109   6.527 -1.7630 -0.0608  1.3537
   31RES   H20712867   2.962   2.975   6.788 -1.3485 -2.7894 -1.6180
   31RES   H20812868   2.810   3.058   6.741 -0.1626  0.0796  0.0026
   31RES   H20912869   2.906   3.268   6.768 -0.6996 -0.7415 -0.5567
   31RES   H21012870   3.071   3.208   6.779 -0.2042  0.3714  1.7395
   31RES   H21112871   2.939   3.176   6.908  0.1526  0.1907 -0.4100
   31RES   C21212872   3.159   2.590   6.432  0.7452 -0.5117  0.3134
   31RES   C21312873   3.207   2.669   6.300 -0.3882  0.0158 -0.0555
   31RES   C21412874   3.326   2.762   6.329  0.6989  0.7331  0.7784
   31RES   C21512875   3.325   2.885   6.229  0.2252  0.2157 -0.9276
   31RES   C21612876   3.443   2.985   6.249 -0.4603  0.4906  0.1941
   31RES   C21712877   3.442   3.089   6.136  0.1546  0.3052  0.2949
   31RES   C21812878   3.522   3.215   6.158  0.3117 -0.4200  0.0949
   31RES   H21912879   3.148   2.484   6.412 -2.5080 -0.0773 -0.3896
   31RES   H22012880   3.232   2.596   6.513  0.3595 -0.7006  0.6758
   31RES   H22112881   3.124   2.733   6.273 -1.0447 -1.2720 -1.1694
   31RES   H22212882   3.327   2.793   6.433  3.0303 -2.2909  1.7300
   31RES   H22312883   3.421   2.709   6.325 -0.7201 -1.8717  0.2322
   31RES   H22412884   3.228   2.935   6.233 -1.4341 -2.9775  1.4431
   31RES   H22512885   3.329   2.840   6.130  3.6161  0.7513 -1.0759
   31RES   H22612886   3.449   3.031   6.348 -0.3145  0.7761  0.0533
   31RES   H22712887   3.538   2.932   6.241 -0.0150  1.4487 -1.0823
   31RES   H22812888   3.474   3.049   6.039  0.4737  0.0284  0.5145
   31RES   H22912889   3.342   3.129   6.124 -0.4918 -1.5738 -0.7321
   31RES   H23012890   3.629   3.195   6.164 -0.0723 -2.1618  1.4810
   31RES   H23112891   3.482   3.271   6.243 -1.2211 -1.9431  0.4016
   31RES   H23212892   3.528   3.292   6.081 -1.3446  0.0736  0.4324
   31RES   C23312893   3.234   2.570   6.190  0.2783  0.2017  0.3031
   31RES   C23412894   3.109   2.496   6.124 -0.3151 -0.5649  0.3993
   31RES   C23512895   2.992   2.596   6.090  0.6855 -0.0797  0.4236
   31RES   C23612896   3.029   2.704   5.993 -0.6353 -0.3654 -0.2966
   31RES   C23712897   2.925   2.811   5.960  0.3721  0.0171 -0.3364
   31RES   C23812898   2.890   2.898   6.081  0.4848 -0.1083  0.2806
   31RES   C23912899   2.802   3.021   6.048  0.2706 -0.1155 -0.2262
   31RES   H24012900   3.303   2.496   6.232  0.9406  0.8081  0.3010
   31RES   H24112901   3.293   2.622   6.114  2.8232 -2.1518  0.5742
   31RES   H24212902   3.073   2.431   6.204 -0.5407 -0.1309  0.6535
   31RES   H24312903   2.967   2.653   6.180 -0.2434 -1.6229  1.1520
   31RES   H24412904   2.902   2.554   6.045 -0.2603 -0.4522  2.5666
   31RES   H24512905   3.047   2.650   5.901  0.2448 -3.5002  1.6385
   31RES   H24612906   3.120   2.751   6.030  0.5463 -2.1667 -0.8433
   31RES   H24712907   2.835   2.760   5.925 -0.2131  1.8443 -1.5028
   31RES   H24812908   2.961   2.882   5.886 -0.3847  0.0241 -0.7076
   31RES   H24912909   2.852   2.843   6.167 -3.4835  0.2749 -1.1406
   31RES   H25012910   2.989   2.933   6.110 -0.0577  1.3923  0.3817
   31RES   H25112911   2.700   2.991   6.075 -0.3613  0.7976 -1.5368
   31RES   H25212912   2.808   3.107   6.115  2.0049 -0.0368 -0.4761
   31RES   H25312913   2.819   3.053   5.946  0.2631  0.7167  0.0255
   31RES   C25412914   3.135   2.405   6.002 -0.2470 -0.2884  0.2078
   31RES   C25512915   3.231   2.281   6.033  0.0466  0.1023  0.3904
   31RES   C25612916   3.287   2.213   5.899  0.8743 -0.1030  0.0252
   31RES   C25712917   3.377   2.291   5.799  0.3935  0.2074  0.2421
   31RES   C25812918   3.416   2.218   5.677  0.1437  0.2010 -0.3319
   31RES   C25912919   3.316   2.246   5.558  0.1102 -0.5258 -0.0851
   31RES   C26012920   3.316   2.135   5.451 -0.2729 -0.3432  0.1962
   31RES   H26112921   3.179   2.467   5.924 -0.5579 -0.9323 -0.4855
   31RES   H26212922   3.034   2.378   5.969  0.0164 -0.2519 -0.6473
   31RES   H26312923   3.318   2.318   6.088 -0.1117 -1.9434  2.0636
   31RES   H26412924   3.199   2.183   5.842  0.6040  1.3665 -0.3561
   31RES   H26512925   3.342   2.120   5.914 -0.2623 -0.2979  3.3749
   31RES   H26612926   3.327   2.384   5.769  0.2945  0.3257  0.7666
   31RES   H26712927   3.468   2.317   5.853  1.7992 -0.5517 -1.6864
   31RES   H26812928   3.424   2.111   5.696  0.9811  0.3724  0.2907
   31RES   H26912929   3.513   2.255   5.645  0.0691 -0.5046 -1.3895
   31RES   H27012930   3.215   2.252   5.599 -0.2835 -1.1976 -0.9453
   31RES   H27112931   3.336   2.345   5.518 -0.9204 -0.2521  0.0445
   31RES   H27212932   3.413   2.094   5.426  0.2309  0.8985  0.1024
   31RES   H27312933   3.264   2.047   5.490  0.6430 -1.3747 -0.8602
   31RES   H27412934   3.258   2.161   5.362  0.3389 -0.0794 -0.1293
   31RES   C27512935   3.165   2.175   6.125  0.6767 -0.3098  0.0501
   31RES   C27612936   3.256   2.063   6.182  0.3137 -1.1339 -0.6978
   31RES   C27712937   3.172   1.971   6.281  0.2749 -0.0900  0.3355
   31RES   C27812938   3.248   1.839   6.303 -0.2458 -0.4045 -0.5870
   31RES   C27912939   3.156   1.735   6.378 -0.3899 -0.5445  0.3516
   31RES   C28012940   3.056   1.651   6.290  0.2857  0.1326  0.4396
   31RES   C28112941   3.118   1.544   6.207  0.9768 -0.5752 -0.2465
   31RES   H28212942   3.083   2.128   6.069  1.1788 -0.1001 -0.8702
   31RES   H28312943   3.120   2.223   6.212  0.3937 -1.2066  0.4097
   31RES   H28412944   3.287   1.995   6.102 -1.6784 -4.2653  1.0790
   31RES   H28512945   3.148   2.033   6.367 -1.5874  0.5719 -0.6333
   31RES   H28612946   3.071   1.961   6.241  1.0232  0.3540 -1.7350
   31RES   H28712947   3.341   1.850   6.359 -0.7172 -0.3512  0.1834
   31RES   H28812948   3.277   1.795   6.207  3.7996  1.5055 -0.3584
   31RES   H28912949   3.107   1.778   6.465 -0.0136  0.0482  0.2738
   31RES   H29012950   3.221   1.662   6.427  0.1096 -0.1603  0.2750
   31RES   H29112951   2.978   1.602   6.349 -1.7983  1.4024 -1.1686
   31RES   H29212952   3.024   1.719   6.211  0.8064  1.5934  1.4577
   31RES   H29312953   3.166   1.473   6.274  0.1619 -1.3716 -0.5097
   31RES   H29412954   3.193   1.587   6.141 -1.3635  0.0695 -2.5623
   31RES   H29512955   3.035   1.495   6.157  0.3585 -1.3019  1.4426
   31RES   C29612956   3.379   2.116   6.263  0.1244  0.3672 -0.4118
   31RES   C29712957   3.517   2.123   6.196  0.3663 -0.0749 -0.2396
   31RES   C29812958   3.574   1.982   6.192 -0.4257  0.0816  0.0733
   31RES   C29912959   3.674   1.962   6.081  0.8640  0.7036  0.8607
   31RES   C30012960   3.610   1.914   5.944 -0.2335 -0.1494 -0.6294
   31RES   C30112961   3.716   1.890   5.836  0.2278  0.3503 -0.1378
   31RES   C30212962   3.671   1.806   5.710 -0.0488 -0.4782  0.1397
   31RES   H30312963   3.355   2.210   6.312 -0.5839 -0.6921  1.3629
   31RES   H30412964   3.401   2.055   6.351 -0.6935  2.9595  1.6466
   31RES   H30512965   3.488   2.170   6.102 -0.0295  0.2165  0.0270
   31RES   H30612966   3.613   1.974   6.294  1.1988 -0.3520 -0.5608
   31RES   H30712967   3.498   1.906   6.174 -1.5556  0.6195  2.3204
   31RES   H30812968   3.742   1.882   6.112  0.1557 -0.9960 -1.8426
   31RES   H30912969   3.736   2.049   6.064  3.0796 -1.1696 -0.8731
   31RES   H31012970   3.536   1.986   5.907 -0.8149  0.4357  1.5815
   31RES   H31112971   3.551   1.825   5.966 -0.9371  0.6604  0.8134
   31RES   H31212972   3.751   1.986   5.797  0.4212  0.4432  0.2604
   31RES   H31312973   3.797   1.829   5.875 -1.3344  0.2519  3.1495
   31RES   H31412974   3.643   1.706   5.743 -1.0214  0.1437  1.2412
   31RES   H31512975   3.591   1.862   5.661  1.6359  0.2104 -1.9009
   31RES   H31612976   3.758   1.797   5.645  0.7185  0.0936  1.0671
   31RES   C31712977   3.611   2.226   6.275 -0.7804  0.3092  0.1336
   31RES   C31812978   3.597   2.373   6.210  0.7726 -0.2224 -0.4438
   31RES   C31912979   3.596   2.470   6.329 -0.7474 -0.1007  0.4612
   31RES   C32012980   3.718   2.453   6.426 -0.1152  0.0941 -0.3612
   31RES   C32112981   3.732   2.551   6.541 -0.1170 -0.5337 -0.4042
   31RES   C32212982   3.861   2.526   6.619  0.7272  0.0442 -0.0710
   31RES   C32312983   3.852   2.577   6.762 -0.0053 -0.5212 -0.4504
   31RES   H32412984   3.715   2.196   6.275 -0.9149 -0.1552 -0.5306
   31RES   H32512985   3.588   2.222   6.382  1.3535 -1.4401  0.5534
   31RES   H32612986   3.495   2.385   6.173  0.9156 -1.6811 -1.3621
   31RES   H32712987   3.511   2.436   6.389 -1.4629  1.3141  0.2701
   31RES   H32812988   3.580   2.571   6.292  0.1661 -0.3479 -0.6177
   31RES   H32912989   3.808   2.464   6.366  0.6319  1.0871  0.9216
   31RES   H33012990   3.729   2.360   6.482  1.9557 -0.2503 -1.2823
   31RES   H33112991   3.641   2.537   6.599 -0.9964  0.9191 -1.4075
   31RES   H33212992   3.736   2.655   6.509  0.5578 -1.0450 -1.9859
   31RES   H33312993   3.952   2.556   6.567 -0.6396  0.3584 -2.3638
   31RES   H33412994   3.864   2.421   6.646 -1.7226  0.1942  0.9166
   31RES   H33512995   3.762   2.529   6.801  0.4920 -0.0065  1.4013
   31RES   H33612996   3.833   2.684   6.756  1.4727 -0.2412 -0.3311
   31RES   H33712997   3.950   2.554   6.804  0.2441  0.3241 -0.5609
   31RES   C33812998   3.708   2.406   6.108  0.5236  1.0750 -0.2529
   31RES   C33912999   3.694   2.543   6.044 -0.6431 -0.3374  0.2463
   31RES   C34013000   3.571   2.562   5.944 -0.0980  0.2464  1.1432
   31RES   C34113001   3.533   2.709   5.918  0.2746 -0.5830  0.1679
   31RES   C34213002   3.405   2.714   5.831  0.7313 -0.3429 -0.3077
   31RES   C34313003   3.371   2.859   5.785 -0.2858 -0.6111  0.9911
   31RES   C34413004   3.239   2.863   5.700 -0.7861  0.0573 -0.1104
   31RES   H34513005   3.689   2.332   6.029 -1.1986  0.4995  0.6637
   31RES   H34613006   3.810   2.382   6.138  0.4512  0.2150 -0.6642
   31RES   H34713007   3.686   2.626   6.113 -0.1671  2.2862 -2.7387
   31RES   H34813008   3.595   2.500   5.857 -0.2160  0.1472  1.1814
   31RES   H34913009   3.486   2.523   5.999  0.3738 -0.0128  1.6949
   31RES   H35013010   3.613   2.747   5.855 -0.3511  1.1002  0.3607
   31RES   H35113011   3.520   2.776   6.003 -2.0170 -0.3230 -0.3566
   31RES   H35213012   3.434   2.669   5.736  1.1547 -2.1131  0.6389
   31RES   H35313013   3.323   2.660   5.876  0.1143 -0.5410 -1.6467
   31RES   H35413014   3.362   2.936   5.862 -1.0687 -0.2543  0.5504
   31RES   H35513015   3.452   2.900   5.724 -1.3497 -0.4625 -0.3358
   31RES   H35613016   3.160   2.841   5.772  0.2035 -2.8883  0.1230
   31RES   H35713017   3.245   2.789   5.620 -0.8663  0.5864 -0.6100
   31RES   H35813018   3.229   2.951   5.636  0.0484 -0.7690 -1.4027
   31RES   C35913019   3.826   2.566   5.963  0.7663  0.3743 -0.0473
   31RES   C36013020   3.915   2.661   6.049 -0.2415  0.1894 -0.4487
   31RES   C36113021   4.062   2.644   6.002  0.8262  0.6184 -0.5737
   31RES   C36213022   4.111   2.496   6.012 -0.1999 -0.2047  0.1959
   31RES   C36313023   4.263   2.486   5.996  0.0615 -0.2397 -0.0238
   31RES   C36413024   4.318   2.343   6.018 -0.2013  0.1702  0.2660
   31RES   C36513025   4.472   2.358   6.052 -0.2244 -0.0678  0.0342
   31RES   H36613026   3.801   2.605   5.864 -1.4777  1.9361  1.0907
   31RES   H36713027   3.868   2.467   5.946 -1.7510 -0.4679 -1.6171
   31RES   H36813028   3.909   2.620   6.150  0.1945  1.2467  0.0188
   31RES   H36913029   4.082   2.683   5.902  0.5199  1.1232 -0.4383
   31RES   H37013030   4.131   2.702   6.063 -0.9793  0.5296  1.6119
   31RES   H37113031   4.054   2.447   6.091  1.4507 -2.1796  0.2028
   31RES   H37213032   4.071   2.459   5.918 -0.1416  0.0015  0.0896
   31RES   H37313033   4.289   2.522   5.896 -0.5427 -0.7833 -0.3788
   31RES   H37413034   4.301   2.561   6.065  0.7418 -1.1435  0.5966
   31RES   H37513035   4.260   2.299   6.099 -2.6084  1.8228 -0.4793
   31RES   H37613036   4.302   2.274   5.935  1.4680  1.1615 -0.9161
   31RES   H37713037   4.513   2.375   5.952 -3.0703 -1.8597 -1.4890
   31RES   H37813038   4.490   2.442   6.120  0.4656  0.8257 -1.2375
   31RES   H37913039   4.515   2.265   6.090  0.3289  0.3493  0.4350
   31RES   C38013040   3.874   2.810   6.041 -0.4424  0.1135  0.1083
   31RES   C38113041   3.964   2.904   6.122  0.1645  0.8016 -0.7034
   31RES   C38213042   3.902   3.048   6.115  0.1627 -0.2193 -0.4053
   31RES   C38313043   3.992   3.147   6.042 -0.1024  0.8702  0.6278
   31RES   C38413044   3.935   3.278   6.019 -0.1053  0.2946 -0.8682
   31RES   C38513045   3.994   3.349   5.894  0.4503  0.0906  0.4413
   31RES   C38613046   3.925   3.477   5.854 -1.2594  0.4217 -0.0260
   31RES   H38713047   3.881   2.844   5.938 -1.0838  0.7868  0.2822
   31RES   H38813048   3.770   2.825   6.072 -0.4975  1.5705 -0.7105
   31RES   H38913049   4.066   2.905   6.084  0.5478  0.3986  0.2815
   31RES   H39013050   3.873   3.097   6.208 -1.2064 -1.4662 -0.1602
   31RES   H39113051   3.806   3.037   6.066 -0.0748 -0.3170  0.0772
   31RES   H39213052   4.085   3.158   6.097  0.8965 -2.0567 -0.3822
   31RES   H39313053   4.018   3.100   5.947 -0.4074 -2.0079  1.9303
   31RES   H39413054   3.827   3.267   6.016 -0.3545  2.8520 -2.6109
   31RES   H39513055   3.948   3.333   6.113 -0.6873 -0.8521 -0.1086
   31RES   H39613056   3.981   3.278   5.813 -1.2922  1.0817 -0.2007
   31RES   H39713057   4.101   3.358   5.908  0.5642 -0.9544  0.2824
   31RES   H39813058   3.823   3.457   5.819 -1.2403  1.5589 -0.7743
   31RES   H39913059   3.977   3.526   5.772  1.0261 -0.2862  0.9867
   31RES   H40013060   3.919   3.545   5.939  0.6809  0.6587 -0.0594
   31RES   C40113061   3.972   2.860   6.270 -0.9728  0.3641  0.0294
   31RES   C40213062   4.064   2.939   6.366  0.9209  0.6212 -0.3863
   31RES   C40313063   4.209   2.942   6.333  0.1065  0.7460  0.5590
   31RES   C40413064   4.279   2.804   6.333 -0.2945  0.1797 -0.4878
   31RES   C40513065   4.429   2.820   6.289  0.4061  0.1456  0.4230
   31RES   C40613066   4.498   2.685   6.332  0.2379  0.6512 -0.0046
   31RES   C40713067   4.634   2.673   6.281  0.3370 -0.7551  0.0430
   31RES   H40813068   3.983   2.753   6.287  3.1294  0.4915 -1.3583
   31RES   H40913069   3.872   2.866   6.313 -1.1442  3.4191 -0.6878
   31RES   H41013070   4.048   2.880   6.456  0.0430 -0.6690 -1.3636
   31RES   H41113071   4.262   2.995   6.412  1.3268  1.3023 -0.6090
   31RES   H41213072   4.227   2.991   6.237  0.9095 -1.5500 -0.5030
   31RES   H41313073   4.234   2.723   6.276  1.0544 -1.5161  0.8142
   31RES   H41413074   4.268   2.771   6.436 -1.0936 -1.0637 -0.9576
   31RES   H41513075   4.439   2.845   6.183  3.6734  2.5293  1.2238
   31RES   H41613076   4.476   2.899   6.347  0.5033 -2.2073  3.6497
   31RES   H41713077   4.497   2.682   6.441 -1.7253  0.6972  0.0129
   31RES   H41813078   4.436   2.601   6.300  1.5396  0.6492 -2.6413
   31RES   H41913079   4.683   2.577   6.297 -1.0128 -1.5770 -0.7302
   31RES   H42013080   4.709   2.749   6.306 -0.5762  0.0832  0.2562
   31RES   H42113081   4.613   2.674   6.174 -2.3517 -3.3151  0.4793
   31RES   H42213082   4.038   3.044   6.383  1.3374  0.9196 -1.4823
   32RES     C113083   5.636   3.353   3.835 -0.0671 -0.7868 -1.2370
   32RES     C213084   5.679   3.454   3.730 -0.2629 -0.3059  0.2308
   32RES     C313085   5.716   3.387   3.588  0.0872 -0.5048 -0.1906
   32RES     C413086   5.851   3.314   3.582  0.0971  0.4251  0.0513
   32RES     C513087   5.866   3.237   3.442 -0.8805 -0.5919 -0.5451
   32RES     C613088   5.888   3.326   3.325  0.2342  0.6018 -0.3515
   32RES     C713089   6.013   3.412   3.336  0.9212  1.0166  0.6218
   32RES     H813090   5.593   3.257   3.810 -0.8781 -1.4993  2.5966
   32RES     H913091   5.579   3.404   3.912  0.1320  0.4706 -1.8979
   32RES    H1013092   5.596   3.523   3.713  0.4606  0.0781 -1.9485
   32RES    H1113093   5.636   3.322   3.551 -1.7999  2.0890 -0.8817
   32RES    H1213094   5.724   3.469   3.515 -1.8166 -0.7069 -0.6648
   32RES    H1313095   5.934   3.382   3.596 -0.0353  1.0290 -1.9226
   32RES    H1413096   5.861   3.236   3.657  0.0712 -1.2178 -1.6252
   32RES    H1513097   5.767   3.194   3.429 -0.5489 -1.1182 -1.3539
   32RES    H1613098   5.947   3.165   3.450  1.7375  2.2779 -0.1717
   32RES    H1713099   5.808   3.400   3.323  1.3522  1.8535  1.0706
   32RES    H1813100   5.897   3.274   3.229  0.1923 -3.0995  1.5570
   32RES    H1913101   6.099   3.347   3.319 -0.1128 -0.1697 -0.1765
   32RES    H2013102   6.035   3.457   3.433  2.7644 -2.0859  1.7102
   32RES    H2113103   6.016   3.494   3.264 -1.4637  0.1588 -0.4974
   32RES    H2213104   5.728   3.319   3.883 -0.4662  0.1666  0.2366
   32RES    C2313105   5.791   3.546   3.784 -0.7366  0.0881 -0.0797
   32RES    C2413106   5.829   3.673   3.701 -0.6289 -0.0339 -0.4237
   32RES    C2513107   5.944   3.755   3.766 -0.2714 -0.0887  0.2946
   32RES    C2613108   6.086   3.697   3.733 -0.7814 -0.3097 -0.4791
   32RES    C2713109   6.206   3.782   3.808  0.0935  0.1799  0.4901
   32RES    C2813110   6.348   3.738   3.772 -0.8880  0.7890 -0.1535
   32RES    C2913111   6.389   3.742   3.622 -0.0959 -0.2776  0.2297
   32RES    H3013112   5.757   3.591   3.877  0.2524  0.1095  0.2807
   32RES    H3113113   5.880   3.483   3.792 -1.6951 -1.2844 -0.1389
   32RES    H3213114   5.868   3.634   3.607  0.9686 -0.1618  0.2700
   32RES    H3313115   5.940   3.746   3.875 -3.2313  1.7383  0.3916
   32RES    H3413116   5.952   3.859   3.735  2.4378 -0.7203 -1.2413
   32RES    H3513117   6.094   3.697   3.624  1.5231 -0.6902 -0.3416
   32RES    H3613118   6.104   3.591   3.750 -3.8240 -0.9115 -0.7247
   32RES    H3713119   6.189   3.784   3.915 -0.4354 -0.5878  0.4201
   32RES    H3813120   6.196   3.886   3.776 -0.6062  0.1714  0.6831
   32RES    H3913121   6.356   3.633   3.799 -2.5470  0.6223 -0.2786
   32RES    H4013122   6.430   3.796   3.814  1.1933 -1.5920 -0.8309
   32RES    H4113123   6.398   3.839   3.573  0.9014 -0.8943 -0.8278
   32RES    H4213124   6.491   3.704   3.615  0.1980  0.2486  1.4594
   32RES    H4313125   6.325   3.678   3.561 -1.2911 -1.4919  2.6790
   32RES    C4413126   5.709   3.784   3.690 -0.0491 -0.1860 -0.5063
   32RES    C4513127   5.724   3.886   3.573  0.3161 -0.9428 -0.2588
   32RES    C4613128   5.735   3.819   3.431 -0.5111 -0.1528  0.1361
   32RES    C4713129   5.791   3.905   3.324 -0.3144 -0.2221  0.2133
   32RES    C4813130   5.938   3.949   3.332 -0.1942  0.0230  0.4171
   32RES    C4913131   6.050   3.849   3.352 -0.1071  0.8823  0.0593
   32RES    C5013132   6.190   3.918   3.347  0.0758 -0.3650  0.3242
   32RES    H5113133   5.685   3.831   3.785 -3.2839  0.0830 -1.3746
   32RES    H5213134   5.615   3.735   3.663  1.4178 -2.9223 -0.8511
   32RES    H5313135   5.823   3.928   3.591 -0.0225 -1.0986  2.0975
   32RES    H5413136   5.633   3.792   3.403 -0.4308 -0.4263  0.1043
   32RES    H5513137   5.797   3.730   3.437  1.5582  1.3294  1.2062
   32RES    H5613138   5.780   3.843   3.235  1.2675 -2.8434  1.7973
   32RES    H5713139   5.725   3.992   3.312  0.0898 -0.0938 -1.1615
   32RES    H5813140   5.932   4.027   3.408  1.2321  0.0280  0.5486
   32RES    H5913141   5.956   4.016   3.248  0.3439  0.6987  1.0640
   32RES    H6013142   6.039   3.774   3.272 -0.1723 -1.1299  1.8990
   32RES    H6113143   6.046   3.792   3.445 -0.8512 -1.2121 -1.2163
   32RES    H6213144   6.209   3.966   3.250  0.0488 -1.2230 -0.1150
   32RES    H6313145   6.281   3.863   3.372  0.6091  1.5830  2.8853
   32RES    H6413146   6.183   3.996   3.422 -1.4621 -0.6338  0.4719
   32RES    C6513147   5.615   4.004   3.581 -0.1978  0.1983  1.2461
   32RES    C6613148   5.635   4.103   3.699 -0.1620 -0.0041  0.1828
   32RES    C6713149   5.773   4.148   3.746 -0.3385  0.2313 -0.4617
   32RES    C6813150   5.843   4.239   3.648 -0.3787 -0.0960 -0.1214
   32RES    C6913151   5.985   4.282   3.703  0.4898  0.5882  0.2991
   32RES    C7013152   6.083   4.167   3.686  0.0404  0.1141  0.1080
   32RES    C7113153   6.223   4.225   3.684 -0.2896  0.0509 -0.2558
   32RES    H7213154   5.634   4.059   3.488  0.0983 -1.9939 -0.0339
   32RES    H7313155   5.513   3.966   3.574 -0.1980  0.4452 -0.3346
   32RES    H7413156   5.583   4.186   3.651 -0.1590 -1.2118 -1.9638
   32RES    H7513157   5.769   4.186   3.848 -0.6290  0.4899 -0.5686
   32RES    H7613158   5.830   4.058   3.769 -1.9553 -1.3472 -2.4679
   32RES    H7713159   5.859   4.197   3.549  2.6857  0.3031  0.1374
   32RES    H7813160   5.783   4.326   3.621 -1.3789 -1.0532 -1.0177
   32RES    H7913161   6.008   4.364   3.636 -1.6436  0.7690 -0.2357
   32RES    H8013162   5.987   4.304   3.810 -0.3088  0.1441  0.4053
   32RES    H8113163   6.062   4.136   3.584  0.1568 -2.1469  0.7476
   32RES    H8213164   6.078   4.089   3.762  0.7721  0.9728  1.0510
   32RES    H8313165   6.301   4.149   3.681  2.4392  2.7061  0.1844
   32RES    H8413166   6.232   4.277   3.588  0.3984 -0.3620 -0.4211
   32RES    H8513167   6.239   4.287   3.772 -0.6135 -0.2861  0.0380
   32RES    C8613168   5.532   4.066   3.815 -0.0481 -0.7200  0.2481
   32RES    C8713169   5.490   4.180   3.915  0.4547  0.0397  0.1146
   32RES    C8813170   5.419   4.297   3.844  0.2592  0.4878 -0.2710
   32RES    C8913171   5.290   4.258   3.774  0.9748 -0.0547  0.5091
   32RES    C9013172   5.210   4.372   3.717  0.2841 -0.0956 -0.1665
   32RES    C9113173   5.083   4.323   3.651  0.6238  0.1843  0.2314
   32RES    C9213174   4.969   4.428   3.656  0.2208 -0.1394  0.0701
   32RES    H9313175   5.437   4.031   3.775 -0.0340 -1.3095  0.7215
   32RES    H9413176   5.573   3.979   3.866 -0.7390  0.3296  2.6863
   32RES    H9513177   5.584   4.226   3.945  1.2420 -0.6782 -1.2269
   32RES    H9613178   5.397   4.374   3.918  3.1857  0.2342  0.9184
   32RES    H9713179   5.483   4.339   3.767 -1.0235  1.5410 -0.7746
   32RES    H9813180   5.312   4.195   3.688  0.7707  0.9155 -0.2607
   32RES    H9913181   5.226   4.194   3.834  0.6491  0.8991  1.1992
   32RES   H10013182   5.274   4.428   3.649  1.5635  1.5631  2.2957
   32RES   H10113183   5.194   4.448   3.794  0.8069 -1.0928  0.9475
   32RES   H10213184   5.101   4.310   3.545 -1.1207 -1.4348  0.0922
   32RES   H10313185   5.055   4.223   3.686  0.1027  0.4946  0.7213
   32RES   H10413186   4.970   4.484   3.563  0.5573 -2.6591 -1.5148
   32RES   H10513187   4.975   4.483   3.749 -1.0260  0.8820 -0.4342
   32RES   H10613188   4.881   4.363   3.656  1.2220 -1.5367  0.4963
   32RES   C10713189   5.425   4.137   4.045  0.2506 -0.4155  0.0517
   32RES   C10813190   5.512   4.045   4.135 -0.0439 -0.2862  0.6876
   32RES   C10913191   5.645   4.121   4.175 -0.3012  0.0402  0.2877
   32RES   C11013192   5.775   4.043   4.127 -0.3618 -0.7400 -0.1076
   32RES   C11113193   5.913   4.115   4.123  0.6536  0.3829  0.4798
   32RES   C11213194   6.026   4.040   4.051 -0.4909  0.2637 -0.4446
   32RES   C11313195   6.171   4.100   4.055 -0.0736  0.2929  0.4344
   32RES   H11413196   5.335   4.080   4.022  1.2101 -2.4074  1.0619
   32RES   H11513197   5.394   4.220   4.109 -0.8330 -0.0250 -0.9740
   32RES   H11613198   5.544   3.963   4.070  1.6186  0.2045  0.8506
   32RES   H11713199   5.643   4.142   4.282  1.9431 -0.9238  0.5346
   32RES   H11813200   5.654   4.225   4.144 -0.3649  0.5274  1.8607
   32RES   H11913201   5.793   3.957   4.191 -0.5090 -0.4876  0.2711
   32RES   H12013202   5.760   4.006   4.025 -1.1753  1.0488 -0.6629
   32RES   H12113203   5.948   4.113   4.226  2.1675 -2.8271 -0.0531
   32RES   H12213204   5.899   4.214   4.079 -0.3914  1.1435  2.4732
   32RES   H12313205   6.026   3.935   4.083 -0.8783  1.6839  4.6184
   32RES   H12413206   6.006   4.037   3.944  3.4671  0.1649 -1.2278
   32RES   H12513207   6.247   4.039   4.008 -0.2958  2.6766 -3.2350
   32RES   H12613208   6.175   4.195   4.001 -1.0586 -0.5494 -1.1549
   32RES   H12713209   6.206   4.107   4.158 -2.0837 -1.1453  1.2602
   32RES   C12813210   5.442   3.981   4.261 -0.2153 -0.0018  0.7024
   32RES   C12913211   5.511   3.858   4.326 -0.4700 -0.3756  0.2657
   32RES   C13013212   5.485   3.727   4.253  0.5756 -0.0678  0.0602
   32RES   C13113213   5.595   3.616   4.273 -0.2972 -0.4368 -0.0404
   32RES   C13213214   5.554   3.492   4.192 -0.4881  0.2632 -0.6236
   32RES   C13313215   5.656   3.380   4.213 -0.5176  0.6476 -0.7337
   32RES   C13413216   5.657   3.319   4.356  0.4919 -0.8839  0.4906
   32RES   H13513217   5.429   4.064   4.331 -1.8058 -1.3699  2.1034
   32RES   H13613218   5.339   3.954   4.238  0.1393 -0.5849 -0.2468
   32RES   H13713219   5.617   3.883   4.320 -0.7450  0.8230  0.3527
   32RES   H13813220   5.484   3.743   4.145 -0.2002 -1.3709 -0.1356
   32RES   H13913221   5.385   3.696   4.282 -0.2206  0.4209 -2.1219
   32RES   H14013222   5.598   3.586   4.377 -0.4741 -0.6296 -0.0906
   32RES   H14113223   5.695   3.648   4.244 -0.9798  1.1225 -0.7442
   32RES   H14213224   5.554   3.515   4.086 -0.0633 -1.4807 -1.0049
   32RES   H14313225   5.452   3.459   4.209 -0.2040 -0.0983  0.4208
   32RES   H14413226   5.754   3.427   4.205 -1.3315  2.1781 -2.0911
   32RES   H14513227   5.652   3.302   4.136  2.6897  0.7651 -1.1074
   32RES   H14613228   5.561   3.273   4.382 -0.0907 -0.0128 -0.0903
   32RES   H14713229   5.682   3.394   4.431 -2.4679 -0.4437  1.1161
   32RES   H14813230   5.731   3.242   4.377 -0.8897 -1.6003  2.9916
   32RES   C14913231   5.475   3.842   4.478  0.3963 -0.4446  0.0930
   32RES   C15013232   5.570   3.935   4.568  0.0038  0.1440  0.8342
   32RES   C15113233   5.699   3.857   4.604  0.8849  0.1506  0.2273
   32RES   C15213234   5.808   3.945   4.655  0.3144 -0.1879 -0.4917
   32RES   C15313235   5.933   3.859   4.684 -0.0300 -0.2486  0.0395
   32RES   C15413236   6.007   3.805   4.562  0.9339  0.4812  0.5692
   32RES   C15513237   6.057   3.909   4.462 -0.4499 -0.4189  0.1334
   32RES   H15613238   5.370   3.870   4.487  0.5598  0.5250 -0.8411
   32RES   H15713239   5.498   3.743   4.516  0.5212 -0.9404 -1.2512
   32RES   H15813240   5.586   4.038   4.534 -2.0833  0.0774 -0.3827
   32RES   H15913241   5.698   3.768   4.667 -0.3363 -0.3066 -0.4173
   32RES   H16013242   5.730   3.810   4.511 -2.1771 -0.0302 -0.7653
   32RES   H16113243   5.774   3.996   4.745  1.1068 -0.2487 -0.1557
   32RES   H16213244   5.824   4.032   4.591  2.4081 -1.4870 -1.7992
   32RES   H16313245   5.908   3.784   4.759  0.6174 -1.9748 -1.4354
   32RES   H16413246   6.006   3.923   4.732  0.1841 -0.4076 -0.0736
   32RES   H16513247   5.937   3.745   4.505  1.7492 -2.4826  2.5675
   32RES   H16613248   6.085   3.733   4.589 -1.6336 -1.3745  3.2391
   32RES   H16713249   5.975   3.944   4.399  0.7731  0.9831 -0.7133
   32RES   H16813250   6.132   3.872   4.393 -0.6418  0.0721 -0.3452
   32RES   H16913251   6.106   3.987   4.521  0.4316  0.3778 -1.6201
   32RES   C17013252   5.499   3.963   4.707  0.8492 -0.1088 -0.4372
   32RES   C17113253   5.402   4.083   4.704 -0.2009 -0.7380  0.1574
   32RES   C17213254   5.285   4.077   4.808  0.9790 -0.0437  0.5907
   32RES   C17313255   5.333   4.081   4.958  0.1089 -0.2975 -0.0720
   32RES   C17413256   5.253   4.194   5.031  0.2975 -0.8077 -0.6713
   32RES   C17513257   5.263   4.187   5.185 -0.3499  0.0068 -0.6619
   32RES   C17613258   5.183   4.299   5.252 -0.7088  0.3803 -0.2610
   32RES   H17713259   5.572   3.984   4.785  0.0486  0.4587  0.1644
   32RES   H17813260   5.446   3.872   4.737  4.0144 -1.4050  1.5062
   32RES   H17913261   5.354   4.081   4.606 -1.1532  0.2627  0.5860
   32RES   H18013262   5.238   3.980   4.793 -0.6110  0.8711 -0.4597
   32RES   H18113263   5.208   4.148   4.779  0.5620 -0.2251  1.2534
   32RES   H18213264   5.439   4.099   4.974  0.0209  0.8670 -0.7133
   32RES   H18313265   5.309   3.988   5.010  0.8023 -0.1559  0.5187
   32RES   H18413266   5.154   4.206   4.988  0.9006  0.7652 -1.6644
   32RES   H18513267   5.294   4.290   5.002 -2.9265 -0.1948 -3.3819
   32RES   H18613268   5.367   4.197   5.218 -0.8947 -0.4411  1.2692
   32RES   H18713269   5.236   4.085   5.214 -2.6789  1.1687  1.4713
   32RES   H18813270   5.225   4.395   5.222 -0.5992  0.2445 -0.5486
   32RES   H18913271   5.179   4.301   5.360 -0.6663  2.4876 -0.2874
   32RES   H19013272   5.078   4.303   5.224 -0.3243  1.2757 -1.6433
   32RES   C19113273   5.482   4.213   4.722  0.4656 -0.7568 -0.3415
   32RES   C19213274   5.514   4.310   4.607 -0.5922  0.2080 -0.5017
   32RES   C19313275   5.399   4.346   4.514 -0.1585  0.1077 -0.3585
   32RES   C19413276   5.275   4.396   4.585  0.2205 -0.3441 -0.1592
   32RES   C19513277   5.179   4.465   4.479  0.2771 -0.1799 -0.2146
   32RES   C19613278   5.074   4.552   4.546  0.0009  0.1882  0.5757
   32RES   C19713279   4.970   4.475   4.629  0.4896 -0.3874  0.3011
   32RES   H19813280   5.576   4.187   4.770 -0.0389  0.3844  1.3271
   32RES   H19913281   5.436   4.270   4.803 -0.7197 -2.7733  0.4741
   32RES   H20013282   5.586   4.253   4.548  0.6210 -0.5010  1.6333
   32RES   H20113283   5.367   4.258   4.458 -1.4629  0.4834 -0.2222
   32RES   H20213284   5.435   4.421   4.443  0.9007 -1.7042 -1.7655
   32RES   H20313285   5.298   4.478   4.654  1.2089 -0.0951 -0.7758
   32RES   H20413286   5.214   4.324   4.640 -2.3066  1.6700 -0.2309
   32RES   H20513287   5.224   4.528   4.403 -2.2694 -0.9095 -2.4317
   32RES   H20613288   5.131   4.388   4.418  0.3482  1.0697 -1.8696
   32RES   H20713289   5.024   4.616   4.474  2.2788  0.0086 -1.1962
   32RES   H20813290   5.122   4.626   4.611  1.3420 -0.6524  0.5504
   32RES   H20913291   5.017   4.425   4.713  1.5709  0.3678  0.1578
   32RES   H21013292   4.916   4.403   4.567 -2.2619  4.0930 -2.7892
   32RES   H21113293   4.894   4.536   4.677  0.4037 -1.6583  1.7966
   32RES   C21213294   5.596   4.434   4.645 -0.1590  0.8110 -0.4339
   32RES   C21313295   5.722   4.413   4.733 -0.7129  0.6760 -0.2632
   32RES   C21413296   5.826   4.327   4.665 -0.1998 -0.4416 -0.2274
   32RES   C21513297   5.892   4.371   4.534 -0.3931  0.0148 -0.0413
   32RES   C21613298   6.012   4.291   4.491  0.4251  0.3251 -0.5206
   32RES   C21713299   6.100   4.366   4.380 -0.0184  0.5228  0.5118
   32RES   C21813300   6.240   4.325   4.408 -0.0967  0.3591 -0.2145
   32RES   H21913301   5.535   4.505   4.701 -1.4003 -1.8871  1.7883
   32RES   H22013302   5.625   4.483   4.553  0.9243 -1.8589 -1.5816
   32RES   H22113303   5.683   4.358   4.819  3.2516 -1.5440  0.2171
   32RES   H22213304   5.912   4.316   4.731  0.8430  1.2803 -1.2373
   32RES   H22313305   5.785   4.229   4.644  0.2158 -1.2354  2.5214
   32RES   H22413306   5.931   4.471   4.551  0.4027 -0.7974  3.2838
   32RES   H22513307   5.819   4.365   4.454 -0.6465  0.2555  0.1710
   32RES   H22613308   6.081   4.286   4.576 -0.7033 -2.0434  0.2806
   32RES   H22713309   5.981   4.188   4.479  0.1845  0.1155  1.7882
   32RES   H22813310   6.062   4.342   4.281  2.1688  0.2844 -0.2945
   32RES   H22913311   6.090   4.475   4.388 -0.5005  0.5491 -0.4488
   32RES   H23013312   6.259   4.321   4.516  0.3544 -0.0952 -0.3129
   32RES   H23113313   6.315   4.394   4.370 -0.5815  1.1451  0.2351
   32RES   H23213314   6.266   4.229   4.365  0.9793 -0.5975  2.4346
   32RES   C23313315   5.773   4.542   4.798 -0.1172  0.0417  0.5509
   32RES   C23413316   5.672   4.609   4.894 -0.2092  0.6385 -1.0992
   32RES   C23513317   5.681   4.530   5.033  0.2750  0.2404 -0.1597
   32RES   C23613318   5.575   4.555   5.137  0.6696 -0.4976  0.2705
   32RES   C23713319   5.610   4.478   5.264  0.0943 -0.4826 -0.1078
   32RES   C23813320   5.501   4.499   5.378 -0.6142  0.6729 -0.4620
   32RES   C23913321   5.508   4.414   5.503 -0.6170 -0.5500 -0.0182
   32RES   H24013322   5.799   4.612   4.719 -2.7858 -2.2009 -2.4871
   32RES   H24113323   5.864   4.537   4.858 -0.1619 -1.2046  0.5431
   32RES   H24213324   5.568   4.616   4.864 -0.8207  2.5249  1.3598
   32RES   H24313325   5.776   4.547   5.083 -0.4296  1.6007  0.7316
   32RES   H24413326   5.659   4.424   5.017 -1.1921  0.6176 -0.7617
   32RES   H24513327   5.483   4.515   5.094  0.8771  0.0244 -0.6688
   32RES   H24613328   5.563   4.660   5.162  1.4127 -0.3720  0.1065
   32RES   H24713329   5.712   4.507   5.289  0.3447 -1.5724  0.1923
   32RES   H24813330   5.618   4.371   5.245 -0.3116 -0.0062 -3.2394
   32RES   H24913331   5.501   4.606   5.399  4.4403  0.3009  2.0521
   32RES   H25013332   5.405   4.479   5.328  0.2231 -4.8661 -0.1738
   32RES   H25113333   5.508   4.307   5.481 -0.0845 -0.5519  0.0040
   32RES   H25213334   5.600   4.438   5.555 -0.3353  1.8058 -1.5179
   32RES   H25313335   5.418   4.418   5.565 -0.2949  0.7460  0.3851
   32RES   C25413336   5.703   4.763   4.902 -0.1754 -0.1563 -0.6306
   32RES   C25513337   5.612   4.860   4.827 -0.3194  0.1143  0.1977
   32RES   C25613338   5.628   4.844   4.670 -0.1673 -0.8271 -0.2975
   32RES   C25713339   5.527   4.922   4.578 -0.0717  0.1993 -0.1784
   32RES   C25813340   5.556   4.899   4.425 -0.4304  0.1242  0.5358
   32RES   C25913341   5.531   4.752   4.391 -0.4763  0.3330 -0.0549
   32RES   C26013342   5.497   4.726   4.239 -0.2296 -0.2037 -0.6888
   32RES   H26113343   5.802   4.787   4.865  0.1735 -0.1930  0.2688
   32RES   H26213344   5.723   4.787   5.006  3.3785  1.4162 -1.6214
   32RES   H26313345   5.509   4.828   4.842 -0.6440 -0.1473 -2.3276
   32RES   H26413346   5.609   4.739   4.650 -2.4448 -0.8797  1.9202
   32RES   H26513347   5.732   4.871   4.648 -1.2602  0.1183 -4.9620
   32RES   H26613348   5.428   4.886   4.603  0.1135 -1.6046 -1.9612
   32RES   H26713349   5.527   5.026   4.610  0.1914 -0.1810  1.1129
   32RES   H26813350   5.657   4.923   4.391 -0.2986 -0.6395  0.3701
   32RES   H26913351   5.494   4.971   4.373  1.2447  1.2244 -0.0046
   32RES   H27013352   5.626   4.701   4.407 -0.6124  0.2441  0.4974
   32RES   H27113353   5.470   4.700   4.465 -0.5567  1.2256  0.5126
   32RES   H27213354   5.406   4.778   4.213 -0.2134  0.6899  0.9344
   32RES   H27313355   5.585   4.765   4.187  0.2225 -0.4313 -0.1112
   32RES   H27413356   5.476   4.620   4.223 -0.5668 -0.4982  1.5435
   32RES   C27513357   5.639   5.006   4.877 -0.2989  0.0044  0.8293
   32RES   C27613358   5.555   5.058   4.998 -0.7181 -0.1071  0.0302
   32RES   C27713359   5.424   5.132   4.935  0.7196 -0.2010  0.0274
   32RES   C27813360   5.449   5.256   4.853 -0.0226  0.3225 -0.0107
   32RES   C27913361   5.319   5.328   4.828  0.0503  0.2333  0.4912
   32RES   C28013362   5.335   5.451   4.733  1.1513  0.4387  0.0965
   32RES   C28113363   5.213   5.532   4.723 -0.1381  0.6116  1.1250
   32RES   H28213364   5.636   5.074   4.792  3.0229  0.1248  0.7160
   32RES   H28313365   5.743   5.011   4.910 -1.3265  1.3555  4.0116
   32RES   H28413366   5.519   4.980   5.065  0.8002 -2.0057 -1.3048
   32RES   H28513367   5.370   5.058   4.876 -0.8736  0.3700  0.7257
   32RES   H28613368   5.350   5.164   5.009  0.5919  0.1280 -0.2395
   32RES   H28713369   5.494   5.226   4.758  1.5746  0.9375  0.5354
   32RES   H28813370   5.511   5.332   4.900 -1.0806 -0.7939  3.3127
   32RES   H28913371   5.296   5.363   4.929  1.5077 -2.3863  1.7900
   32RES   H29013372   5.245   5.256   4.792 -1.6698  1.8801  0.6325
   32RES   H29113373   5.409   5.518   4.774  0.9534  0.0759  1.0578
   32RES   H29213374   5.373   5.417   4.637  2.5636  0.4106  0.6608
   32RES   H29313375   5.124   5.481   4.685  0.1314 -0.2866  1.6816
   32RES   H29413376   5.225   5.612   4.650 -1.7590 -1.2888 -1.3231
   32RES   H29513377   5.185   5.567   4.822  1.8036  0.8785  1.6089
   32RES   C29613378   5.641   5.156   5.086 -0.0770  0.0969  0.6461
   32RES   C29713379   5.721   5.092   5.196 -0.5296  0.1735  0.4896
   32RES   C29813380   5.643   5.069   5.328 -0.3420 -0.2984 -0.1793
   32RES   C29913381   5.699   4.952   5.408  0.0810  0.8222  0.7903
   32RES   C30013382   5.625   4.932   5.544  0.6350 -0.5439  0.5735
   32RES   C30113383   5.673   4.808   5.625  0.2640  0.5027  0.3436
   32RES   C30213384   5.614   4.797   5.768 -0.1933  0.6701  0.3808
   32RES   H30313385   5.710   5.218   5.027  0.6716 -0.3082  1.0830
   32RES   H30413386   5.572   5.227   5.131  0.3109  2.9968 -3.0009
   32RES   H30513387   5.749   4.998   5.149 -0.4956  0.2646  0.3289
   32RES   H30613388   5.658   5.163   5.382 -0.1793 -0.8144  0.6811
   32RES   H30713389   5.536   5.056   5.312 -0.6076  1.5970 -0.1119
   32RES   H30813390   5.807   4.950   5.426  0.0380 -0.5208  0.9075
   32RES   H30913391   5.693   4.854   5.361 -0.0068  1.3469 -0.3012
   32RES   H31013392   5.523   4.911   5.511  0.3117  1.7182  0.0002
   32RES   H31113393   5.616   5.023   5.603  2.7490 -1.1860  1.9001
   32RES   H31213394   5.648   4.718   5.569  1.0023  1.0303 -0.8289
   32RES   H31313395   5.780   4.796   5.639  0.1080  0.6388  1.7604
   32RES   H31413396   5.579   4.890   5.813 -0.1389  1.1202 -0.4950
   32RES   H31513397   5.529   4.731   5.780  0.0482  0.3068  0.1064
   32RES   H31613398   5.691   4.756   5.834 -0.4321  1.2810  1.0502
   32RES   C31713399   5.850   5.169   5.220 -0.3709  0.2328 -0.5441
   32RES   C31813400   5.968   5.130   5.121  0.1033  0.2850 -0.4463
   32RES   C31913401   6.081   5.230   5.131 -0.3421  0.1015  0.2022
   32RES   C32013402   6.052   5.368   5.072  1.2245  0.0965  0.5679
   32RES   C32113403   6.179   5.460   5.065 -0.5069 -0.5572  0.6721
   32RES   C32213404   6.227   5.504   5.205  0.0657 -0.5572 -0.1150
   32RES   C32313405   6.134   5.619   5.243  0.1741  0.4389 -0.6809
   32RES   H32413406   5.888   5.154   5.321 -4.0450  2.1072  1.2140
   32RES   H32513407   5.829   5.276   5.218 -0.0526  0.2966 -0.5203
   32RES   H32613408   5.913   5.118   5.028  1.5064  1.8414 -1.4734
   32RES   H32713409   6.175   5.197   5.086 -0.1366  1.9452 -0.7674
   32RES   H32813410   6.111   5.233   5.236 -0.1660  1.3395  0.1248
   32RES   H32913411   5.960   5.417   5.106  1.3005 -0.3654  1.4403
   32RES   H33013412   6.034   5.346   4.967 -0.0316 -0.4723  0.8937
   32RES   H33113413   6.158   5.543   4.997 -0.5036 -1.2365 -0.1658
   32RES   H33213414   6.259   5.398   5.026 -1.6671 -0.2160 -2.4138
   32RES   H33313415   6.325   5.550   5.205 -1.8808  3.8880 -1.5117
   32RES   H33413416   6.227   5.422   5.278  2.3682 -0.1642  0.3496
   32RES   H33513417   6.157   5.671   5.337  0.9899 -1.1396  0.0130
   32RES   H33613418   6.031   5.585   5.233 -0.0249  0.5218  0.9310
   32RES   H33713419   6.139   5.699   5.169 -0.9092 -1.6193 -3.0372
   32RES   C33813420   6.020   4.984   5.167  0.0890 -0.5694  0.5495
   32RES   C33913421   6.014   4.873   5.058 -0.7856 -0.4607  0.4131
   32RES   C34013422   5.987   4.743   5.122  0.5170 -0.7618 -0.2977
   32RES   C34113423   6.103   4.677   5.207  0.6676 -0.3003 -0.8459
   32RES   C34213424   6.048   4.543   5.250  0.7028  0.3185 -0.0682
   32RES   C34313425   6.156   4.462   5.319  0.1686  0.0816 -0.6170
   32RES   C34413426   6.189   4.513   5.461 -0.1323 -0.0348  0.4976
   32RES   H34513427   5.965   4.944   5.253 -2.2746 -2.2005 -1.6508
   32RES   H34613428   6.123   5.000   5.200  0.1837  2.0906 -0.9499
   32RES   H34713429   5.927   4.897   4.997  2.0790  0.6040 -3.4725
   32RES   H34813430   5.893   4.753   5.176  0.0618 -3.4977 -0.5183
   32RES   H34913431   5.955   4.673   5.046  0.1779  1.0924 -1.8966
   32RES   H35013432   6.119   4.746   5.290  0.4426 -0.7226 -0.4525
   32RES   H35113433   6.199   4.667   5.156  0.7500  0.9030 -0.9472
   32RES   H35213434   5.966   4.565   5.318  0.4206 -0.1866 -0.2417
   32RES   H35313435   6.007   4.493   5.162  1.0846 -0.6487  0.2933
   32RES   H35413436   6.117   4.362   5.303  0.8007  0.0289 -1.9022
   32RES   H35513437   6.245   4.474   5.257  1.0582  0.6381  0.7350
   32RES   H35613438   6.099   4.506   5.522 -0.5914 -0.2598 -0.2061
   32RES   H35713439   6.213   4.619   5.451 -0.9437  0.2438  1.4616
   32RES   H35813440   6.275   4.472   5.513 -1.2135 -1.4535  1.1837
   32RES   C35913441   6.144   4.865   4.963  0.2281  0.0449  0.1051
   32RES   C36013442   6.121   4.795   4.829  0.2533 -0.2806  0.1723
   32RES   C36113443   6.171   4.890   4.710  0.6469 -0.0297 -0.4094
   32RES   C36213444   6.147   4.828   4.574 -0.1812 -0.1551  0.0207
   32RES   C36313445   6.111   4.931   4.462 -0.3037  0.1832  0.2463
   32RES   C36413446   6.040   4.862   4.337  0.3745  0.6351 -0.3295
   32RES   C36513447   5.987   4.968   4.241  0.4397 -0.0266 -0.1583
   32RES   H36613448   6.229   4.814   5.008 -0.1088 -0.5215  0.1030
   32RES   H36713449   6.179   4.968   4.961  2.0326 -0.5707 -0.5473
   32RES   H36813450   6.015   4.777   4.815 -0.5343  2.5641  2.0471
   32RES   H36913451   6.114   4.982   4.726 -2.3507 -1.8579 -0.2205
   32RES   H37013452   6.276   4.919   4.709  1.1326 -1.7041 -2.0850
   32RES   H37113453   6.221   4.755   4.540  1.0602  1.0076  0.2037
   32RES   H37213454   6.056   4.768   4.576  0.3464 -0.9649 -0.1098
   32RES   H37313455   6.042   5.004   4.504  0.7252 -0.6551  3.5163
   32RES   H37413456   6.192   4.984   4.412 -0.3044  0.0618  0.1136
   32RES   H37513457   6.112   4.802   4.281  0.7476 -0.1383  0.9425
   32RES   H37613458   5.959   4.794   4.363 -2.2349  2.8824 -2.2726
   32RES   H37713459   5.885   5.001   4.261  2.2368  4.3851  2.3386
   32RES   H37813460   6.044   5.060   4.250 -0.1027  0.4731 -1.6457
   32RES   H37913461   6.011   4.938   4.139 -1.7277 -3.1598  0.1926
   32RES   C38013462   6.177   4.652   4.825 -0.2244  0.4234  0.3945
   32RES   C38113463   6.327   4.635   4.786  0.3291  0.2298  0.3969
   32RES   C38213464   6.445   4.700   4.876  0.6915 -0.1728  0.1298
   32RES   C38313465   6.585   4.710   4.806  0.1971  0.4469 -0.2865
   32RES   C38413466   6.691   4.785   4.891 -0.0375  0.0230  0.1024
   32RES   C38513467   6.820   4.821   4.803 -0.4258  0.4438  0.4358
   32RES   C38613468   6.885   4.700   4.735 -0.7449  0.7271  0.0787
   32RES   H38713469   6.160   4.598   4.918  0.5219 -0.5720 -0.0250
   32RES   H38813470   6.121   4.595   4.750  2.9430  1.5949 -3.0517
   32RES   H38913471   6.346   4.671   4.685 -1.2327 -0.9802 -0.3461
   32RES   H39013472   6.453   4.657   4.976  1.7503  0.4970  0.3424
   32RES   H39113473   6.425   4.806   4.889  0.3461 -0.1978 -0.1800
   32RES   H39213474   6.622   4.608   4.799 -1.4253 -0.1605 -0.2868
   32RES   H39313475   6.569   4.745   4.704  1.0681  0.1088 -0.5455
   32RES   H39413476   6.644   4.875   4.929 -0.1284  0.1309 -0.2655
   32RES   H39513477   6.718   4.729   4.981 -1.1543 -1.2734 -0.3515
   32RES   H39613478   6.892   4.888   4.849  1.5050 -1.4602  0.2528
   32RES   H39713479   6.772   4.869   4.717 -1.1988 -1.0673  0.0008
   32RES   H39813480   6.817   4.633   4.682 -0.6952  0.5755  0.2075
   32RES   H39913481   6.944   4.643   4.806  0.3555 -0.8038 -1.9948
   32RES   H40013482   6.950   4.745   4.660 -1.9837  1.1636 -0.7585
   32RES   C40113483   6.357   4.480   4.765  0.6254 -0.2046  0.9945
   32RES   C40213484   6.336   4.397   4.893  0.4902 -0.0092 -0.0317
   32RES   C40313485   6.203   4.308   4.892  0.0200 -0.0966 -0.7060
   32RES   C40413486   6.185   4.203   5.000 -0.5522 -0.3714  0.6802
   32RES   C40513487   6.053   4.118   5.002  0.4915 -0.1676  0.0230
   32RES   C40613488   5.935   4.179   5.061  0.3736  0.3874 -0.1339
   32RES   C40713489   5.811   4.094   5.044 -0.2704  0.1822  0.2101
   32RES   H40813490   6.458   4.467   4.726  1.1225  3.0795  0.9895
   32RES   H40913491   6.296   4.438   4.686  0.1484 -0.6370  1.5884
   32RES   H41013492   6.321   4.461   4.979 -2.1153 -1.1338  0.3796
   32RES   H41113493   6.182   4.266   4.794  1.2255  0.8161 -1.3724
   32RES   H41213494   6.123   4.382   4.902  0.3305  0.0324  1.0448
   32RES   H41313495   6.200   4.259   5.092 -0.6682  0.9684 -0.1056
   32RES   H41413496   6.268   4.133   5.005 -0.8655 -0.7476  0.5948
   32RES   H41513497   6.032   4.098   4.897  0.3328 -0.3488  0.0890
   32RES   H41613498   6.073   4.028   5.060  0.2815  0.8047  1.6322
   32RES   H41713499   5.944   4.200   5.167 -1.6144 -1.3073  0.4104
   32RES   H41813500   5.919   4.274   5.011 -1.6104  0.9252  1.4621
   32RES   H41913501   5.821   3.995   5.089 -1.7673 -0.7244 -1.3645
   32RES   H42013502   5.796   4.061   4.942  1.6981  1.0061 -0.3532
   32RES   H42113503   5.722   4.146   5.080 -0.7667 -0.0396 -0.6808
   32RES   H42213504   6.421   4.329   4.901 -0.4442 -1.7833 -3.7105
   33RES     C113505   5.697   4.615   1.696 -0.1881 -0.0884 -0.3300
   33RES     C213506   5.570   4.680   1.661 -0.1703  0.5264  0.2034
   33RES     C313507   5.574   4.717   1.514  0.9656  0.9833 -0.3974
   33RES     C413508   5.687   4.808   1.471 -0.2733  0.1846  0.3257
   33RES     C513509   5.674   4.844   1.324 -0.1357  0.7026 -0.4543
   33RES     C613510   5.773   4.960   1.294  0.1342  0.7022 -0.1793
   33RES     C713511   5.738   5.021   1.155  0.3936  0.5503 -0.5152
   33RES     H813512   5.716   4.536   1.624 -1.0173  1.4779 -2.2994
   33RES     H913513   5.696   4.572   1.796  0.6643 -2.5505 -1.3358
   33RES    H1013514   5.498   4.598   1.670  0.7192 -0.1740  1.0140
   33RES    H1113515   5.572   4.629   1.450 -0.1813  0.9300 -0.2829
   33RES    H1213516   5.482   4.772   1.497 -0.1263 -0.5464  0.5278
   33RES    H1313517   5.693   4.894   1.537  0.6414 -1.2776  2.2201
   33RES    H1413518   5.788   4.766   1.479  0.8593  2.9595  1.2259
   33RES    H1513519   5.572   4.881   1.314 -0.3738 -0.0969 -1.0723
   33RES    H1613520   5.685   4.778   1.238 -0.1206  1.5450 -1.1168
   33RES    H1713521   5.876   4.925   1.295 -0.4837 -1.2426 -2.4244
   33RES    H1813522   5.760   5.030   1.378 -0.2764 -1.5904  1.7298
   33RES    H1913523   5.653   5.089   1.152 -0.3763 -0.3586  0.5463
   33RES    H2013524   5.731   4.937   1.087  0.4131 -0.2247  0.4255
   33RES    H2113525   5.821   5.074   1.107 -0.1629  0.4861 -1.5679
   33RES    H2213526   5.779   4.686   1.697 -0.0176 -0.2865 -0.4000
   33RES    C2313527   5.526   4.796   1.752  0.1243  0.2941 -0.0448
   33RES    C2413528   5.378   4.840   1.738  0.6665 -0.4515 -0.1012
   33RES    C2513529   5.359   4.991   1.780  0.9197 -0.5707  0.5181
   33RES    C2613530   5.447   5.078   1.687 -0.5397  0.3283  0.3566
   33RES    C2713531   5.380   5.218   1.669 -0.2893  0.1540  0.2307
   33RES    C2813532   5.458   5.307   1.566 -0.4250 -0.4494 -0.1315
   33RES    C2913533   5.481   5.259   1.426  0.1323 -0.1911  0.6061
   33RES    H3013534   5.539   4.778   1.859 -1.0773  0.5426  0.1475
   33RES    H3113535   5.592   4.881   1.739  0.2973  0.0450 -0.8303
   33RES    H3213536   5.349   4.839   1.633  1.9638 -1.3757 -0.4645
   33RES    H3313537   5.387   5.001   1.885 -1.4256  0.8759  1.0257
   33RES    H3413538   5.253   5.015   1.778  0.8815 -0.7201  0.6865
   33RES    H3513539   5.464   5.044   1.585 -2.6511 -0.1629  0.1382
   33RES    H3613540   5.539   5.099   1.741 -1.7934  0.7717  2.3635
   33RES    H3713541   5.372   5.267   1.766  0.5402 -1.1023  0.9377
   33RES    H3813542   5.278   5.204   1.633  0.3760  0.5599 -1.8793
   33RES    H3913543   5.558   5.329   1.603 -0.4963 -3.2331  1.7760
   33RES    H4013544   5.403   5.401   1.552  1.3584  0.5527 -0.6418
   33RES    H4113545   5.545   5.170   1.428 -2.0076 -1.7609  3.0177
   33RES    H4213546   5.386   5.217   1.391  0.3545 -0.6405  0.5411
   33RES    H4313547   5.532   5.321   1.353 -0.8672  0.4897  0.4714
   33RES    C4413548   5.281   4.750   1.807 -0.0034  0.4056 -0.8489
   33RES    C4513549   5.154   4.727   1.723  0.2836  0.0772  0.3310
   33RES    C4613550   5.186   4.621   1.611 -0.2740 -0.0868  0.0971
   33RES    C4713551   5.095   4.631   1.491 -0.5516  0.4357 -0.5076
   33RES    C4813552   5.141   4.530   1.379  0.3430 -0.3662  0.1714
   33RES    C4913553   5.093   4.381   1.398  0.3820 -0.2398  0.1178
   33RES    C5013554   4.968   4.340   1.317  0.0358 -0.2916 -0.3036
   33RES    H5113555   5.255   4.798   1.901  0.9309  0.7359 -0.7487
   33RES    H5213556   5.325   4.653   1.829  0.2455  1.0034  1.3570
   33RES    H5313557   5.137   4.825   1.678  2.4524 -0.5874 -2.0866
   33RES    H5413558   5.188   4.527   1.666 -1.7420 -0.1333  0.0893
   33RES    H5513559   5.287   4.646   1.577  0.1860 -2.5217 -0.3856
   33RES    H5613560   4.995   4.608   1.527 -0.5077 -0.2112 -0.7886
   33RES    H5713561   5.101   4.737   1.465 -1.2325  0.7359  0.5076
   33RES    H5813562   5.249   4.520   1.373  0.1441 -1.0968 -3.2417
   33RES    H5913563   5.106   4.573   1.285 -0.5801  1.0076  1.1253
   33RES    H6013564   5.060   4.386   1.502 -0.6354  2.2557 -0.2805
   33RES    H6113565   5.176   4.311   1.387  0.7332  0.4329 -1.6256
   33RES    H6213566   4.894   4.420   1.317 -0.0758 -0.2533  3.8358
   33RES    H6313567   4.910   4.260   1.362  3.0913 -2.1885  0.4095
   33RES    H6413568   4.998   4.322   1.214 -2.0135  1.1483 -1.1811
   33RES    C6513569   5.036   4.684   1.814  0.2579 -0.0886  0.4244
   33RES    C6613570   4.927   4.776   1.852 -0.4114 -0.1058 -0.3620
   33RES    C6713571   4.823   4.792   1.741  0.2426  0.1344 -0.1458
   33RES    C6813572   4.720   4.681   1.723 -0.3536 -0.4710 -0.4447
   33RES    C6913573   4.612   4.711   1.611  0.0892  0.0542 -0.9399
   33RES    C7013574   4.657   4.693   1.469  0.2101  0.2025  1.1935
   33RES    C7113575   4.568   4.770   1.374 -0.3725 -0.0490  0.1101
   33RES    H7213576   4.996   4.596   1.762  0.5995  0.1183 -0.1839
   33RES    H7313577   5.084   4.645   1.904  0.7373 -0.8780 -0.1641
   33RES    H7413578   4.877   4.716   1.927  2.0148 -0.7546  0.7892
   33RES    H7513579   4.774   4.888   1.757  1.6664  0.6922  1.0296
   33RES    H7613580   4.870   4.814   1.645  1.0415  0.9820  0.4274
   33RES    H7713581   4.766   4.584   1.702  0.7958  0.0673 -0.4700
   33RES    H7813582   4.672   4.653   1.817 -1.3056  2.4128 -0.0277
   33RES    H7913583   4.525   4.650   1.631 -1.7584  3.1471  0.9006
   33RES    H8013584   4.570   4.811   1.625 -3.1779 -1.4868  0.7645
   33RES    H8113585   4.648   4.589   1.438 -0.4046  0.1166  1.6434
   33RES    H8213586   4.760   4.723   1.449 -0.4659  0.3476 -2.2408
   33RES    H8313587   4.462   4.750   1.383 -0.5140  1.1685  1.4070
   33RES    H8413588   4.582   4.878   1.382 -0.1963 -0.1565  1.3674
   33RES    H8513589   4.598   4.729   1.278  1.5330 -2.0386  1.4811
   33RES    C8613590   4.986   4.912   1.913  0.5061  0.3321  0.0332
   33RES    C8713591   4.892   5.016   1.984 -0.1831 -0.3456 -0.5363
   33RES    C8813592   4.792   4.946   2.086 -0.5700  0.5820 -0.0299
   33RES    C8913593   4.673   4.878   2.032 -0.0957 -0.8319 -0.3552
   33RES    C9013594   4.569   4.847   2.146  0.2144  0.1396 -0.1428
   33RES    C9113595   4.425   4.799   2.110 -0.6249 -0.1864  0.1247
   33RES    C9213596   4.430   4.685   2.014 -0.2381 -0.0323  0.1227
   33RES    H9313597   5.054   4.872   1.988 -1.1651 -1.5982  0.5897
   33RES    H9413598   5.027   4.966   1.828  0.4972 -2.6270 -1.9431
   33RES    H9513599   4.829   5.065   1.910 -0.2569  0.6075  0.1479
   33RES    H9613600   4.836   4.867   2.147 -1.5747  0.5594  0.6740
   33RES    H9713601   4.757   5.023   2.155 -1.3933  0.8402 -0.7289
   33RES    H9813602   4.621   4.945   1.963 -1.8133  1.0097  2.6199
   33RES    H9913603   4.696   4.785   1.981  0.4204 -0.0414 -1.5783
   33RES   H10013604   4.558   4.927   2.219 -0.2761  0.3567 -0.4505
   33RES   H10113605   4.621   4.775   2.209 -0.2727  0.8246  1.0353
   33RES   H10213606   4.364   4.784   2.199 -2.9804 -0.9721 -1.5635
   33RES   H10313607   4.370   4.875   2.055  2.7137  0.6193 -2.2633
   33RES   H10413608   4.488   4.599   2.046  0.0282  0.1857  0.2252
   33RES   H10513609   4.466   4.734   1.923 -1.0295  0.2180 -0.0673
   33RES   H10613610   4.328   4.651   1.994 -0.8496  0.8948  1.6077
   33RES   C10713611   4.967   5.129   2.066  0.0598 -0.0415  0.1769
   33RES   C10813612   5.058   5.214   1.987 -0.1833 -0.1196 -0.4053
   33RES   C10913613   4.968   5.300   1.884  0.5909  0.0266 -0.0139
   33RES   C11013614   5.036   5.411   1.806 -0.4174  0.6302  0.4729
   33RES   C11113615   4.961   5.453   1.676  0.0149  0.2782 -0.0016
   33RES   C11213616   5.036   5.556   1.598  0.3875  0.1190  0.1491
   33RES   C11313617   4.953   5.601   1.474 -0.3597  0.0459  0.0041
   33RES   H11413618   5.017   5.071   2.144  2.8851  0.4348 -1.2069
   33RES   H11513619   4.893   5.194   2.113  0.0504 -0.6495  1.0175
   33RES   H11613620   5.123   5.144   1.936 -1.7780 -2.7955  1.1231
   33RES   H11713621   4.881   5.339   1.937  0.3295 -2.2853  1.3443
   33RES   H11813622   4.919   5.236   1.811  0.9718  0.2904 -0.5015
   33RES   H11913623   5.055   5.503   1.860  0.3449  1.6062 -1.3937
   33RES   H12013624   5.129   5.375   1.763 -2.0532 -2.3131 -0.7305
   33RES   H12113625   4.868   5.496   1.713 -0.7263  0.4285 -1.9455
   33RES   H12213626   4.935   5.361   1.622  1.0210  0.7285 -1.2875
   33RES   H12313627   5.053   5.644   1.660 -1.0963 -0.2056  1.0384
   33RES   H12413628   5.133   5.518   1.566  0.1677 -0.0723 -0.2869
   33RES   H12513629   4.860   5.628   1.524 -1.3525 -1.5015 -0.9633
   33RES   H12613630   4.986   5.692   1.423  0.3579 -0.1699  0.0743
   33RES   H12713631   4.949   5.521   1.401  1.0842  1.7916 -2.0653
   33RES   C12813632   5.149   5.306   2.066  0.4496 -0.1365  0.4704
   33RES   C12913633   5.238   5.245   2.171  0.2634  0.1510 -0.7313
   33RES   C13013634   5.284   5.342   2.280 -0.1555 -0.0554 -0.0806
   33RES   C13113635   5.327   5.483   2.235  0.2779  0.6902  0.1317
   33RES   C13213636   5.358   5.584   2.352  0.1194 -0.2115  0.3779
   33RES   C13313637   5.367   5.735   2.314  0.7859  0.4862 -0.5189
   33RES   C13413638   5.408   5.831   2.426  0.3088  0.3192 -0.7279
   33RES   H13513639   5.219   5.367   2.009  1.9154 -2.0109  0.2398
   33RES   H13613640   5.077   5.374   2.113  0.5119 -1.3135  2.3317
   33RES   H13713641   5.182   5.163   2.217  0.1807  1.6534  1.9420
   33RES   H13813642   5.368   5.301   2.336 -0.0056  0.3299 -0.0214
   33RES   H13913643   5.203   5.344   2.352 -0.0949 -1.1769  0.0344
   33RES   H14013644   5.242   5.529   2.186  0.9312  2.2613  0.4252
   33RES   H14113645   5.403   5.487   2.157  1.5393  0.1231  1.3107
   33RES   H14213646   5.453   5.565   2.403 -0.8619 -0.3034  2.2103
   33RES   H14313647   5.288   5.571   2.435 -0.4668  0.7098  0.0368
   33RES   H14413648   5.268   5.766   2.282 -0.1445 -1.1952  0.6454
   33RES   H14513649   5.430   5.753   2.227  0.4001 -1.6460 -1.2703
   33RES   H14613650   5.336   5.834   2.508  0.0604  0.7877 -0.9582
   33RES   H14713651   5.407   5.935   2.393  0.5303  0.3513 -0.6361
   33RES   H14813652   5.512   5.807   2.450  0.0922 -0.8792 -0.9945
   33RES   C14913653   5.359   5.182   2.120 -0.0320  0.0442 -0.5797
   33RES   C15013654   5.417   5.071   2.207 -0.9611  0.2143  0.8346
   33RES   C15113655   5.563   5.041   2.159 -0.3924 -0.8038  0.0365
   33RES   C15213656   5.675   5.135   2.205  0.7334  0.4738  0.4326
   33RES   C15313657   5.810   5.113   2.134 -0.0894 -0.0507 -0.1037
   33RES   C15413658   5.874   4.982   2.170  0.0446  0.2333 -0.4194
   33RES   C15513659   5.907   4.945   2.314  0.1734 -0.4896 -0.2700
   33RES   H15613660   5.328   5.143   2.023 -0.8832  0.5362 -0.5106
   33RES   H15713661   5.441   5.249   2.096 -0.1141 -0.7125 -3.1790
   33RES   H15813662   5.433   5.112   2.306 -1.4157  2.2756  0.0748
   33RES   H15913663   5.593   4.943   2.196  0.8764  0.1896  1.6868
   33RES   H16013664   5.566   5.032   2.050 -0.0307  1.5697 -0.1596
   33RES   H16113665   5.686   5.114   2.311  0.2525  0.3409  0.4574
   33RES   H16213666   5.646   5.238   2.183  2.0352  1.1219  1.7235
   33RES   H16313667   5.873   5.192   2.174 -0.0294 -0.1741  0.0445
   33RES   H16413668   5.787   5.118   2.027 -2.5182 -1.3684  0.3314
   33RES   H16513669   5.970   4.998   2.119 -0.7016  1.8826 -1.3746
   33RES   H16613670   5.813   4.903   2.128  0.9113 -1.0185  0.6469
   33RES   H16713671   5.943   5.040   2.354 -2.1880  0.6785 -0.8170
   33RES   H16813672   5.978   4.865   2.336 -0.2455 -0.5453  0.8867
   33RES   H16913673   5.818   4.908   2.364  0.2506  2.5241  2.2256
   33RES   C17013674   5.333   4.941   2.209  0.1757  0.6632 -0.2389
   33RES   C17113675   5.334   4.870   2.343 -0.0335 -0.5866 -0.0078
   33RES   C17213676   5.247   4.944   2.447  0.2276  0.7752 -0.1570
   33RES   C17313677   5.097   4.935   2.418 -0.6360 -0.3692  0.1747
   33RES   C17413678   5.025   5.047   2.495 -0.0643  0.1261  1.0830
   33RES   C17513679   4.883   5.069   2.440 -0.1556 -0.3615 -0.0018
   33RES   C17613680   4.803   4.935   2.431 -0.5971 -0.7324 -0.3935
   33RES   H17713681   5.368   4.879   2.125 -0.9757  0.3778 -0.5107
   33RES   H17813682   5.231   4.960   2.176 -0.2525 -1.5988 -0.3419
   33RES   H17913683   5.436   4.865   2.380 -0.2842 -2.3854  0.4632
   33RES   H18013684   5.273   5.049   2.453  0.4843  0.9279 -3.0650
   33RES   H18113685   5.265   4.899   2.544  0.1188  0.2653 -0.3705
   33RES   H18213686   5.050   4.839   2.441 -1.7490  0.2307  0.4157
   33RES   H18313687   5.077   4.952   2.313 -0.5203  1.1131  0.3845
   33RES   H18413688   5.078   5.139   2.470 -0.9077  0.4903  0.6228
   33RES   H18513689   5.032   5.035   2.603 -2.6926  3.0915  1.6530
   33RES   H18613690   4.883   5.119   2.343  1.0413 -2.0999 -0.9187
   33RES   H18713691   4.833   5.137   2.509 -0.2253  0.3953 -0.7956
   33RES   H18813692   4.798   4.877   2.523  1.7343  0.7898  0.7418
   33RES   H18913693   4.842   4.868   2.354 -2.4618 -3.2797  0.8083
   33RES   H19013694   4.699   4.948   2.402 -0.4340 -0.0757 -0.6873
   33RES   C19113695   5.277   4.727   2.330  0.4683 -0.2541  0.1084
   33RES   C19213696   5.375   4.608   2.306 -0.4408  0.0065  0.4816
   33RES   C19313697   5.387   4.575   2.156  0.1094  0.7261  0.3021
   33RES   C19413698   5.421   4.428   2.125  0.6113 -0.2902 -0.2064
   33RES   C19513699   5.442   4.390   1.978  0.2128  0.0700  0.0995
   33RES   C19613700   5.314   4.359   1.895 -0.0906  0.1521  0.3131
   33RES   C19713701   5.348   4.311   1.750  0.3090  0.7057  0.3746
   33RES   H19813702   5.201   4.727   2.251  1.4018  0.8771 -0.8074
   33RES   H19913703   5.224   4.693   2.419 -1.4963  2.7084  0.1527
   33RES   H20013704   5.326   4.515   2.336  0.2174 -1.4548 -2.7282
   33RES   H20113705   5.462   4.635   2.105 -1.3376  1.0654 -1.4873
   33RES   H20213706   5.294   4.598   2.104  1.8514  1.1717 -2.7297
   33RES   H20313707   5.356   4.356   2.174 -2.0936  2.0026 -0.3013
   33RES   H20413708   5.514   4.405   2.178  0.3274 -2.2039 -0.4989
   33RES   H20513709   5.510   4.468   1.944  1.4194 -0.9548  0.1254
   33RES   H20613710   5.501   4.298   1.973  2.6535  1.6820 -2.5323
   33RES   H20713711   5.254   4.450   1.899  0.2872  0.4913 -1.2067
   33RES   H20813712   5.261   4.275   1.941 -1.1596 -0.0801 -1.2808
   33RES   H20913713   5.408   4.220   1.749  0.5559  0.8345 -2.2558
   33RES   H21013714   5.393   4.385   1.684  1.3663  2.0548  2.5910
   33RES   H21113715   5.251   4.292   1.704 -0.0622  0.4769  1.2446
   33RES   C21213716   5.513   4.617   2.388 -0.8949  0.2055 -0.4085
   33RES   C21313717   5.505   4.619   2.540  0.2747 -0.9688  0.3063
   33RES   C21413718   5.451   4.478   2.587 -0.3854 -0.2354  0.5730
   33RES   C21513719   5.418   4.464   2.742  0.2184 -0.2815  0.1689
   33RES   C21613720   5.349   4.336   2.764  0.7400  0.3987  0.4593
   33RES   C21713721   5.351   4.288   2.911  0.3789  0.1073 -0.3018
   33RES   C21813722   5.320   4.142   2.934 -0.3501 -0.9424 -0.1551
   33RES   H21913723   5.557   4.707   2.344 -0.4956  0.0864 -0.2540
   33RES   H22013724   5.576   4.538   2.348 -0.1458  0.5115  0.1756
   33RES   H22113725   5.430   4.696   2.560  2.3614  0.7295  1.8966
   33RES   H22213726   5.370   4.453   2.518  1.2345 -1.6732 -0.8604
   33RES   H22313727   5.530   4.406   2.564  1.2264  1.7581 -0.2250
   33RES   H22413728   5.358   4.548   2.776 -1.9370 -2.4955  2.0552
   33RES   H22513729   5.509   4.463   2.801  1.2963 -1.0040 -1.4470
   33RES   H22613730   5.247   4.350   2.728  0.8180  1.6348  0.6961
   33RES   H22713731   5.393   4.265   2.694  2.1028  1.0660  0.6300
   33RES   H22813732   5.453   4.283   2.950 -0.6020 -0.6801  2.1988
   33RES   H22913733   5.282   4.354   2.962 -0.7312 -1.9661  0.9368
   33RES   H23013734   5.351   4.105   3.031 -0.4495  1.2706  0.7510
   33RES   H23113735   5.366   4.082   2.855 -1.5452 -0.2327 -1.4217
   33RES   H23213736   5.214   4.122   2.923 -0.6701  0.1482  0.8252
   33RES   C23313737   5.645   4.676   2.592 -0.1190 -0.2147 -0.7660
   33RES   C23413738   5.652   4.722   2.741 -0.1808 -0.3589 -0.3321
   33RES   C23513739   5.799   4.755   2.778  0.1458  0.0394 -0.5613
   33RES   C23613740   5.836   4.891   2.724 -0.7186  0.0276 -0.3944
   33RES   C23713741   5.945   4.963   2.796  0.0900  0.3106 -0.1691
   33RES   C23813742   5.972   5.100   2.737  0.0559 -0.0255 -0.4400
   33RES   C23913743   6.061   5.190   2.818  0.1047  0.4506  0.6186
   33RES   H24013744   5.686   4.752   2.525  1.0424  0.7388  0.9874
   33RES   H24113745   5.716   4.598   2.565 -0.9399 -1.5136  0.7689
   33RES   H24213746   5.631   4.634   2.802  2.4903  0.2553  1.5473
   33RES   H24313747   5.869   4.683   2.734  0.7461 -0.0721  0.5653
   33RES   H24413748   5.826   4.744   2.883  2.2209 -0.0421 -1.0711
   33RES   H24513749   5.749   4.955   2.739 -0.5104  0.1487  0.3092
   33RES   H24613750   5.843   4.895   2.615  1.2993  0.2721 -0.2864
   33RES   H24713751   6.041   4.912   2.798 -0.6983 -1.2310 -1.1034
   33RES   H24813752   5.916   4.987   2.898 -0.6133  0.0350 -0.3026
   33RES   H24913753   6.012   5.080   2.637 -0.7934 -0.7904 -0.6324
   33RES   H25013754   5.884   5.161   2.720  1.2836  2.0605  0.5118
   33RES   H25113755   6.080   5.287   2.772 -1.6006 -0.4687 -2.1215
   33RES   H25213756   6.017   5.215   2.914 -1.3270 -0.2326  0.1468
   33RES   H25313757   6.149   5.131   2.846 -0.8032 -0.9694  0.5086
   33RES   C25413758   5.541   4.828   2.780 -0.0692 -0.2004 -0.8374
   33RES   C25513759   5.529   4.871   2.931  0.7357  0.1845 -0.3203
   33RES   C25613760   5.483   4.758   3.027 -0.2761 -0.5196  0.5211
   33RES   C25713761   5.545   4.763   3.167 -0.1293 -0.1495 -0.8561
   33RES   C25813762   5.509   4.645   3.252 -0.4072  0.1667 -0.1757
   33RES   C25913763   5.509   4.678   3.405  0.2054 -0.2583 -0.3646
   33RES   C26013764   5.470   4.553   3.492 -0.3979  0.2972  0.0147
   33RES   H26113765   5.445   4.786   2.752  0.7118 -2.3141 -0.4325
   33RES   H26213766   5.548   4.923   2.727  3.0429 -0.8403 -1.7257
   33RES   H26313767   5.633   4.892   2.956  0.2355  1.7769  0.4984
   33RES   H26413768   5.514   4.666   2.978  0.1612  0.2557 -0.6862
   33RES   H26513769   5.374   4.764   3.034 -0.5858 -1.8896 -2.3072
   33RES   H26613770   5.652   4.784   3.168 -0.0361 -0.6102  0.5217
   33RES   H26713771   5.502   4.851   3.216  0.2991 -1.0503  1.2015
   33RES   H26813772   5.582   4.567   3.235  2.2026  2.4257  0.2941
   33RES   H26913773   5.411   4.605   3.224  0.6177 -2.7406  0.3015
   33RES   H27013774   5.606   4.720   3.431 -0.2704  1.7082 -1.7055
   33RES   H27113775   5.444   4.764   3.421 -1.1274 -1.4509  0.8080
   33RES   H27213776   5.480   4.576   3.598  0.3977 -0.8417  0.1845
   33RES   H27313777   5.365   4.541   3.464 -1.0906  2.8248  1.3293
   33RES   H27413778   5.524   4.463   3.464  1.4339  1.2533  0.4505
   33RES   C27513779   5.447   5.002   2.952  0.2876  0.3392 -0.5730
   33RES   C27613780   5.523   5.134   2.944  0.5123  0.5388  0.1749
   33RES   C27713781   5.606   5.154   3.079 -0.0186  0.0787  0.4495
   33RES   C27813782   5.721   5.260   3.054  0.4171 -0.2979 -0.4240
   33RES   C27913783   5.803   5.273   3.182  0.4858 -0.0087 -0.4664
   33RES   C28013784   5.899   5.398   3.169  0.0988  0.1766  0.1564
   33RES   C28113785   5.823   5.512   3.221 -0.2102  0.1418  0.2378
   33RES   H28213786   5.417   5.001   3.057 -0.5103  1.1544 -0.7878
   33RES   H28313787   5.358   4.994   2.890 -0.4892  0.8898  0.4448
   33RES   H28413788   5.596   5.119   2.865  0.8829  0.9319  0.4397
   33RES   H28513789   5.541   5.193   3.158 -0.4877  0.3211 -0.0579
   33RES   H28613790   5.644   5.059   3.116  1.1903  0.4628  0.2258
   33RES   H28713791   5.677   5.356   3.027 -2.4726 -0.5383  3.0456
   33RES   H28813792   5.788   5.223   2.976  1.1795  1.4098 -0.5838
   33RES   H28913793   5.869   5.190   3.205 -1.9656 -1.9549 -0.2940
   33RES   H29013794   5.739   5.282   3.270  2.2346 -1.1887  0.9468
   33RES   H29113795   5.989   5.379   3.227  0.0662  0.2227  0.2230
   33RES   H29213796   5.927   5.416   3.066 -1.4237  1.0974 -0.1162
   33RES   H29313797   5.875   5.603   3.192 -0.9660  0.3284 -0.5386
   33RES   H29413798   5.807   5.484   3.325 -0.5733  1.3974  0.5323
   33RES   H29513799   5.726   5.521   3.172  0.2362  1.3134 -0.4319
   33RES   C29613800   5.441   5.262   2.902  0.6599  0.3173 -0.4267
   33RES   C29713801   5.388   5.254   2.762 -0.2503  0.0206 -0.6627
   33RES   C29813802   5.494   5.256   2.647  0.1125  0.0146  0.1294
   33RES   C29913803   5.610   5.353   2.659 -0.2041 -0.3523 -0.0152
   33RES   C30013804   5.686   5.350   2.523 -0.3509 -0.2690 -0.1533
   33RES   C30113805   5.816   5.429   2.538 -0.0396  0.5669 -0.1584
   33RES   C30213806   5.899   5.421   2.409 -0.5426  0.5774  0.5149
   33RES   H30313807   5.366   5.258   2.981  0.7934 -0.7749 -0.3420
   33RES   H30413808   5.497   5.354   2.918 -0.9435  0.8048  2.7003
   33RES   H30513809   5.329   5.164   2.753  0.5757 -0.3154 -3.0961
   33RES   H30613810   5.530   5.155   2.629  0.2542 -0.4181  2.6390
   33RES   H30713811   5.445   5.274   2.551 -1.1782 -1.3450  0.4967
   33RES   H30813812   5.676   5.349   2.746  0.4787 -0.2108 -0.5221
   33RES   H30913813   5.563   5.449   2.678  1.2318 -0.1328  2.7245
   33RES   H31013814   5.620   5.383   2.443 -1.1006  0.2530  0.6703
   33RES   H31113815   5.727   5.252   2.501  0.0841 -0.0416 -0.3828
   33RES   H31213816   5.791   5.533   2.559  0.3435 -0.1264  4.1201
   33RES   H31313817   5.868   5.384   2.622  0.7825  2.8788  0.5990
   33RES   H31413818   5.986   5.486   2.417 -0.2352  0.1457  0.7182
   33RES   H31513819   5.946   5.323   2.404  1.1243  1.2961  1.8136
   33RES   H31613820   5.846   5.451   2.318  1.7973 -0.6963 -1.3229
   33RES   C31713821   5.287   5.368   2.723  0.1619  0.2627 -0.6076
   33RES   C31813822   5.163   5.369   2.812 -0.3111  0.5112  0.4398
   33RES   C31913823   5.070   5.486   2.775 -0.2853  0.3714  0.1247
   33RES   C32013824   4.984   5.470   2.656 -0.0536 -0.2545  0.1105
   33RES   C32113825   4.906   5.597   2.613 -0.3130  0.4838 -0.0766
   33RES   C32213826   4.828   5.574   2.481  0.0973  0.5695  0.0604
   33RES   C32313827   4.918   5.529   2.356 -0.0762  0.2978  0.1090
   33RES   H32413828   5.267   5.370   2.616  1.9108  1.0972 -0.9527
   33RES   H32513829   5.343   5.460   2.740 -2.8106  1.9422  0.2987
   33RES   H32613830   5.206   5.403   2.906 -1.4163  0.6821  0.8936
   33RES   H32713831   5.133   5.571   2.748  1.4160 -0.8570  0.1188
   33RES   H32813832   5.006   5.511   2.859 -0.4940 -2.9521  1.0384
   33RES   H32913833   4.914   5.386   2.662  1.0519 -1.1786  0.3030
   33RES   H33013834   5.042   5.430   2.573 -1.0406  0.2991 -0.8653
   33RES   H33113835   4.988   5.669   2.610  1.4043 -1.4208  0.3769
   33RES   H33213836   4.841   5.633   2.694  2.3427  1.7585  1.5430
   33RES   H33313837   4.766   5.661   2.459 -0.1136  0.7581  1.3384
   33RES   H33413838   4.757   5.493   2.497  0.6964  0.2418  1.1080
   33RES   H33513839   4.979   5.615   2.328  0.2756  0.5749  1.6815
   33RES   H33613840   4.858   5.486   2.275  0.7010  0.4192 -0.5429
   33RES   H33713841   4.986   5.444   2.368 -0.2446 -0.2506 -2.4571
   33RES   C33813842   5.090   5.231   2.835 -0.6213  0.3764  0.0567
   33RES   C33913843   4.978   5.233   2.945  0.0452 -0.0121  0.5918
   33RES   C34013844   5.024   5.280   3.089  0.0527 -0.5956  0.2158
   33RES   C34113845   4.918   5.290   3.195 -0.1665  0.0828  0.4608
   33RES   C34213846   4.976   5.338   3.327  0.4840  0.1883  0.4667
   33RES   C34313847   4.860   5.386   3.415  0.5966 -0.7453  0.1334
   33RES   C34413848   4.749   5.292   3.447  0.3666  0.0739  0.4182
   33RES   H34513849   5.166   5.159   2.866  0.1138  0.8510 -0.5897
   33RES   H34613850   5.044   5.203   2.740  0.6171  1.7813 -0.9889
   33RES   H34713851   4.895   5.290   2.902 -0.7959 -1.2007  0.6092
   33RES   H34813852   5.104   5.215   3.125  0.6838 -0.0731 -0.2408
   33RES   H34913853   5.066   5.380   3.084 -1.3540 -0.1362 -4.9960
   33RES   H35013854   4.865   5.197   3.215 -1.4540  0.8578  0.6271
   33RES   H35113855   4.835   5.356   3.173 -1.7011 -1.7290  0.7134
   33RES   H35213856   5.039   5.261   3.372 -0.7280  0.2076  2.2318
   33RES   H35313857   5.051   5.416   3.318 -0.2473  0.9568  1.0196
   33RES   H35413858   4.908   5.404   3.511  0.7862  0.2714 -0.1506
   33RES   H35513859   4.811   5.473   3.371  2.8078 -1.6327 -4.3306
   33RES   H35613860   4.782   5.206   3.505 -1.8245 -0.9965  0.1247
   33RES   H35713861   4.684   5.262   3.365  2.0536 -0.9240 -0.5935
   33RES   H35813862   4.686   5.351   3.513 -0.1717 -0.0865  0.0520
   33RES   C35913863   4.931   5.091   2.957 -0.4914  0.4898  0.0752
   33RES   C36013864   4.821   5.046   2.860 -0.6396  0.6474  0.2875
   33RES   C36113865   4.804   4.890   2.878 -0.0201  0.5274  0.7268
   33RES   C36213866   4.913   4.806   2.813  0.0633  0.6970  0.1055
   33RES   C36313867   4.885   4.655   2.834 -0.3663 -0.0137 -0.3569
   33RES   C36413868   5.004   4.559   2.802  0.0388 -0.4340 -0.4000
   33RES   C36513869   4.969   4.414   2.842  0.3744  0.2056 -0.0711
   33RES   H36613870   4.903   5.066   3.060  1.9707  1.3619  0.9795
   33RES   H36713871   5.020   5.029   2.945  0.5211  1.8970  0.3337
   33RES   H36813872   4.845   5.050   2.754 -0.1606  1.4297  0.4213
   33RES   H36913873   4.795   4.867   2.984 -0.6230  0.1164  0.5921
   33RES   H37013874   4.710   4.856   2.833 -0.0013 -1.0884  1.8365
   33RES   H37113875   4.921   4.840   2.710  1.8839 -0.8733 -0.2965
   33RES   H37213876   4.999   4.839   2.871  2.5003 -1.7950 -1.9364
   33RES   H37313877   4.847   4.639   2.935  2.6260 -2.1322  0.4978
   33RES   H37413878   4.810   4.631   2.758 -0.5547 -0.1110 -0.1409
   33RES   H37513879   5.033   4.553   2.698  1.4725 -2.7783  0.1021
   33RES   H37613880   5.097   4.598   2.846 -0.0564 -1.1238  0.4334
   33RES   H37713881   4.918   4.405   2.937  2.2800 -0.2978  0.9324
   33RES   H37813882   4.909   4.369   2.763 -0.9521 -1.8981  2.0788
   33RES   H37913883   5.061   4.356   2.848  1.4003  1.6669 -1.0492
   33RES   C38013884   4.689   5.119   2.870  0.0716  0.2159  0.1182
   33RES   C38113885   4.616   5.134   3.005  0.1291  0.4326 -0.8224
   33RES   C38213886   4.491   5.219   2.988  0.0504  0.3234 -0.1687
   33RES   C38313887   4.383   5.175   2.889 -0.5527 -0.6323 -0.5654
   33RES   C38413888   4.245   5.224   2.919 -0.6083  0.1479 -0.7654
   33RES   C38513889   4.153   5.200   2.801 -0.7016  0.2489 -0.1587
   33RES   C38613890   4.120   5.050   2.777  0.0197 -0.4805  0.3526
   33RES   H38713891   4.708   5.223   2.844  0.3756 -0.2124 -1.4519
   33RES   H38813892   4.620   5.081   2.794 -1.9885  3.5240  0.2336
   33RES   H38913893   4.685   5.182   3.074  1.0386 -1.5562 -0.3032
   33RES   H39013894   4.510   5.326   2.975  2.5278  0.2302  2.2316
   33RES   H39113895   4.435   5.228   3.082  1.4264 -0.1384  0.7143
   33RES   H39213896   4.400   5.213   2.788 -0.5804  2.3143  0.4983
   33RES   H39313897   4.373   5.066   2.884  2.1651 -1.0129  1.0235
   33RES   H39413898   4.196   5.172   3.002 -2.2406 -0.3650 -2.0293
   33RES   H39513899   4.248   5.328   2.952  0.1370  0.5673 -2.1476
   33RES   H39613900   4.189   5.233   2.704  0.1254  2.6075  0.9120
   33RES   H39713901   4.056   5.247   2.812 -0.5957  0.7031 -1.1259
   33RES   H39813902   4.080   5.033   2.678  1.3967  0.0041 -0.3037
   33RES   H39913903   4.046   5.018   2.850 -2.4679 -0.2318 -1.9911
   33RES   H40013904   4.210   4.990   2.795 -0.8209 -1.5380  1.1168
   33RES   C40113905   4.581   4.996   3.083  0.4007 -0.1313 -0.1014
   33RES   C40213906   4.496   5.003   3.212  0.2760 -0.0241 -0.5072
   33RES   C40313907   4.498   4.863   3.293  0.2723 -0.8364 -0.0599
   33RES   C40413908   4.451   4.869   3.438 -0.7701 -0.2453 -0.4310
   33RES   C40513909   4.294   4.846   3.462 -0.3309  0.0597  0.5611
   33RES   C40613910   4.259   4.861   3.606  0.8400  0.1961  0.4059
   33RES   C40713911   4.109   4.848   3.629 -0.2216 -0.9683  0.8095
   33RES   H40813912   4.683   4.968   3.110  0.2948 -1.2253 -0.7892
   33RES   H40913913   4.536   4.920   3.019  0.5593 -0.4901  0.2163
   33RES   H41013914   4.391   5.023   3.190  0.1032 -0.8211 -0.4263
   33RES   H41113915   4.598   4.819   3.290  0.2702 -1.0021  1.7767
   33RES   H41213916   4.449   4.783   3.237  0.4960 -1.7461  1.0328
   33RES   H41313917   4.487   4.960   3.486  0.9027 -0.4789 -1.2176
   33RES   H41413918   4.500   4.782   3.482 -0.3459 -0.7901 -1.9828
   33RES   H41513919   4.235   4.924   3.413  0.6069  0.8792  0.7210
   33RES   H41613920   4.265   4.744   3.439  2.1887 -0.9592  1.7515
   33RES   H41713921   4.318   4.792   3.666 -2.5156 -3.0447  0.1881
   33RES   H41813922   4.290   4.962   3.633 -0.5016  0.2744  1.7522
   33RES   H41913923   4.087   4.871   3.734  1.4341 -4.5858  2.0071
   33RES   H42013924   4.080   4.743   3.634 -1.9405 -0.4899  1.5991
   33RES   H42113925   4.039   4.896   3.560  1.3441  1.7977  1.1003
   33RES   H42213926   4.530   5.087   3.271  0.8593  0.7376 -1.8926
   34RES     C113927   4.694   0.205   6.005  0.0567  0.1716 -1.0605
   34RES     C213928   4.729   0.195   5.856  0.1741 -0.4902  0.1434
   34RES     C313929   4.629   0.094   5.794  0.3589 -0.0849  0.0359
   34RES     C413930   4.584   0.123   5.649 -0.8906  0.1954  0.7095
   34RES     C513931   4.510   0.007   5.576  0.1548  0.2693 -0.5777
   34RES     C613932   4.374   7.695   5.643 -0.1612 -0.6301 -0.1855
   34RES     C713933   4.302   7.578   5.570  0.3933  0.1712 -0.3481
   34RES     H813934   4.593   0.241   6.026  0.1018 -0.9553  1.1816
   34RES     H913935   4.764   0.275   6.051  1.1781 -0.9289 -1.0707
   34RES    H1013936   4.699   0.292   5.815  2.8904 -0.2478 -1.4567
   34RES    H1113937   4.679   7.725   5.810  2.4152  1.2954  2.4012
   34RES    H1213938   4.537   0.094   5.853 -0.6355 -1.4169 -1.4854
   34RES    H1313939   4.524   0.213   5.653 -0.6904  0.3634 -0.0082
   34RES    H1413940   4.667   0.166   5.593  0.3334 -2.7759  0.1395
   34RES    H1513941   4.576   7.647   5.566  2.2271  1.7339  0.1789
   34RES    H1613942   4.495   0.031   5.471 -0.3050 -2.2585 -1.1448
   34RES    H1713943   4.310   0.057   5.636 -0.1998 -0.5971  0.5410
   34RES    H1813944   4.389   7.674   5.749 -0.9849  0.6174  0.2001
   34RES    H1913945   4.369   7.493   5.570  0.0850 -0.0755 -0.0841
   34RES    H2013946   4.267   7.595   5.468 -2.5920 -1.2187  0.3908
   34RES    H2113947   4.207   7.558   5.621  0.8770  1.1549  0.9799
   34RES    H2213948   4.693   0.112   6.061 -1.6339 -0.6290 -2.3654
   34RES    C2313949   4.876   0.174   5.811  0.4670 -0.3337 -0.5827
   34RES    C2413950   4.994   0.278   5.837  0.1464  0.6256 -0.8985
   34RES    C2513951   5.039   0.271   5.987 -0.1495  0.3063  0.2701
   34RES    C2613952   5.189   0.297   5.985 -0.1474  0.1622 -0.0355
   34RES    C2713953   5.251   0.265   6.130  0.5195 -0.4746 -0.5521
   34RES    C2813954   5.225   0.378   6.232 -0.2693  0.4757  0.3952
   34RES    C2913955   5.303   0.370   6.358  0.0509 -0.1703 -0.8629
   34RES    H3013956   4.911   0.077   5.847  2.5539  0.6523  0.1206
   34RES    H3113957   4.864   0.158   5.704  2.7453  1.0124 -1.0787
   34RES    H3213958   5.074   0.246   5.770  2.1563  1.4555  1.0368
   34RES    H3313959   5.012   0.172   6.025  0.0360  0.1340 -0.0453
   34RES    H3413960   4.987   0.342   6.051  2.1517  1.5384  0.8458
   34RES    H3513961   5.217   0.398   5.956  1.3004 -0.6056 -1.4185
   34RES    H3613962   5.238   0.223   5.921  1.5796  3.2169 -2.3630
   34RES    H3713963   5.360   0.251   6.129  0.5058 -1.2753  2.6199
   34RES    H3813964   5.218   0.169   6.168 -0.3374  0.4540  1.1129
   34RES    H3913965   5.118   0.394   6.247 -0.3119  0.2541  0.3275
   34RES    H4013966   5.262   0.472   6.190 -0.9805  0.8830  0.6527
   34RES    H4113967   5.256   0.289   6.414 -2.1277  0.5741 -1.5599
   34RES    H4213968   5.409   0.359   6.339 -0.2197 -0.7987 -2.0683
   34RES    H4313969   5.302   0.462   6.415  1.8784 -1.0070  0.5642
   34RES    C4413970   4.960   0.421   5.794  0.6311  0.2528 -0.8324
   34RES    C4513971   4.974   0.447   5.638 -0.1667  0.8529 -0.5928
   34RES    C4613972   4.874   0.544   5.579  0.0613  0.3156  0.2349
   34RES    C4713973   4.872   0.688   5.631  0.5430 -0.4832  0.4464
   34RES    C4813974   4.764   0.778   5.561 -0.4096 -0.3165  0.0810
   34RES    C4913975   4.727   0.898   5.648 -0.0595 -0.4141 -0.0911
   34RES    C5013976   4.639   1.005   5.579  0.2569  0.2177 -0.6669
   34RES    H5113977   5.027   0.499   5.831 -0.7811  0.3126  1.7455
   34RES    H5213978   4.864   0.449   5.838  1.6747  0.6044  1.3099
   34RES    H5313979   4.940   0.354   5.593 -0.5462  0.6311  0.1420
   34RES    H5413980   4.777   0.498   5.597  0.2598 -0.6045 -1.0193
   34RES    H5513981   4.882   0.536   5.471  0.1105 -0.6350  0.3026
   34RES    H5613982   4.853   0.675   5.737  0.4384  3.6118  0.9952
   34RES    H5713983   4.970   0.735   5.621  0.7249 -1.1316 -0.8900
   34RES    H5813984   4.679   0.712   5.546 -1.4189  0.5616  1.8001
   34RES    H5913985   4.797   0.817   5.464 -0.7527  0.8964  0.4344
   34RES    H6013986   4.814   0.949   5.689 -0.7320 -0.1039  0.9668
   34RES    H6113987   4.665   0.858   5.729 -0.7131  0.1007 -0.3322
   34RES    H6213988   4.593   1.075   5.649  0.6265  0.9174 -1.1173
   34RES    H6313989   4.558   0.956   5.524 -0.0913  1.4697 -1.3069
   34RES    H6413990   4.706   1.057   5.511  3.1648 -2.6698 -0.1492
   34RES    C6513991   5.120   0.458   5.601 -0.2557 -0.4995  0.3746
   34RES    C6613992   5.154   0.431   5.447 -0.0304 -0.4674  0.3690
   34RES    C6713993   5.131   0.287   5.387 -0.0292 -0.0094 -0.3297
   34RES    C6813994   5.224   0.186   5.455 -0.3391  1.2180  0.0755
   34RES    C6913995   5.173   0.038   5.435  0.3630 -0.5604 -0.3639
   34RES    C7013996   5.064   0.010   5.542 -0.0867 -0.1413 -0.6555
   34RES    C7113997   5.023   7.592   5.533  0.3696  0.2164  0.2400
   34RES    H7213998   5.149   0.562   5.617  0.7445 -0.4132 -1.7406
   34RES    H7313999   5.179   0.402   5.674  0.6350 -1.2809 -0.9191
   34RES    H7414000   5.083   0.489   5.389 -0.3764 -2.9633 -1.7655
   34RES    H7514001   5.030   0.254   5.406  0.0915  1.0962  2.4300
   34RES    H7614002   5.161   0.300   5.282  1.3432  0.5659  0.1127
   34RES    H7714003   5.328   0.183   5.423  0.2705  0.6380  2.0732
   34RES    H7814004   5.221   0.212   5.560  1.5229  2.6783 -0.2156
   34RES    H7914005   5.132   0.036   5.334  0.2445  0.6248 -0.3496
   34RES    H8014006   5.263   7.703   5.437  0.1764 -0.8076  1.4051
   34RES    H8114007   4.980   0.076   5.520 -0.4934  0.7010  3.1346
   34RES    H8214008   5.099   0.014   5.645 -1.3782  2.3159 -0.2730
   34RES    H8314009   4.942   7.579   5.603  0.3090  1.0535  0.3313
   34RES    H8414010   4.978   7.583   5.434  0.4152  1.4877  0.0938
   34RES    H8514011   5.108   7.523   5.529  0.3131  0.2345 -1.7884
   34RES    C8614012   5.300   0.485   5.412 -0.4530  0.0304  0.4362
   34RES    C8714013   5.295   0.643   5.370 -0.1280  0.0999 -0.5754
   34RES    C8814014   5.344   0.725   5.485 -0.3798  0.5299  0.0145
   34RES    C8914015   5.318   0.882   5.488 -0.6275  0.3567 -0.5203
   34RES    C9014016   5.351   0.945   5.628  0.1089  0.2676  0.3869
   34RES    C9114017   5.339   1.096   5.639  0.0252  0.6534  0.3377
   34RES    C9214018   5.443   1.178   5.558  0.4962  0.6453 -0.6437
   34RES    H9314019   5.371   0.465   5.492 -0.9206 -0.5561  0.7101
   34RES    H9414020   5.341   0.435   5.324 -0.5386  0.7375 -0.0128
   34RES    H9514021   5.190   0.669   5.361 -0.8547 -2.0794  1.1836
   34RES    H9614022   5.300   0.690   5.578  1.3915  0.3430  0.8093
   34RES    H9714023   5.450   0.714   5.509 -1.0540 -0.0507  2.8923
   34RES    H9814024   5.358   0.937   5.402 -2.5151  1.0794 -0.9641
   34RES    H9914025   5.212   0.899   5.471 -0.1178  2.7241 -1.5894
   34RES   H10014026   5.450   0.911   5.659 -1.0099 -3.5458  0.0391
   34RES   H10114027   5.279   0.905   5.699 -2.1033  0.5615 -1.6209
   34RES   H10214028   5.236   1.123   5.613 -1.1222 -3.1321  0.6954
   34RES   H10314029   5.350   1.129   5.742  0.7074  1.0540  0.1445
   34RES   H10414030   5.452   1.167   5.450 -2.3881  0.2264 -0.8786
   34RES   H10514031   5.542   1.147   5.590 -1.2027 -2.0656  2.3136
   34RES   H10614032   5.433   1.283   5.583  0.1975  0.2422  1.0041
   34RES   C10714033   5.375   0.674   5.243 -0.2387 -0.5141 -0.2280
   34RES   C10814034   5.313   0.623   5.106  0.9245  0.1424  0.0821
   34RES   C10914035   5.175   0.687   5.063  0.8229  0.6199  0.0538
   34RES   C11014036   5.191   0.841   5.035  0.2951 -0.2366 -0.1592
   34RES   C11114037   5.066   0.906   4.969 -0.0629  0.1736 -0.4324
   34RES   C11214038   5.075   1.058   4.946  0.2641 -0.1498 -0.0322
   34RES   C11314039   4.957   1.135   4.888  0.0799 -0.3658 -0.4768
   34RES   H11414040   5.477   0.637   5.238  0.4973  1.2580  1.3834
   34RES   H11514041   5.379   0.783   5.236  0.9763 -0.5967 -0.9115
   34RES   H11614042   5.276   0.521   5.114 -0.7367  0.5102 -2.4447
   34RES   H11714043   5.102   0.667   5.142  2.1169  1.4894  1.5036
   34RES   H11814044   5.131   0.647   4.972 -0.8679  0.2312  1.0182
   34RES   H11914045   5.201   0.885   5.134 -3.4156 -3.6128  1.8211
   34RES   H12014046   5.279   0.867   4.976 -0.5443  3.2068 -0.0324
   34RES   H12114047   4.983   0.893   5.039 -2.0473  0.1130 -2.7539
   34RES   H12214048   5.040   0.848   4.881  2.0391 -1.8281  0.2325
   34RES   H12314049   5.097   1.105   5.042  0.0881 -0.6362  0.2518
   34RES   H12414050   5.169   1.069   4.891 -0.4958 -2.3366 -1.8718
   34RES   H12514051   4.940   1.111   4.783 -1.1622  0.8020 -0.5560
   34RES   H12614052   4.871   1.118   4.953 -0.4234 -1.1581 -1.3359
   34RES   H12714053   4.969   1.243   4.897  0.6172 -0.6043  1.8381
   34RES   C12814054   5.420   0.611   4.999 -0.1666  0.5335 -0.0854
   34RES   C12914055   5.526   0.495   5.006  0.2182 -0.4534  0.3677
   34RES   C13014056   5.669   0.538   4.978 -0.1140 -0.5559  0.4408
   34RES   C13114057   5.737   0.635   5.076 -0.1459 -0.0779 -0.3507
   34RES   C13214058   5.886   0.657   5.052  0.4272 -0.0479 -1.0487
   34RES   C13314059   5.947   0.790   5.112 -0.1743  0.0454 -0.0218
   34RES   C13414060   5.915   0.801   5.264 -0.5791 -0.0901  0.2757
   34RES   H13514061   5.372   0.605   4.902  0.5860 -0.3626 -0.4170
   34RES   H13614062   5.479   0.702   4.999 -2.1870  1.9135 -3.4424
   34RES   H13714063   5.530   0.461   5.109  2.3397  0.7112  0.7009
   34RES   H13814064   5.679   0.567   4.874  1.1772 -0.2918  0.6222
   34RES   H13914065   5.739   0.454   4.982  1.1035  0.4361  0.3402
   34RES   H14014066   5.721   0.596   5.177  0.5112  1.3193  0.3191
   34RES   H14114067   5.686   0.730   5.056  0.6033  0.4892  0.3754
   34RES   H14214068   5.906   0.677   4.947  3.7832  2.0886 -0.0657
   34RES   H14314069   5.939   0.566   5.076 -0.1371 -0.3912 -1.0922
   34RES   H14414070   5.904   0.872   5.055  0.2492  0.4331  0.2129
   34RES   H14514071   6.053   0.783   5.089 -0.7969 -1.8539 -2.4387
   34RES   H14614072   5.807   0.793   5.280 -0.4752 -1.0125  0.5632
   34RES   H14714073   5.946   0.898   5.304  0.9937 -0.1917 -0.6744
   34RES   H14814074   5.969   0.730   5.327 -0.2941  2.4339  2.9987
   34RES   C14914075   5.468   0.380   4.921  0.3283 -0.2497  0.0497
   34RES   C15014076   5.524   0.242   4.947 -1.1982  1.1643  0.1542
   34RES   C15114077   5.527   0.149   4.820 -0.2563  0.5578  0.0010
   34RES   C15214078   5.391   0.130   4.745 -0.0161 -0.5548  0.3236
   34RES   C15314079   5.389   0.009   4.646  0.1707  0.1563  0.1956
   34RES   C15414080   5.266   0.000   4.544 -0.5245 -0.3651 -0.8839
   34RES   C15514081   5.256   7.603   4.456  0.1169  0.1141  0.2903
   34RES   H15614082   5.359   0.388   4.923  0.5617  3.8362  0.2227
   34RES   H15714083   5.484   0.400   4.815 -1.0877 -1.7677 -0.4664
   34RES   H15814084   5.629   0.265   4.968 -0.6805 -1.4718  0.6065
   34RES   H15914085   5.603   0.187   4.752  1.4355 -1.8116  0.4677
   34RES   H16014086   5.564   0.051   4.851 -3.8777 -1.2836 -1.2213
   34RES   H16114087   5.365   0.220   4.689  0.2395  0.7387  2.2169
   34RES   H16214088   5.321   0.110   4.826  0.4785 -1.9514  0.4276
   34RES   H16314089   5.387   7.649   4.711 -4.5597  0.1825  0.2407
   34RES   H16414090   5.481   0.007   4.586 -0.1217 -1.0402 -0.2282
   34RES   H16514091   5.255   0.085   4.476 -1.8718  0.6689  0.5710
   34RES   H16614092   5.180   0.001   4.612  0.0209  0.7796 -0.1869
   34RES   H16714093   5.181   7.609   4.377  0.1497 -2.6249 -0.0233
   34RES   H16814094   5.219   7.516   4.512 -1.4369  0.3546 -0.3277
   34RES   H16914095   5.349   7.584   4.403 -0.9641 -1.5693 -1.0810
   34RES   C17014096   5.472   0.164   5.071  0.1563  0.4263 -1.0325
   34RES   C17114097   5.571   0.082   5.153 -1.3505 -0.3665 -0.1018
   34RES   C17214098   5.689   0.168   5.214  0.4182  1.0277 -0.0080
   34RES   C17314099   5.643   0.253   5.339 -0.0689 -0.3374  0.6260
   34RES   C17414100   5.758   0.329   5.403 -0.5723 -0.1341  0.6072
   34RES   C17514101   5.725   0.424   5.518 -0.3162  0.5670  1.3311
   34RES   C17614102   5.715   0.343   5.648  0.2393 -1.0530 -0.2706
   34RES   H17714103   5.398   0.092   5.038  0.0917  1.1355 -2.4616
   34RES   H17814104   5.415   0.238   5.128 -0.8626 -1.7921  0.8870
   34RES   H17914105   5.625   0.020   5.080 -0.1778  1.1968 -0.5877
   34RES   H18014106   5.725   0.239   5.139  0.9727 -0.7072 -1.4006
   34RES   H18114107   5.776   0.110   5.246 -1.0246 -1.1143  0.0813
   34RES   H18214108   5.597   0.189   5.414 -0.4942  0.5694  1.1593
   34RES   H18314109   5.565   0.325   5.313 -0.3736 -0.5691  0.9070
   34RES   H18414110   5.818   0.391   5.337 -0.8591  0.2274  0.6856
   34RES   H18514111   5.833   0.255   5.430 -0.0002 -0.3566 -1.5140
   34RES   H18614112   5.633   0.467   5.478  0.7667  1.5663 -0.1301
   34RES   H18714113   5.796   0.506   5.527 -1.1611  1.4638 -0.0294
   34RES   H18814114   5.664   0.247   5.646 -2.7314  0.4671 -0.7751
   34RES   H18914115   5.676   0.412   5.723  1.3854 -0.3460 -0.3148
   34RES   H19014116   5.817   0.317   5.676  0.5851 -0.8326 -1.2918
   34RES   C19114117   5.510   7.706   5.256  0.3498  0.0031 -0.6304
   34RES   C19214118   5.603   7.612   5.333  0.1044 -1.0616 -0.1411
   34RES   C19314119   5.527   7.553   5.455 -0.3971  0.0267  0.1714
   34RES   C19414120   5.531   7.644   5.587 -0.0067  0.3003 -0.3057
   34RES   C19514121   5.473   7.575   5.707  0.5838  0.1603 -0.2930
   34RES   C19614122   5.477   7.651   5.845 -0.1101 -0.3844  0.0401
   34RES   C19714123   5.615   7.701   5.885  0.1743 -0.0834 -0.2817
   34RES   H19814124   5.442   7.642   5.201 -0.8076  1.7713 -1.2945
   34RES   H19914125   5.444   0.032   5.324  1.0319 -0.1670  0.1710
   34RES   H20014126   5.684   7.666   5.380  0.2349 -1.8101  0.5116
   34RES   H20114127   5.566   7.455   5.484 -0.8860 -1.1226 -2.9202
   34RES   H20214128   5.428   7.525   5.421 -1.6961  0.9827  2.9571
   34RES   H20314129   5.481   0.012   5.566  1.0263  1.0308  0.4426
   34RES   H20414130   5.635   7.668   5.611  0.2162 -0.4340 -0.5101
   34RES   H20514131   5.368   7.550   5.697  0.2458  1.1608  0.6915
   34RES   H20614132   5.506   7.471   5.715 -0.3345  0.0010  1.4135
   34RES   H20714133   5.435   7.589   5.924 -3.0749  0.1711 -1.0409
   34RES   H20814134   5.414   0.013   5.840  1.5864  0.8293 -0.2076
   34RES   H20914135   5.692   7.625   5.874 -0.5076 -0.7624 -0.3861
   34RES   H21014136   5.608   0.019   5.984  1.7790 -1.6091  0.5481
   34RES   H21114137   5.644   0.053   5.816 -0.4701 -0.9315 -1.5363
   34RES   C21214138   5.664   7.504   5.250  0.4411  0.5785 -0.1946
   34RES   C21314139   5.773   7.411   5.307  0.6206 -0.5028  0.2343
   34RES   C21414140   5.711   7.272   5.325  0.4468 -0.0577  0.3569
   34RES   C21514141   5.714   7.176   5.208  0.1752  0.1143 -0.7318
   34RES   C21614142   5.661   7.031   5.226 -0.3801  0.0199  0.1549
   34RES   C21714143   5.511   7.037   5.262  0.0052  0.0248  0.6694
   34RES   C21814144   5.437   6.906   5.224  0.0296 -0.6351 -0.5182
   34RES   H21914145   5.707   7.565   5.170 -0.2275  0.8023 -0.3866
   34RES   H22014146   5.585   7.447   5.201  2.1698 -3.4317  1.5133
   34RES   H22114147   5.792   7.452   5.406  1.0621  1.7008 -0.7224
   34RES   H22214148   5.746   7.215   5.411 -2.2670 -1.5883  0.5199
   34RES   H22314149   5.606   7.279   5.354 -0.0701  2.0180 -1.8537
   34RES   H22414150   5.822   7.168   5.197  0.4359 -1.5345  2.3790
   34RES   H22514151   5.670   7.212   5.115 -2.4318  1.0893  0.8493
   34RES   H22614152   5.681   6.963   5.143  1.1748 -2.6296  2.6153
   34RES   H22714153   5.709   6.980   5.309 -0.1476  0.8604  0.5333
   34RES   H22814154   5.499   7.060   5.368 -0.9303  0.7905  0.4051
   34RES   H22914155   5.464   7.117   5.204 -0.6959 -0.5505  0.4494
   34RES   H23014156   5.484   6.831   5.288  1.1150  0.7329  0.3009
   34RES   H23114157   5.460   6.872   5.123 -1.7512 -2.6067 -0.3007
   34RES   H23214158   5.328   6.914   5.229 -0.1008 -2.0743 -0.8508
   34RES   C23314159   5.910   7.414   5.234 -0.5962  0.2618 -0.0958
   34RES   C23414160   5.982   7.550   5.248 -0.5646 -0.4268  0.3783
   34RES   C23514161   6.046   7.578   5.386  0.7895 -0.2340 -0.8914
   34RES   C23614162   5.954   7.660   5.481  0.6688  0.8316 -0.4501
   34RES   C23714163   6.020   7.685   5.608 -0.1456 -0.2249 -0.3004
   34RES   C23814164   5.946   0.043   5.711 -0.2365  0.2653 -0.1240
   34RES   C23914165   6.011   0.033   5.856  0.0344  0.8635  0.2930
   34RES   H24014166   5.882   7.391   5.131 -2.2127 -0.5342  0.5178
   34RES   H24114167   5.984   7.340   5.263 -0.6194 -0.4007 -1.6681
   34RES   H24214168   5.923   7.635   5.214  0.9465  0.4119 -0.1673
   34RES   H24314169   6.136   7.640   5.379 -0.9514  2.5378  0.2495
   34RES   H24414170   6.071   7.488   5.443 -1.8029 -1.2278 -1.3003
   34RES   H24514171   5.862   7.607   5.506  0.9369  1.3652  1.6865
   34RES   H24614172   5.927   0.028   5.434  0.4121  1.8885  1.8104
   34RES   H24714173   6.114   0.007   5.584  0.1197 -0.8923 -0.6465
   34RES   H24814174   6.041   7.593   5.663  0.8954 -0.0778 -0.4588
   34RES   H24914175   5.965   0.145   5.680  1.7372 -0.0740 -0.1011
   34RES   H25014176   5.840   0.019   5.717 -0.3737  0.7157 -0.7157
   34RES   H25114177   6.108   0.083   5.851  0.8460 -0.6524  0.6172
   34RES   H25214178   5.940   0.078   5.926 -1.6747 -0.2757 -0.6632
   34RES   H25314179   6.027   7.656   5.887  2.3414  0.5360 -1.8264
   34RES   C25414180   6.101   7.542   5.144 -0.8484  0.1035 -0.2811
   34RES   C25514181   6.143   7.677   5.085  0.5705 -0.3713  0.4304
   34RES   C25614182   6.042   7.720   4.971 -0.0694  0.6705  0.4018
   34RES   C25714183   6.061   0.152   4.938 -0.3732  0.6284 -0.0940
   34RES   C25814184   5.946   0.218   4.857 -0.4701  0.6747  0.1002
   34RES   C25914185   5.978   0.208   4.710 -0.0812  0.0689 -0.5728
   34RES   C26014186   5.876   0.123   4.636  0.3514 -0.3086  0.2758
   34RES   H26114187   6.085   7.467   5.067 -2.9479  1.1161 -0.8859
   34RES   H26214188   6.189   7.498   5.191 -0.2774  1.2377 -0.2608
   34RES   H26314189   6.139   0.023   5.166 -2.2218  0.8912 -0.7787
   34RES   H26414190   5.940   7.693   5.000 -0.9855  0.2123 -3.0620
   34RES   H26514191   6.058   7.653   4.887 -0.3726  1.4143 -0.2476
   34RES   H26614192   6.046   0.207   5.031 -0.4069  0.2074  0.1508
   34RES   H26714193   6.163   0.182   4.917 -0.5727  1.6420  0.3861
   34RES   H26814194   5.963   0.323   4.880  1.2759  0.2514  0.8253
   34RES   H26914195   5.839   0.202   4.872 -1.0449  1.6549 -2.5354
   34RES   H27014196   5.970   0.303   4.657 -1.2125  0.1433 -0.2818
   34RES   H27114197   6.072   0.158   4.689  0.5795  0.5378  1.1662
   34RES   H27214198   5.920   0.091   4.541  1.0060 -1.8475  1.0890
   34RES   H27314199   5.857   0.032   4.693  1.2643 -0.2158  0.7353
   34RES   H27414200   5.782   0.167   4.602 -0.4175 -1.4921  0.8415
   34RES   C27514201   6.290   7.678   5.030 -0.3163 -0.1355  0.4511
   34RES   C27614202   6.404   7.661   5.133 -0.1808 -0.4720 -0.1019
   34RES   C27714203   6.436   0.077   5.193  0.1842  0.3644  0.2864
   34RES   C27814204   6.551   0.074   5.296  0.5840  0.0761  0.3431
   34RES   C27914205   6.599   0.204   5.351  0.4897 -0.5359  0.1255
   34RES   C28014206   6.741   0.212   5.421 -0.1261 -0.4631 -0.6024
   34RES   C28114207   6.855   0.211   5.321 -0.4681 -0.0740 -0.0988
   34RES   H28214208   6.308   0.048   4.983 -0.6905 -0.2912 -0.0138
   34RES   H28314209   6.282   7.600   4.955  1.2779 -0.1508  0.2817
   34RES   H28414210   6.370   7.591   5.209 -1.3445 -0.6221 -0.7507
   34RES   H28514211   6.472   0.145   5.116  0.5298  1.9233  1.7903
   34RES   H28614212   6.354   0.130   5.242  0.1574 -0.2082  0.8731
   34RES   H28714213   6.634   0.031   5.239 -0.0623 -0.2842 -0.3342
   34RES   H28814214   6.523   0.017   5.385  1.0720  1.5509  1.4633
   34RES   H28914215   6.525   0.244   5.421 -0.9219  1.2392 -2.3109
   34RES   H29014216   6.607   0.271   5.266 -1.4888 -1.7629 -1.0794
   34RES   H29114217   6.736   0.306   5.475 -3.5210 -2.6044  3.0281
   34RES   H29214218   6.748   0.136   5.498 -0.0321 -0.0158 -0.1714
   34RES   H29314219   6.844   0.280   5.238 -1.6320  2.4420  2.0768
   34RES   H29414220   6.863   0.113   5.274  1.1439 -0.1355  0.2891
   34RES   H29514221   6.953   0.225   5.366 -0.2135  0.8788 -0.9468
   34RES   C29614222   6.519   7.596   5.059 -0.5344 -1.1794  0.3267
   34RES   C29714223   6.599   7.499   5.145  0.4260  0.1142  0.0872
   34RES   C29814224   6.732   7.471   5.079  0.3799  0.4398 -0.1330
   34RES   C29914225   6.829   7.592   5.103  0.0355  0.4251 -0.4396
   34RES   C30014226   6.971   7.561   5.065 -0.3625 -0.1294 -0.1248
   34RES   C30114227   7.068   7.681   5.085  1.0851  0.4788  0.0957
   34RES   C30214228   7.217   7.630   5.073 -0.1107 -0.2058  0.2146
   34RES   H30314229   6.502   7.543   4.966  0.6193 -0.1919 -0.4612
   34RES   H30414230   6.580   7.682   5.032  1.4111 -2.0596  1.7411
   34RES   H30514231   6.615   7.531   5.248 -1.9798 -0.2708  0.6114
   34RES   H30614232   6.780   7.389   5.132 -1.3494 -0.2963  0.3381
   34RES   H30714233   6.708   7.443   4.976 -1.6815  0.5021  0.2984
   34RES   H30814234   6.819   7.620   5.208 -0.6670  0.6848 -0.5707
   34RES   H30914235   6.796   7.679   5.047 -1.2435  0.9802  1.1267
   34RES   H31014236   6.978   7.530   4.961  1.5116 -3.5455  0.9260
   34RES   H31114237   7.009   7.469   5.109 -2.6439 -0.7548  0.6317
   34RES   H31214238   7.047   0.028   5.007  1.7436  1.2781  0.6603
   34RES   H31314239   7.055   0.000   5.183 -0.9522  1.4404 -0.5900
   34RES   H31414240   7.238   7.566   5.159  1.2047 -2.1319 -1.4712
   34RES   H31514241   7.230   7.565   4.986  0.9645  0.4584 -0.1379
   34RES   H31614242   7.289   7.710   5.058  1.7726 -2.0130 -0.7317
   34RES   C31714243   6.526   7.370   5.153 -0.2491 -0.5066  0.3649
   34RES   C31814244   6.467   7.328   5.292 -0.4520 -0.5534 -0.0032
   34RES   C31914245   6.367   7.215   5.282 -0.0942 -0.3782  0.5679
   34RES   C32014246   6.302   7.184   5.414 -0.0057  0.1495 -0.0108
   34RES   C32114247   6.208   7.067   5.389 -0.1841  0.1471 -0.3172
   34RES   C32214248   6.092   7.050   5.486  0.1106 -0.0492 -0.0371
   34RES   C32314249   6.142   6.993   5.617 -0.0779  0.3507  0.4698
   34RES   H32414250   6.582   7.288   5.109 -0.2343 -0.0906 -0.3900
   34RES   H32514251   6.440   7.378   5.086 -0.6114 -0.5928  0.8121
   34RES   H32614252   6.406   7.416   5.315  0.7812  0.5901 -0.9666
   34RES   H32714253   6.406   7.125   5.234 -0.1352 -1.2275  2.0759
   34RES   H32814254   6.281   7.239   5.220 -0.4104  0.7889  1.4321
   34RES   H32914255   6.234   7.259   5.455 -1.3341 -2.3109  2.4453
   34RES   H33014256   6.366   7.141   5.491  0.0819  0.5478  0.1367
   34RES   H33114257   6.261   6.976   5.363  0.4940  0.3523  0.3422
   34RES   H33214258   6.151   7.085   5.298  0.2520 -0.1701 -0.6565
   34RES   H33314259   6.019   6.982   5.441  1.2320 -1.1143 -0.3028
   34RES   H33414260   6.049   7.149   5.497 -0.0195 -0.0662 -0.3769
   34RES   H33514261   6.073   7.008   5.701 -0.6684  1.6098 -0.2306
   34RES   H33614262   6.229   7.052   5.645  0.2116 -0.4969  1.3964
   34RES   H33714263   6.174   6.890   5.600 -4.4515 -1.1971  0.7346
   34RES   C33814264   6.578   7.310   5.399  0.2807 -0.2425  0.4270
   34RES   C33914265   6.586   7.426   5.503  0.0590  0.2785 -0.2975
   34RES   C34014266   6.719   7.433   5.578  0.2767 -0.2851 -0.6919
   34RES   C34114267   6.831   7.495   5.493  0.2048  0.3992 -0.1297
   34RES   C34214268   6.962   7.503   5.574  0.2632 -0.1076  0.1057
   34RES   C34314269   7.073   7.579   5.500 -0.3298 -0.4121  0.5560
   34RES   C34414270   7.213   7.581   5.569 -0.0022 -0.0813 -0.1727
   34RES   H34514271   6.676   7.306   5.351  0.8753  0.1324  1.5925
   34RES   H34614272   6.564   7.215   5.450 -0.3023  0.9029  2.4883
   34RES   H34714273   6.582   7.515   5.440  0.2758 -0.0065 -0.7250
   34RES   H34814274   6.697   7.497   5.663  0.6043  1.2508 -1.7460
   34RES   H34914275   6.755   7.336   5.615  0.3957 -0.0521 -0.1934
   34RES   H35014276   6.790   7.588   5.453  0.1312 -0.1292 -1.3036
   34RES   H35114277   6.841   7.432   5.404  1.4223  0.1375  0.1808
   34RES   H35214278   6.944   7.548   5.672 -2.6389 -0.8260 -0.0708
   34RES   H35314279   6.994   7.404   5.605 -1.5557 -1.3155 -1.7858
   34RES   H35414280   7.082   7.539   5.399  2.5877 -2.5859  1.5990
   34RES   H35514281   7.037   7.682   5.502  0.7828 -0.0136  0.6779
   34RES   H35614282   7.274   7.665   5.536  0.0194  0.5118  1.3453
   34RES   H35714283   7.271   7.490   5.551  2.9741  1.5051  0.9166
   34RES   H35814284   7.201   7.601   5.676 -0.9114  0.9757 -0.4654
   34RES   C35914285   6.467   7.397   5.606 -0.7335  0.2717 -0.3973
   34RES   C36014286   6.446   7.497   5.722  0.2497  0.1680 -0.3909
   34RES   C36114287   6.454   7.644   5.677 -0.5138  0.0156  0.1192
   34RES   C36214288   6.447   0.018   5.790 -0.5956  0.4622  0.2505
   34RES   C36314289   6.475   0.159   5.729  1.0301 -0.4600  0.4548
   34RES   C36414290   6.481   0.284   5.821  0.1484 -0.2144  0.1464
   34RES   C36514291   6.503   0.404   5.730 -0.3699 -0.4094  0.0863
   34RES   H36614292   6.488   7.301   5.654 -1.7934  0.6924  0.9436
   34RES   H36714293   6.374   7.386   5.552 -0.5335 -0.0050 -0.6851
   34RES   H36814294   6.528   7.484   5.793 -0.2717 -1.1753 -0.0318
   34RES   H36914295   6.544   7.663   5.620  0.4550 -1.2419  1.2164
   34RES   H37014296   6.370   7.662   5.609  1.3447 -0.2343 -2.2965
   34RES   H37114297   6.345   0.018   5.828 -0.5152 -1.7552  0.5537
   34RES   H37214298   6.527   0.000   5.862  1.2705  1.3033 -1.5321
   34RES   H37314299   6.573   0.144   5.683  0.0423 -1.7792 -1.3291
   34RES   H37414300   6.422   0.166   5.634 -1.0098 -0.5479  1.5684
   34RES   H37514301   6.390   0.288   5.880  0.1999  1.1291  0.1427
   34RES   H37614302   6.566   0.275   5.888  0.0053  0.8637  0.4718
   34RES   H37714303   6.481   0.496   5.783  1.1164  0.7698 -1.2763
   34RES   H37814304   6.609   0.410   5.703  0.0815  1.5756  2.2007
   34RES   H37914305   6.434   0.405   5.645 -1.4524 -2.0882  0.9206
   34RES   C38014306   6.322   7.469   5.811  0.0440  0.2878  0.6274
   34RES   C38114307   6.308   7.336   5.888  0.3151 -0.2224  0.0723
   34RES   C38214308   6.424   7.317   5.988 -0.1085 -0.0677 -0.0865
   34RES   C38314309   6.412   7.403   6.112 -0.3676  0.9963 -0.1255
   34RES   C38414310   6.533   7.439   6.197  0.2947 -1.0751  0.3680
   34RES   C38514311   6.519   7.577   6.258  0.4856  1.1908  0.2644
   34RES   C38614312   6.639   7.622   6.351  0.2110  0.8754  0.3873
   34RES   H38714313   6.317   7.550   5.885 -0.1071  2.7801 -2.0123
   34RES   H38814314   6.228   7.489   5.760  0.1881  1.5882  0.8405
   34RES   H38914315   6.320   7.270   5.802  2.3122  1.0637 -0.6737
   34RES   H39014316   6.516   7.344   5.938  1.2507  0.5848  2.6541
   34RES   H39114317   6.419   7.211   6.016 -2.0140  0.2796  1.0404
   34RES   H39214318   6.363   7.494   6.079  0.1413  1.6935  1.0349
   34RES   H39314319   6.327   7.365   6.169 -0.4950  3.0813  1.0958
   34RES   H39414320   6.546   7.370   6.281  1.1373 -0.1234  1.0326
   34RES   H39514321   6.627   7.424   6.145  0.1367 -3.5952  0.7603
   34RES   H39614322   6.425   7.587   6.312  0.0812  2.3405 -0.6615
   34RES   H39714323   6.521   7.650   6.178 -2.3993 -1.1185 -2.0488
   34RES   H39814324   6.720   7.663   6.292  0.3225  0.2425  0.0985
   34RES   H39914325   6.675   7.541   6.415  2.1781  0.0112 -1.7532
   34RES   H40014326   6.612   7.710   6.410 -2.2203 -0.7200  1.7953
   34RES   C40114327   6.161   7.310   5.942 -0.6537  0.0654  0.4301
   34RES   C40214328   6.047   7.294   5.844 -0.4502  1.3640 -1.1297
   34RES   C40314329   5.921   7.237   5.905  0.0292  0.1469  0.3407
   34RES   C40414330   5.824   7.195   5.797  0.1931 -0.1385 -0.9532
   34RES   C40514331   5.681   7.173   5.856 -0.4567 -0.3119  0.2099
   34RES   C40614332   5.615   7.290   5.913 -0.4803 -0.4921  0.1271
   34RES   C40714333   5.474   7.252   5.945  0.0175  0.8262  0.5641
   34RES   H40814334   6.135   7.387   6.015 -0.9600  0.1900  0.1876
   34RES   H40914335   6.165   7.218   6.002 -2.2949 -1.0430 -1.0915
   34RES   H41014336   6.071   7.225   5.763  1.7865  0.2379  0.4559
   34RES   H41114337   5.887   7.305   5.982  0.9272  0.2716  0.6291
   34RES   H41214338   5.944   7.137   5.943  0.0373  0.1878  0.4415
   34RES   H41314339   5.863   7.105   5.751 -0.5670 -0.6564 -0.5944
   34RES   H41414340   5.827   7.275   5.722  0.0366 -0.8232 -1.6982
   34RES   H41514341   5.625   7.133   5.771  1.9473  1.0214 -2.1055
   34RES   H41614342   5.694   7.090   5.926  1.3368  0.1595  0.4712
   34RES   H41714343   5.669   7.333   5.997 -2.8912  1.2188  0.8547
   34RES   H41814344   5.615   7.364   5.833  0.9861 -0.4813  0.1334
   34RES   H41914345   5.422   7.202   5.863 -0.8179  2.0936  0.3044
   34RES   H42014346   5.434   7.351   5.966 -1.5446  0.0840  1.2084
   34RES   H42114347   5.467   7.181   6.028 -0.3270  0.0021 -0.1550
   34RES   H42214348   6.025   7.393   5.801 -0.1756  1.6059 -0.7136
   35RES     C114349   2.261   0.263   1.075 -0.2427 -0.0850 -0.9061
   35RES     C214350   2.189   0.259   0.945 -0.0973 -0.2052 -0.4655
   35RES     C314351   2.061   0.175   0.961 -0.0054 -0.7746  0.4877
   35RES     C414352   1.952   0.233   1.062  0.0185 -0.2138  1.1244
   35RES     C514353   1.824   0.144   1.051  0.5008 -0.1925 -0.0453
   35RES     C614354   1.714   0.192   1.145 -0.2785 -0.5638 -0.2913
   35RES     C714355   1.571   0.129   1.130  0.0275 -0.4383 -0.0361
   35RES     H814356   2.296   0.165   1.105  0.4836 -0.3357 -2.5211
   35RES     H914357   2.209   0.321   1.152 -0.9319 -0.2809 -1.2234
   35RES    H1014358   2.156   0.355   0.905  0.3787  0.8495  1.6350
   35RES    H1114359   2.024   0.162   0.859  1.3384 -2.5345  0.1916
   35RES    H1214360   2.079   0.076   1.003 -0.8717 -0.9960  0.3389
   35RES    H1314361   1.986   0.236   1.165 -1.1686 -1.5557  1.5681
   35RES    H1414362   1.915   0.331   1.033 -1.2320 -1.1792 -0.6309
   35RES    H1514363   1.841   0.039   1.077  2.8814  0.1774 -0.0135
   35RES    H1614364   1.788   0.161   0.950  1.2107 -0.3706 -0.3294
   35RES    H1714365   1.706   0.300   1.129  0.0662 -0.1941  1.9028
   35RES    H1814366   1.743   0.187   1.250 -1.6504 -1.4978  0.0560
   35RES    H1914367   1.575   0.021   1.140 -0.2529 -0.8573 -3.6292
   35RES    H2014368   1.537   0.166   1.033  0.5963 -2.6689 -1.1239
   35RES    H2114369   1.512   0.180   1.206 -0.1747  0.5523 -0.8372
   35RES    H2214370   2.350   0.324   1.061  0.1187 -0.8356 -1.9252
   35RES    C2314371   2.287   0.195   0.842 -0.4385 -0.0638  0.5833
   35RES    C2414372   2.430   0.248   0.808 -0.0792  0.0380 -0.1993
   35RES    C2514373   2.431   0.397   0.776  0.4488  0.9424 -1.0076
   35RES    C2614374   2.563   0.466   0.800 -0.2019 -0.1653 -0.1202
   35RES    C2714375   2.578   0.604   0.733 -0.0295 -0.5636  0.4499
   35RES    C2814376   2.702   0.683   0.769  0.4105  0.6755  0.3132
   35RES    C2914377   2.700   0.828   0.724  0.4776 -0.5501  0.4065
   35RES    H3014378   2.305   0.090   0.862  1.1124  0.1781  0.4642
   35RES    H3114379   2.225   0.204   0.752  0.7057 -3.1296 -0.5571
   35RES    H3214380   2.492   0.231   0.896  1.1192 -2.9590 -1.5686
   35RES    H3314381   2.356   0.446   0.839  2.9199  1.1025  1.9562
   35RES    H3414382   2.402   0.412   0.672  0.8984 -1.0656 -1.4306
   35RES    H3514383   2.638   0.394   0.767 -2.0051 -1.5718 -1.3141
   35RES    H3614384   2.568   0.484   0.907  1.1032 -3.6028  0.4821
   35RES    H3714385   2.487   0.661   0.753  1.5199  2.3382 -0.5691
   35RES    H3814386   2.574   0.602   0.624  1.9601  0.9591  0.3275
   35RES    H3914387   2.789   0.636   0.723 -0.1691 -0.5918  0.4728
   35RES    H4014388   2.714   0.687   0.877  0.6949  2.1581  0.2285
   35RES    H4114389   2.775   0.880   0.784  2.4919 -2.9022  0.0250
   35RES    H4214390   2.718   0.840   0.618 -0.6905 -0.7857  0.1817
   35RES    H4314391   2.601   0.867   0.744  0.5857 -0.6676  1.2248
   35RES    C4414392   2.490   0.166   0.694  0.5559 -0.4942 -0.6004
   35RES    C4514393   2.571   0.044   0.745 -0.2760 -0.1894 -0.9501
   35RES    C4614394   2.558   7.650   0.661  0.4523  0.5250 -0.2299
   35RES    C4714395   2.614   7.675   0.518 -0.3208  0.0505  0.8906
   35RES    C4814396   2.612   7.541   0.442  0.4282 -0.0046  0.1707
   35RES    C4914397   2.708   7.531   0.319 -0.0813  0.1909 -0.0977
   35RES    C5014398   2.718   7.655   0.234  0.6706  0.4573 -0.1090
   35RES    H5114399   2.558   0.226   0.634  0.1554 -1.0864 -1.6672
   35RES    H5214400   2.411   0.126   0.630 -1.5586 -2.5735  3.1197
   35RES    H5314401   2.527   0.003   0.836  3.5989 -1.0294  0.6455
   35RES    H5414402   2.457   7.611   0.646 -0.9139  2.3175  3.7256
   35RES    H5514403   2.604   7.563   0.707  0.1244  0.6948  0.4247
   35RES    H5614404   2.552   0.020   0.463 -0.1788 -0.4528  0.0608
   35RES    H5714405   2.720   7.701   0.522 -0.3731  0.2359  1.0530
   35RES    H5814406   2.514   7.538   0.396  0.4415 -2.0820  0.2125
   35RES    H5914407   2.630   7.458   0.511  1.1216 -0.8115 -0.9590
   35RES    H6014408   2.688   7.439   0.264 -0.5320  2.8484 -4.6362
   35RES    H6114409   2.813   7.514   0.342  0.4875  1.6692 -1.4666
   35RES    H6214410   2.618   7.681   0.199  0.6868 -0.4468 -0.8433
   35RES    H6314411   2.800   7.640   0.164 -1.2510  0.9163 -2.4805
   35RES    H6414412   2.751   0.008   0.301  1.5366 -0.0903  0.1293
   35RES    C6514413   2.722   0.080   0.774 -1.0116  0.3061  0.4647
   35RES    C6614414   2.762   0.147   0.912 -0.3708  0.3347 -0.1042
   35RES    C6714415   2.904   0.192   0.920 -0.2737 -0.0088  0.1267
   35RES    C6814416   2.941   0.295   0.814 -0.7493 -0.2656 -0.2796
   35RES    C6914417   3.092   0.322   0.822  0.1200 -0.2121  0.6020
   35RES    C7014418   3.132   0.434   0.726 -0.7886 -0.2563 -0.0792
   35RES    C7114419   3.280   0.474   0.754  0.1100  0.0983  0.0130
   35RES    H7214420   2.782   7.715   0.776  1.0241  1.6302  1.2807
   35RES    H7314421   2.762   0.121   0.682  0.0668 -0.9001  0.3824
   35RES    H7414422   2.705   0.240   0.912  0.9330  1.1520  0.1835
   35RES    H7514423   2.914   0.229   1.022 -1.0101 -1.9556  0.9219
   35RES    H7614424   2.967   0.103   0.916  1.8753  1.5028 -1.1658
   35RES    H7714425   2.919   0.262   0.712 -0.7533 -0.1980 -0.3001
   35RES    H7814426   2.878   0.382   0.827 -2.5701 -1.6714  0.6268
   35RES    H7914427   3.135   0.345   0.919 -1.5132  0.2174  1.2448
   35RES    H8014428   3.149   0.234   0.794  0.0722 -0.5900  1.6717
   35RES    H8114429   3.069   0.523   0.739 -1.0151 -0.6427  1.6484
   35RES    H8214430   3.139   0.399   0.623  1.9871 -0.5026  0.1444
   35RES    H8314431   3.365   0.405   0.757 -0.4154 -0.5235  0.7654
   35RES    H8414432   3.315   0.546   0.680 -1.6655 -0.8974 -1.8525
   35RES    H8514433   3.292   0.529   0.847 -1.7886  2.9810 -1.3631
   35RES    C8614434   2.725   0.060   1.033  0.0861  0.1065 -0.1670
   35RES    C8714435   2.728   0.122   1.178  0.1497  0.8476 -1.0409
   35RES    C8814436   2.615   0.227   1.187  0.4279  0.0180 -0.1317
   35RES    C8914437   2.657   0.341   1.282  0.4871 -0.6744  0.2442
   35RES    C9014438   2.539   0.443   1.315 -0.3973  0.3982  0.4216
   35RES    C9114439   2.447   0.386   1.424  0.3252  0.1312  0.3360
   35RES    C9214440   2.332   0.486   1.453  0.3612  0.6176 -0.7137
   35RES    H9314441   2.626   0.015   1.029 -0.2532  0.8148  0.3389
   35RES    H9414442   2.787   7.696   1.037 -0.9387 -0.5119  2.1965
   35RES    H9514443   2.827   0.163   1.194 -0.7337  2.7626 -0.2469
   35RES    H9614444   2.608   0.288   1.097  0.8031 -0.1210 -0.2564
   35RES    H9714445   2.518   0.181   1.205 -0.5282  1.1150 -2.1998
   35RES    H9814446   2.688   0.293   1.375 -0.6035 -1.0347  0.4340
   35RES    H9914447   2.744   0.391   1.239  0.1962  0.0641  0.5045
   35RES   H10014448   2.478   0.474   1.230 -0.5851 -0.7432  0.1236
   35RES   H10114449   2.587   0.530   1.358  2.9213 -1.8974  1.5311
   35RES   H10214450   2.408   0.291   1.388  2.1470 -0.8231  0.8202
   35RES   H10314451   2.503   0.350   1.510  1.0741 -0.4804 -0.3855
   35RES   H10414452   2.296   0.516   1.354  0.1333 -1.8978 -1.4158
   35RES   H10514453   2.359   0.574   1.512  0.7443 -0.1084  0.2015
   35RES   H10614454   2.260   0.424   1.506 -1.6025  0.5290 -3.3813
   35RES   C10714455   2.698   0.012   1.287 -0.1764 -0.3755 -0.3867
   35RES   C10814456   2.816   7.643   1.316  0.2150 -0.4062  0.1481
   35RES   C10914457   2.908   7.697   1.433  0.0330 -0.2806  0.0851
   35RES   C11014458   3.058   7.690   1.416 -0.1974 -0.1113 -0.5356
   35RES   C11114459   3.100   0.087   1.333  0.0281  0.4740 -0.1950
   35RES   C11214460   3.114   0.219   1.408 -0.2548  0.3484  0.1551
   35RES   C11314461   3.109   0.342   1.311 -0.3154  0.4695  0.1741
   35RES   H11414462   2.609   7.682   1.260 -0.7435 -0.0734  0.7939
   35RES   H11514463   2.682   0.067   1.380 -1.4612 -1.5601  0.1221
   35RES   H11614464   2.867   7.646   1.219  1.3388 -1.8313  0.6766
   35RES   H11714465   2.891   7.639   1.524  1.1727  0.5013  0.8149
   35RES   H11814466   2.872   0.063   1.476  1.0537 -0.0213  0.4018
   35RES   H11914467   3.111   7.687   1.511  0.9567  1.6856 -1.1006
   35RES   H12014468   3.087   7.604   1.355  1.3855  1.0052 -1.4124
   35RES   H12114469   3.040   0.111   1.245 -1.2125 -0.5722  0.3386
   35RES   H12214470   3.199   0.072   1.290 -0.5079  1.2244 -1.7177
   35RES   H12314471   3.039   0.248   1.481  1.0477  0.9351  1.2983
   35RES   H12414472   3.208   0.219   1.463  0.5544  0.9347 -1.1966
   35RES   H12514473   3.194   0.359   1.245 -0.8443 -1.4228 -1.0494
   35RES   H12614474   3.025   0.345   1.242 -0.8304 -1.2067  0.6984
   35RES   H12714475   3.106   0.437   1.364 -2.2452  1.1506 -1.0849
   35RES   C12814476   2.763   7.500   1.345 -0.8142 -0.6117  0.5967
   35RES   C12914477   2.853   7.391   1.294  0.2863  0.1276  0.4614
   35RES   C13014478   2.841   7.369   1.138 -0.5347 -0.8826  0.2809
   35RES   C13114479   2.696   7.363   1.083  0.1500  0.1736  0.0446
   35RES   C13214480   2.693   7.299   0.941 -0.7912  0.7153 -0.3005
   35RES   C13314481   2.544   7.307   0.892  1.1687 -0.4012 -0.2061
   35RES   C13414482   2.508   7.240   0.755  0.0875  0.6617 -0.0497
   35RES   H13514483   2.740   7.493   1.451 -0.1955  0.6251  0.8169
   35RES   H13614484   2.664   7.488   1.299  0.4976 -2.8905 -1.7427
   35RES   H13714485   2.955   7.426   1.305  0.8743 -1.2578 -0.4359
   35RES   H13814486   2.895   7.275   1.125  0.3780 -0.3950  0.4515
   35RES   H13914487   2.897   7.450   1.091 -0.5241 -0.5206  0.9054
   35RES   H14014488   2.650   7.461   1.096 -1.5216 -0.5886  0.0999
   35RES   H14114489   2.640   7.294   1.147 -1.4291 -0.1280 -1.6000
   35RES   H14214490   2.725   7.196   0.955  1.2397  1.0398 -2.3605
   35RES   H14314491   2.763   7.347   0.874 -0.9613  0.4059 -0.6979
   35RES   H14414492   2.510   7.410   0.888  2.4040 -0.0645 -2.6252
   35RES   H14514493   2.484   7.274   0.977  2.8933 -0.7301  0.8921
   35RES   H14614494   2.418   7.289   0.718  0.4009  1.8363  0.7290
   35RES   H14714495   2.496   7.132   0.769  0.3758  0.5916 -0.3505
   35RES   H14814496   2.578   7.259   0.674  1.0006  1.6797  0.9655
   35RES   C14914497   2.834   7.255   1.382  0.2818 -0.6846  0.5259
   35RES   C15014498   2.934   7.135   1.351 -0.9368 -0.7031 -0.0651
   35RES   C15114499   2.866   7.011   1.411 -0.0619 -0.1550  0.4574
   35RES   C15214500   2.870   6.997   1.564 -0.2930 -0.3380  0.1530
   35RES   C15314501   2.743   6.935   1.624 -0.2158 -0.3587 -0.1744
   35RES   C15414502   2.728   6.791   1.578  0.3560  0.2005  0.0138
   35RES   C15514503   2.623   6.726   1.672  0.7723  0.1160 -0.9493
   35RES   H15614504   2.824   7.278   1.488 -0.2415 -1.0919  0.5619
   35RES   H15714505   2.731   7.226   1.360  0.1687 -0.4489  0.7425
   35RES   H15814506   2.932   7.115   1.244 -0.4849 -2.8444  0.2953
   35RES   H15914507   2.761   7.017   1.385  0.5831  0.1948 -2.1751
   35RES   H16014508   2.886   6.914   1.366  1.3432 -0.3920  1.5582
   35RES   H16114509   2.882   7.096   1.607 -0.6937 -0.2699  0.1169
   35RES   H16214510   2.951   6.931   1.593 -2.0528 -1.8029  1.8673
   35RES   H16314511   2.653   6.995   1.608  0.4969  1.3504  1.8771
   35RES   H16414512   2.757   6.949   1.731 -0.6501 -0.2012 -0.1362
   35RES   H16514513   2.823   6.738   1.571  0.3122 -0.0939  1.5007
   35RES   H16614514   2.695   6.784   1.475 -3.1274 -1.5410  1.1693
   35RES   H16714515   2.662   6.709   1.772 -0.6460 -0.0786 -0.4231
   35RES   H16814516   2.590   6.627   1.641 -0.3988  0.1376  0.2031
   35RES   H16914517   2.538   6.794   1.679 -0.7909 -1.8866  0.0151
   35RES   C17014518   3.080   7.166   1.393  0.3939  0.9352 -0.2599
   35RES   C17114519   3.186   7.065   1.354  0.1623  0.2912  0.6022
   35RES   C17214520   3.253   7.091   1.213 -0.3322  0.1682  0.1819
   35RES   C17314521   3.315   7.228   1.199 -0.2364 -0.4592  0.3310
   35RES   C17414522   3.409   7.247   1.071  0.0100 -0.5300  0.3605
   35RES   C17514523   3.553   7.208   1.113 -0.0010 -0.6649  0.3548
   35RES   C17614524   3.661   7.247   1.015  0.2540 -0.5580 -0.0104
   35RES   H17714525   3.078   7.181   1.501  0.1484 -0.4012 -0.0699
   35RES   H17814526   3.119   7.263   1.361  1.1099  0.1857 -1.7253
   35RES   H17914527   3.138   6.968   1.357 -1.9411  1.2241 -1.2519
   35RES   H18014528   3.187   7.080   1.128 -0.2351 -0.8959  0.2263
   35RES   H18114529   3.336   7.022   1.195 -0.0362  0.5964 -0.1021
   35RES   H18214530   3.365   7.259   1.291 -1.2622 -1.9391  1.3874
   35RES   H18314531   3.230   7.292   1.177 -0.7664 -0.7576  1.4878
   35RES   H18414532   3.411   7.354   1.049 -0.4374 -0.0736  2.3825
   35RES   H18514533   3.373   7.191   0.985  0.7014  2.5807 -2.0375
   35RES   H18614534   3.557   7.100   1.127  1.1303 -0.8907 -1.5945
   35RES   H18714535   3.584   7.250   1.209  1.1890 -1.5883  0.3850
   35RES   H18814536   3.670   7.356   1.022 -0.3877 -0.5214  0.3537
   35RES   H18914537   3.637   7.240   0.909  0.4577  1.5285 -0.2108
   35RES   H19014538   3.761   7.213   1.039  0.4858 -0.5516 -0.9638
   35RES   C19114539   3.296   7.036   1.469 -0.2681  0.0038 -0.5164
   35RES   C19214540   3.353   6.895   1.456  0.3007 -0.6008  0.2507
   35RES   C19314541   3.502   6.892   1.500 -0.6496  0.4830  0.6195
   35RES   C19414542   3.599   6.964   1.411  1.0600  0.1932  0.1408
   35RES   C19514543   3.749   6.911   1.413  0.3252  0.0445 -0.2301
   35RES   C19614544   3.844   6.988   1.315  0.0506 -0.0973 -0.5795
   35RES   C19714545   3.858   7.134   1.354 -0.4577 -0.3465  0.6612
   35RES   H19814546   3.260   7.049   1.571 -1.3549 -1.9804 -0.6318
   35RES   H19914547   3.375   7.110   1.470 -1.0223  0.8570 -2.5186
   35RES   H20014548   3.347   6.871   1.350  2.3972  1.8222 -0.4657
   35RES   H20114549   3.518   6.785   1.490 -0.3087  0.7497 -2.0911
   35RES   H20214550   3.509   6.922   1.605 -0.8789  0.1035  0.7428
   35RES   H20314551   3.597   7.070   1.436 -2.9177  0.0841  0.6625
   35RES   H20414552   3.562   6.941   1.311 -0.4623 -0.7457  0.9017
   35RES   H20514553   3.789   6.917   1.514 -0.8405  0.9995  0.1870
   35RES   H20614554   3.760   6.803   1.400 -0.9706 -0.3482  1.8086
   35RES   H20714555   3.807   6.986   1.212  2.9133  0.3038 -1.6584
   35RES   H20814556   3.945   6.950   1.330  0.4110  1.0459 -0.0581
   35RES   H20914557   3.767   7.189   1.374  0.7404  2.5046 -1.3659
   35RES   H21014558   3.892   7.189   1.267 -1.9544 -0.3078  0.0913
   35RES   H21114559   3.931   7.139   1.435  0.0761  2.1686  0.0618
   35RES   C21214560   3.270   6.792   1.540 -0.4196 -0.0619  0.1498
   35RES   C21314561   3.262   6.650   1.487  0.5537 -0.2977  0.1753
   35RES   C21414562   3.235   6.544   1.602  0.1956 -0.3275  0.4582
   35RES   C21514563   3.320   6.544   1.727 -0.4057  0.4254  0.3584
   35RES   C21614564   3.464   6.496   1.689 -0.1788 -0.3126 -0.4197
   35RES   C21714565   3.540   6.491   1.821  0.4157 -0.5418 -0.7845
   35RES   C21814566   3.688   6.461   1.813 -0.0013  0.1797  0.5188
   35RES   H21914567   3.170   6.832   1.558  0.0663  0.9975  0.5745
   35RES   H22014568   3.317   6.797   1.639 -1.3465  1.6143  0.5330
   35RES   H22114569   3.354   6.620   1.437  1.5014  1.7635  0.6417
   35RES   H22214570   3.136   6.551   1.648  0.2827 -0.6259  0.6895
   35RES   H22314571   3.241   6.442   1.565  3.6363  0.4339 -1.1810
   35RES   H22414572   3.300   6.482   1.815  1.1238  1.8611  1.7500
   35RES   H22514573   3.331   6.646   1.764 -1.4224  1.0519 -1.0236
   35RES   H22614574   3.469   6.398   1.642 -0.7029  0.4397 -2.1135
   35RES   H22714575   3.509   6.565   1.617  0.1088 -0.8779 -0.7821
   35RES   H22814576   3.524   6.588   1.867 -1.1657 -0.7205 -0.9464
   35RES   H22914577   3.502   6.411   1.885  1.1630  1.2597  1.9831
   35RES   H23014578   3.734   6.482   1.716 -1.4784  0.1900 -0.1891
   35RES   H23114579   3.692   6.353   1.822 -0.3880 -0.0573 -1.7256
   35RES   H23214580   3.743   6.511   1.892  1.2117  3.2059 -2.1163
   35RES   C23314581   3.158   6.636   1.367 -0.1437 -0.0456  0.5953
   35RES   C23414582   3.166   6.507   1.288 -0.7744  0.1695 -0.1242
   35RES   C23514583   3.041   6.426   1.305 -0.1511  0.7100  0.3482
   35RES   C23614584   2.913   6.493   1.247  0.8268 -0.2440  0.4451
   35RES   C23714585   2.791   6.429   1.306  0.2895  0.4845  1.0227
   35RES   C23814586   2.661   6.503   1.266 -0.5306  0.6890 -0.0150
   35RES   C23914587   2.626   6.489   1.112 -0.0770 -0.3529 -0.1833
   35RES   H24014588   3.187   6.715   1.297 -1.3159  0.8710  1.1148
   35RES   H24114589   3.061   6.657   1.412 -1.0296 -1.7605 -0.4608
   35RES   H24214590   3.249   6.454   1.335  0.4328  0.3815 -1.9723
   35RES   H24314591   3.023   6.399   1.409 -1.2025  1.3916  0.3506
   35RES   H24414592   3.053   6.327   1.261 -2.0884  0.3507  0.5501
   35RES   H24514593   2.924   6.469   1.142  1.2967  1.9127 -0.0146
   35RES   H24614594   2.910   6.602   1.246 -0.2863 -0.2486 -2.7304
   35RES   H24714595   2.802   6.424   1.414 -0.1556  0.5390  1.0694
   35RES   H24814596   2.784   6.323   1.282 -1.0921  1.1072 -1.5467
   35RES   H24914597   2.565   6.470   1.306  0.6738 -0.5524  1.9425
   35RES   H25014598   2.672   6.611   1.277 -0.9750  0.5809  1.5045
   35RES   H25114599   2.708   6.518   1.045  1.1313 -0.3908  1.2501
   35RES   H25214600   2.603   6.386   1.085  1.3841  0.0318 -3.1502
   35RES   H25314601   2.547   6.560   1.088 -0.3179  0.1300  1.9391
   35RES   C25414602   3.205   6.521   1.133  0.1525 -0.3106 -0.9043
   35RES   C25514603   3.360   6.539   1.109  0.3541  0.9628 -0.7894
   35RES   C25614604   3.397   6.644   1.006  0.1425 -0.0277 -0.1056
   35RES   C25714605   3.327   6.622   0.868  0.0065 -0.3433 -0.2871
   35RES   C25814606   3.256   6.746   0.815  1.2325  0.0139  0.1051
   35RES   C25914607   3.341   6.861   0.762  1.1597  0.3056 -0.1164
   35RES   C26014608   3.271   6.993   0.748  0.8180 -0.5007  0.2608
   35RES   H26114609   3.153   6.607   1.091 -3.4866 -1.9149  0.1257
   35RES   H26214610   3.177   6.434   1.074  1.3028  1.0313 -3.4670
   35RES   H26314611   3.407   6.572   1.201  1.8897  0.2753 -1.3049
   35RES   H26414612   3.503   6.649   0.981  0.6836 -1.8530  1.7130
   35RES   H26514613   3.383   6.747   1.042  0.3854 -0.2812  0.7321
   35RES   H26614614   3.402   6.601   0.793 -0.0743 -0.2773 -0.3855
   35RES   H26714615   3.252   6.542   0.873 -0.8271  0.4868  0.8110
   35RES   H26814616   3.172   6.771   0.880  0.7005 -2.6031  0.4924
   35RES   H26914617   3.201   6.722   0.724 -0.5162  1.6490  0.6860
   35RES   H27014618   3.421   6.881   0.834  0.9118  1.4007 -0.1363
   35RES   H27114619   3.379   6.843   0.661 -0.4174  0.3305 -0.7194
   35RES   H27214620   3.227   7.017   0.845  2.1773 -0.4706  0.8776
   35RES   H27314621   3.338   7.074   0.717  0.1392 -1.2255 -3.2990
   35RES   H27414622   3.186   6.976   0.682 -0.3341  0.4233  1.4979
   35RES   C27514623   3.434   6.407   1.077 -0.8279  0.3882  0.5602
   35RES   C27614624   3.459   6.298   1.186 -0.3607  0.1284  0.2536
   35RES   C27714625   3.602   6.238   1.189 -0.4518  0.4151  0.6812
   35RES   C27814626   3.646   6.177   1.052  0.1412  0.1180 -0.3342
   35RES   C27914627   3.746   6.057   1.071  0.1111 -0.3548  0.3951
   35RES   C28014628   3.780   5.988   0.935  0.3726  0.2887 -0.0978
   35RES   C28114629   3.888   5.886   0.968 -0.4777  0.1050  0.0756
   35RES   H28214630   3.529   6.429   1.029 -0.5649  0.1325  0.9612
   35RES   H28314631   3.375   6.356   1.001 -2.5907  1.5313  1.1403
   35RES   H28414632   3.462   6.354   1.279 -1.0417 -0.4731  0.6378
   35RES   H28514633   3.666   6.322   1.214  0.7488 -0.2176 -0.2472
   35RES   H28614634   3.611   6.166   1.270 -0.4759 -0.7625 -0.3536
   35RES   H28714635   3.699   6.253   0.995  0.7572  1.6216  2.1811
   35RES   H28814636   3.563   6.137   0.993 -1.4934  2.4016  0.3645
   35RES   H28914637   3.698   5.993   1.146 -0.1421 -0.2572  0.3162
   35RES   H29014638   3.836   6.099   1.116  1.5430  0.2047 -2.8976
   35RES   H29114639   3.695   5.940   0.887  0.0223  1.0027 -0.2072
   35RES   H29214640   3.822   6.062   0.866  0.8088  1.3022  1.2372
   35RES   H29314641   3.894   5.815   0.886  0.0402  2.0666 -1.6373
   35RES   H29414642   3.868   5.838   1.064 -0.8230 -0.7181 -0.4090
   35RES   H29514643   3.989   5.925   0.986 -0.5826 -0.9505  3.2841
   35RES   C29614644   3.350   6.192   1.176  0.5267 -1.0914  0.0868
   35RES   C29714645   3.349   6.083   1.289 -0.2690 -0.1677 -0.8262
   35RES   C29814646   3.255   5.967   1.258 -0.0711  0.1877 -0.5176
   35RES   C29914647   3.300   5.859   1.156 -0.0514  0.0203  0.2485
   35RES   C30014648   3.440   5.804   1.176 -0.6861  0.0077  0.3507
   35RES   C30114649   3.448   5.720   1.309  0.2590 -0.8214  0.0397
   35RES   C30214650   3.591   5.664   1.329  0.6606 -0.4118  0.7364
   35RES   H30314651   3.250   6.235   1.172  1.2733  0.4992 -2.3675
   35RES   H30414652   3.346   6.146   1.077  2.4984  1.7976 -1.4111
   35RES   H30514653   3.449   6.041   1.305 -0.2642 -0.1776 -0.8797
   35RES   H30614654   3.243   5.912   1.352 -1.0459 -0.4585 -1.0092
   35RES   H30714655   3.161   6.005   1.219 -0.6085  0.1172  0.6771
   35RES   H30814656   3.313   5.899   1.055  1.1991  1.4834  0.9618
   35RES   H30914657   3.223   5.783   1.144  1.2054 -1.2469  0.2262
   35RES   H31014658   3.510   5.887   1.168  1.4878 -1.9290 -1.3861
   35RES   H31114659   3.465   5.740   1.092 -0.0212 -0.0091  0.5524
   35RES   H31214660   3.418   5.764   1.404 -0.0852  0.1088 -0.4903
   35RES   H31314661   3.376   5.638   1.307 -0.3870 -0.2472 -1.6755
   35RES   H31414662   3.618   5.616   1.235 -2.9132 -1.5894  0.2177
   35RES   H31514663   3.673   5.730   1.357  0.6284  1.8518 -4.0178
   35RES   H31614664   3.596   5.588   1.407 -0.5915 -1.1465  0.1156
   35RES   C31714665   3.314   6.139   1.430  0.2807  0.4275  0.5714
   35RES   C31814666   3.359   6.052   1.557 -0.8737 -0.1429  0.2332
   35RES   C31914667   3.517   6.045   1.569  0.1879  0.0841  0.3662
   35RES   C32014668   3.574   5.939   1.666  0.0661 -0.2799  0.9053
   35RES   C32114669   3.724   5.934   1.650  0.7472 -0.5176  0.2355
   35RES   C32214670   3.806   5.852   1.746 -0.7905 -0.0630 -0.2598
   35RES   C32314671   3.812   5.706   1.689  0.2581  0.1034 -0.3771
   35RES   H32414672   3.209   6.164   1.438  0.7634  2.8048 -0.1775
   35RES   H32514673   3.353   6.240   1.437  0.1299  0.4755  0.6946
   35RES   H32614674   3.330   5.947   1.551 -0.0734 -0.3624  0.1346
   35RES   H32714675   3.568   6.140   1.585 -0.6297  0.6929 -0.5109
   35RES   H32814676   3.563   6.022   1.472  2.3552 -3.7573  2.2040
   35RES   H32914677   3.528   5.847   1.631  3.2827 -1.1983 -1.1169
   35RES   H33014678   3.544   5.952   1.770 -0.3534  0.9370  0.6449
   35RES   H33114679   3.761   6.036   1.664  0.1007 -0.1932 -0.3868
   35RES   H33214680   3.742   5.916   1.544 -0.0878  1.7185 -0.3187
   35RES   H33314681   3.761   5.845   1.845  2.1284 -1.2990  1.0702
   35RES   H33414682   3.911   5.878   1.755 -0.6129 -0.7435 -0.3060
   35RES   H33514683   3.847   5.634   1.763 -0.1961  1.1054  0.8496
   35RES   H33614684   3.876   5.708   1.602  0.7683  0.9479  0.0138
   35RES   H33714685   3.723   5.652   1.656  0.9644 -1.3918  0.1360
   35RES   C33814686   3.297   6.108   1.686 -0.1722 -0.3454  0.3078
   35RES   C33914687   3.148   6.069   1.709  0.1542  0.4867  0.3620
   35RES   C34014688   3.098   6.167   1.823 -1.2071  0.6010  0.5345
   35RES   C34114689   2.990   6.265   1.772  0.2698  0.1081 -0.3980
   35RES   C34214690   2.922   6.338   1.882 -0.9815  0.2661 -0.0794
   35RES   C34314691   2.810   6.444   1.848  0.1277  0.8243  0.1576
   35RES   C34414692   2.729   6.476   1.971  0.1004  0.4038  0.6553
   35RES   H34514693   3.305   6.217   1.690 -0.9340 -0.3262  1.6892
   35RES   H34614694   3.355   6.081   1.774  0.9998  1.6181  0.1644
   35RES   H34714695   3.087   6.085   1.620 -0.0435 -2.3745 -0.0582
   35RES   H34814696   3.049   6.114   1.905  1.6216 -1.9110  0.6991
   35RES   H34914697   3.169   6.233   1.874  0.4536  0.7199 -1.8602
   35RES   H35014698   2.913   6.215   1.713  0.8691 -1.2662 -0.0398
   35RES   H35114699   3.037   6.337   1.705  1.2643 -0.6582 -0.5325
   35RES   H35214700   2.873   6.259   1.939  0.7958 -1.6331 -1.1458
   35RES   H35314701   3.000   6.387   1.941  0.5950 -1.3290 -0.8050
   35RES   H35414702   2.844   6.533   1.796 -2.7062  1.1820 -1.1634
   35RES   H35514703   2.740   6.396   1.780  0.2990 -0.3059  0.7751
   35RES   H35614704   2.799   6.531   2.034 -2.4183  2.0189  2.1370
   35RES   H35714705   2.704   6.385   2.024 -0.2383  0.7086  1.0177
   35RES   H35814706   2.638   6.529   1.942  0.3912 -0.7687 -2.7227
   35RES   C35914707   3.124   5.919   1.741  0.7607 -0.0337 -0.7479
   35RES   C36014708   2.972   5.876   1.730 -0.4787 -0.4520 -0.4504
   35RES   C36114709   2.933   5.834   1.591  0.6320  0.3810 -0.8415
   35RES   C36214710   2.783   5.829   1.564 -0.1800  0.1030 -0.0752
   35RES   C36314711   2.710   5.963   1.554 -0.3000  0.3829 -0.4072
   35RES   C36414712   2.599   5.969   1.452 -0.2244  0.1912 -0.1420
   35RES   C36514713   2.536   6.109   1.446 -0.6255 -0.2242 -0.4029
   35RES   H36614714   3.151   5.897   1.844 -3.0433 -0.2711  0.2960
   35RES   H36714715   3.191   5.862   1.678 -0.0947 -2.6711  0.6412
   35RES   H36814716   2.912   5.963   1.759  0.9797  0.2875  0.4250
   35RES   H36914717   2.975   5.920   1.540  0.4515  0.7008 -0.4506
   35RES   H37014718   2.982   5.744   1.554 -0.4904  0.0701 -1.6210
   35RES   H37114719   2.772   5.784   1.465 -2.6322 -1.4502  0.8685
   35RES   H37214720   2.736   5.758   1.631 -1.2841  0.8285 -0.0788
   35RES   H37314721   2.668   5.987   1.652 -0.6198 -1.2645 -0.1381
   35RES   H37414722   2.774   6.050   1.538  0.9026 -0.0096  2.0176
   35RES   H37514723   2.631   5.929   1.356 -0.1903 -2.1363  0.8099
   35RES   H37614724   2.522   5.900   1.488 -0.4581 -0.1673 -1.3071
   35RES   H37714725   2.482   6.138   1.536 -2.2772 -1.1325 -1.0910
   35RES   H37814726   2.622   6.176   1.434  0.2809 -1.5433 -1.4360
   35RES   H37914727   2.469   6.119   1.361 -1.3633 -0.9686  0.0930
   35RES   C38014728   2.942   5.768   1.844  0.2585 -0.1378 -0.1280
   35RES   C38114729   2.898   5.815   1.985 -0.1910  0.5712 -1.0026
   35RES   C38214730   2.760   5.755   2.028 -0.0769  0.0770 -0.3894
   35RES   C38314731   2.628   5.802   1.956  0.7312  0.0986  0.0723
   35RES   C38414732   2.592   5.950   1.976  0.4521 -0.3210 -0.0524
   35RES   C38514733   2.469   5.984   1.889  0.1410  0.3621  0.2386
   35RES   C38614734   2.441   6.136   1.913 -0.3051  0.1151 -0.3026
   35RES   H38714735   2.862   5.702   1.809  1.3139 -1.8288  0.5789
   35RES   H38814736   3.022   5.694   1.843 -1.2270 -1.8469  2.0065
   35RES   H38914737   2.883   5.923   1.981 -0.9781  0.5170  0.0279
   35RES   H39014738   2.742   5.774   2.134 -2.3893  0.5826 -0.8424
   35RES   H39114739   2.763   5.646   2.021 -0.4060  0.0601 -0.2912
   35RES   H39214740   2.627   5.774   1.851 -1.2610  0.1949  0.0535
   35RES   H39314741   2.548   5.746   2.005 -0.1165  1.3953  0.1924
   35RES   H39414742   2.556   5.964   2.077 -0.4548 -3.1941  0.0764
   35RES   H39514743   2.680   6.009   1.952 -0.1537  1.3018  1.6158
   35RES   H39614744   2.382   5.922   1.911 -0.2605  0.9457  0.2882
   35RES   H39714745   2.495   5.973   1.784 -1.5535 -0.7486 -0.0893
   35RES   H39814746   2.369   6.171   1.839 -0.0595  0.1499 -0.5241
   35RES   H39914747   2.523   6.205   1.893  0.9488 -1.0881  0.5774
   35RES   H40014748   2.408   6.157   2.015  2.6051  1.6905  0.3534
   35RES   C40114749   3.017   5.791   2.078 -0.0594 -0.1623  0.3380
   35RES   C40214750   3.035   5.891   2.195 -0.1395  0.6777 -0.2096
   35RES   C40314751   3.138   5.850   2.302  0.3566  0.3671  1.0676
   35RES   C40414752   3.129   5.946   2.421  0.5570 -0.3360  0.4557
   35RES   C40514753   3.187   5.897   2.558  0.2242  0.3963  0.2282
   35RES   C40614754   3.197   6.017   2.649  0.3710  0.0606 -1.1385
   35RES   C40714755   3.319   6.111   2.620  0.1373  0.0305 -0.6452
   35RES   H40814756   3.110   5.804   2.023 -0.4158 -1.9629 -0.7472
   35RES   H40914757   3.014   5.686   2.109 -0.0564 -0.6655 -1.3035
   35RES   H41014758   2.935   5.884   2.239  0.2727 -1.6417  0.4409
   35RES   H41114759   3.238   5.845   2.259 -0.0122 -0.1941  0.2720
   35RES   H41214760   3.104   5.753   2.338  0.3000 -0.5595 -1.3578
   35RES   H41314761   3.025   5.968   2.445  0.3586 -0.5026 -0.2361
   35RES   H41414762   3.177   6.038   2.387  0.4769 -1.3636 -2.5893
   35RES   H41514763   3.119   5.825   2.604  1.7771 -1.0981  0.2214
   35RES   H41614764   3.273   5.831   2.552  2.1698  2.6490  2.2781
   35RES   H41714765   3.109   6.080   2.646 -0.2474 -0.6215  1.3324
   35RES   H41814766   3.203   5.992   2.755 -1.4359 -0.7793 -1.2198
   35RES   H41914767   3.307   6.208   2.668 -0.0551 -0.3000 -0.0207
   35RES   H42014768   3.331   6.134   2.514 -1.2389 -0.2018 -0.8526
   35RES   H42114769   3.412   6.068   2.658  0.6565  0.3241 -1.5381
   35RES   H42214770   3.054   5.991   2.156 -0.4526  0.9047  0.2122
   36RES     C114771   4.508   4.026   6.959 -0.2475 -0.8179  0.0971
   36RES     C214772   4.577   4.162   6.939 -0.0566 -0.0479 -0.0368
   36RES     C314773   4.727   4.143   6.908  0.7639  0.3252  0.2086
   36RES     C414774   4.746   4.058   6.783 -0.1787  0.0287 -1.0390
   36RES     C514775   4.891   4.043   6.739  0.1044  0.2155 -0.2377
   36RES     C614776   4.914   4.002   6.592  0.0112 -0.5203 -0.1836
   36RES     C714777   5.072   4.001   6.573 -0.5214 -0.3241 -0.0356
   36RES     H814778   4.399   4.038   6.960  0.0251  2.0256  0.4165
   36RES     H914779   4.542   3.970   7.046  2.3221  2.7432  1.4824
   36RES    H1014780   4.526   4.219   6.862 -1.0131 -0.5387  0.2285
   36RES    H1114781   4.761   4.244   6.882 -4.1635  2.1521  0.3149
   36RES    H1214782   4.783   4.094   6.988 -1.2455 -3.3641 -0.5533
   36RES    H1314783   4.706   3.959   6.802  0.8205  0.1348  1.8481
   36RES    H1414784   4.682   4.095   6.703 -2.4855 -3.5352 -0.9498
   36RES    H1514785   4.942   3.965   6.795 -0.2451 -1.5631 -2.3225
   36RES    H1614786   4.943   4.137   6.758  1.9460 -0.2954 -2.4893
   36RES    H1714787   4.869   4.082   6.532  1.8555  0.4281 -0.3190
   36RES    H1814788   4.870   3.903   6.577 -1.4479 -0.2359  1.9326
   36RES    H1914789   5.112   3.990   6.473 -0.5681 -2.4474  0.1531
   36RES    H2014790   5.127   3.932   6.636  0.2624 -0.6918 -1.1170
   36RES    H2114791   5.116   4.093   6.613 -1.3800 -0.3899  1.1087
   36RES    H2214792   4.518   3.961   6.872 -1.7124 -1.1434  0.1563
   36RES    C2314793   4.555   4.254   7.062 -0.6549 -0.0489  0.2834
   36RES    C2414794   4.600   4.396   7.066 -0.0197  0.3505  0.3133
   36RES    C2514795   4.565   4.462   7.201 -1.1291  0.4152 -0.6879
   36RES    C2614796   4.416   4.500   7.219 -0.2423 -0.4267  0.6995
   36RES    C2714797   4.398   4.550   7.366  0.2530 -0.2959  0.1148
   36RES    C2814798   4.252   4.564   7.409 -0.1438 -0.2310  0.5963
   36RES    C2914799   4.192   4.425   7.430 -0.6146  0.0085  0.1139
   36RES    H3014800   4.451   4.243   7.091  0.0183  0.6593  3.1482
   36RES    H3114801   4.615   4.209   7.141  0.4648  1.5982  0.4013
   36RES    H3214802   4.708   4.395   7.057  0.0407  2.0514  0.6017
   36RES    H3314803   4.627   4.547   7.227  1.5277 -1.8249  0.5358
   36RES    H3414804   4.587   4.389   7.279 -2.1214  0.1327 -0.6576
   36RES    H3514805   4.340   4.426   7.194  0.5961 -0.8656 -0.5852
   36RES    H3614806   4.383   4.574   7.147 -0.1262 -2.5779 -1.6095
   36RES    H3714807   4.454   4.643   7.378 -0.4687  0.0027  1.2891
   36RES    H3814808   4.428   4.475   7.439 -5.5438 -2.4549  0.4953
   36RES    H3914809   4.198   4.614   7.328 -1.7742 -0.0504  1.7518
   36RES    H4014810   4.238   4.630   7.495 -2.8301  1.3126 -0.9446
   36RES    H4114811   4.097   4.447   7.479 -0.0961  1.6311  0.4133
   36RES    H4214812   4.167   4.372   7.338  0.3478  2.6490 -1.7248
   36RES    H4314813   4.245   4.352   7.491  1.4930 -0.5935 -2.3494
   36RES    C4414814   4.560   4.483   6.947  0.1544  0.1264  0.2166
   36RES    C4514815   4.622   4.626   6.931 -0.2480 -0.0075 -0.0293
   36RES    C4614816   4.778   4.619   6.941  0.3874  0.3173  0.2707
   36RES    C4714817   4.860   4.544   6.833  0.1674 -0.6873 -0.0031
   36RES    C4814818   5.001   4.501   6.884  0.1512  0.1731  0.0142
   36RES    C4914819   5.065   4.411   6.783 -0.6980 -0.2597  0.2467
   36RES    C5014820   5.194   4.354   6.841  0.2313  0.2434 -0.2313
   36RES    H5114821   4.452   4.495   6.954 -0.1071 -1.3329 -1.0231
   36RES    H5214822   4.578   4.423   6.858 -3.8058 -0.8405 -0.0111
   36RES    H5314823   4.583   4.665   7.025  0.7105  2.6950 -0.6889
   36RES    H5414824   4.791   4.577   7.041 -0.6716 -0.4708  0.0917
   36RES    H5514825   4.820   4.719   6.942 -0.9046  0.8575  0.4438
   36RES    H5614826   4.808   4.453   6.803 -1.1194 -0.1593  0.6055
   36RES    H5714827   4.854   4.597   6.739 -0.4788 -0.9147 -0.0926
   36RES    H5814828   5.002   4.447   6.978 -1.1036 -1.3556 -0.8143
   36RES    H5914829   5.057   4.594   6.882  0.0394  0.2237 -1.2189
   36RES    H6014830   5.080   4.473   6.694 -1.1267  1.2032  1.1644
   36RES    H6114831   4.996   4.332   6.755 -2.1649  1.0418  0.0832
   36RES    H6214832   5.262   4.422   6.892  1.1947  0.0168 -1.2073
   36RES    H6314833   5.262   4.308   6.769  0.4554  0.6033 -0.2482
   36RES    H6414834   5.154   4.276   6.906  0.3919 -0.0191 -0.4439
   36RES    C6514835   4.569   4.703   6.808  0.4698  0.3631  0.3776
   36RES    C6614836   4.589   4.852   6.806 -0.0708 -0.1092  1.2443
   36RES    C6714837   4.489   4.913   6.907 -0.7551  0.3977 -0.7000
   36RES    C6814838   4.486   5.067   6.920 -0.1647 -0.0957 -0.5595
   36RES    C6914839   4.386   5.107   7.032 -0.0885 -0.1294 -0.4543
   36RES    C7014840   4.422   5.088   7.182 -0.0212  0.1806  0.1915
   36RES    C7114841   4.320   5.143   7.288  0.5214  0.4174  0.4343
   36RES    H7214842   4.615   4.654   6.723  0.9479 -1.5480  1.7003
   36RES    H7314843   4.462   4.680   6.810  0.4129  0.5818 -0.1141
   36RES    H7414844   4.692   4.866   6.838 -0.3485  0.1870  2.0201
   36RES    H7514845   4.384   4.889   6.891 -1.1598  2.5135 -1.4730
   36RES    H7614846   4.517   4.871   7.003 -2.7925  0.0558 -0.2246
   36RES    H7714847   4.587   5.106   6.922  0.8474 -2.6418  0.0222
   36RES    H7814848   4.439   5.103   6.829 -1.3281 -0.8524 -0.2733
   36RES    H7914849   4.386   5.216   7.020  0.7427  0.0856  1.3491
   36RES    H8014850   4.284   5.070   7.021 -0.1608 -0.3330  0.8923
   36RES    H8114851   4.526   5.120   7.193 -0.1888  0.6550  0.3654
   36RES    H8214852   4.414   4.980   7.194  0.3123  0.1230 -0.0852
   36RES    H8314853   4.224   5.100   7.259  0.0294  0.3096  2.1805
   36RES    H8414854   4.353   5.100   7.382  3.3434 -1.6230 -1.4221
   36RES    H8514855   4.322   5.252   7.295  0.1555  0.5547 -1.3398
   36RES    C8614856   4.582   4.920   6.668 -0.1914  0.0272  0.3412
   36RES    C8714857   4.706   5.010   6.639 -0.4086  0.7300  0.1355
   36RES    C8814858   4.826   4.926   6.598 -0.1099  0.1099  0.1659
   36RES    C8914859   4.960   4.980   6.647  0.5887  0.0272 -0.7444
   36RES    C9014860   5.071   4.887   6.606 -0.0357  0.2241  0.6626
   36RES    C9114861   5.207   4.944   6.609  0.1777 -0.4712  0.2155
   36RES    C9214862   5.312   4.829   6.604  0.7218  0.5095  0.4551
   36RES    H9314863   4.562   4.853   6.584  2.4341 -0.1679 -0.1598
   36RES    H9414864   4.488   4.975   6.676  0.4622  0.8682  2.3064
   36RES    H9514865   4.732   5.062   6.731 -0.4280  0.0389  0.5302
   36RES    H9614866   4.820   4.827   6.643 -0.4811 -0.0350 -0.2078
   36RES    H9714867   4.811   4.912   6.491 -1.4286 -0.8931  0.4628
   36RES    H9814868   4.978   5.082   6.613  0.4791 -0.0142 -0.9288
   36RES    H9914869   4.983   4.996   6.752  3.2882  3.4793 -1.7524
   36RES   H10014870   5.057   4.843   6.508  0.6622 -0.4042  0.8392
   36RES   H10114871   5.068   4.810   6.683 -0.4744  0.6284  1.0603
   36RES   H10214872   5.228   5.022   6.536  0.4627  1.9583  2.8129
   36RES   H10314873   5.216   5.000   6.702  0.6282 -0.6383  0.2743
   36RES   H10414874   5.289   4.767   6.517 -0.4091  2.9201 -0.9926
   36RES   H10514875   5.304   4.763   6.691  0.7616  0.5113  0.4599
   36RES   H10614876   5.416   4.862   6.595  1.0353 -0.7986 -1.0500
   36RES   C10714877   4.680   5.120   6.537  0.2441 -1.0776 -0.0667
   36RES   C10814878   4.592   5.244   6.579 -0.1987  0.4513  0.0590
   36RES   C10914879   4.691   5.362   6.605  0.2150 -0.2886  0.2185
   36RES   C11014880   4.785   5.340   6.730  0.3527  0.2135  0.1254
   36RES   C11114881   4.845   5.480   6.763  0.9334  0.4237 -0.2455
   36RES   C11214882   4.956   5.463   6.865 -0.0631  0.3175 -0.2962
   36RES   C11314883   4.983   5.596   6.947  0.0410  0.0593 -0.2411
   36RES   H11414884   4.654   5.087   6.437  0.6499  0.8980 -0.8447
   36RES   H11514885   4.784   5.148   6.518  0.2169 -0.6530  0.4099
   36RES   H11614886   4.534   5.215   6.667 -0.3235 -2.4248 -0.9149
   36RES   H11714887   4.632   5.450   6.632 -0.7077 -0.7908 -0.1690
   36RES   H11814888   4.747   5.385   6.515  0.7390  0.7527  0.7939
   36RES   H11914889   4.721   5.295   6.806  0.0978  0.5360  0.1049
   36RES   H12014890   4.857   5.261   6.709 -1.3867 -1.2537 -0.4419
   36RES   H12114891   4.765   5.545   6.799 -0.3061 -1.9735  1.4113
   36RES   H12214892   4.884   5.544   6.683  0.1688 -0.5306 -1.4143
   36RES   H12314893   4.929   5.395   6.946  0.9784 -1.7170 -1.6326
   36RES   H12414894   5.050   5.433   6.820 -0.5821 -0.1728 -1.0560
   36RES   H12514895   4.897   5.640   6.998  1.0269  0.4309  1.1281
   36RES   H12614896   5.061   5.581   7.021  0.3399 -0.4990 -0.6661
   36RES   H12714897   5.022   5.658   6.867 -0.5661 -1.2331 -1.5787
   36RES   C12814898   4.494   5.266   6.463  0.5410  0.3951 -0.2099
   36RES   C12914899   4.380   5.370   6.485 -0.2475  0.3484  0.0799
   36RES   C13014900   4.255   5.323   6.556  0.0102 -0.0218 -0.4055
   36RES   C13114901   4.165   5.440   6.618  0.3362  0.0035 -0.0765
   36RES   C13214902   4.020   5.391   6.647  0.0872 -0.0718  0.1776
   36RES   C13314903   3.929   5.505   6.695 -0.2042 -0.9678 -1.0946
   36RES   C13414904   3.794   5.457   6.747 -0.1027 -0.0677 -0.1464
   36RES   H13514905   4.542   5.275   6.365  3.7946  0.5179  1.3189
   36RES   H13614906   4.434   5.175   6.454 -1.0027  1.2586  1.2200
   36RES   H13714907   4.430   5.445   6.546  0.1709  0.6309 -0.5987
   36RES   H13814908   4.289   5.272   6.646 -1.5041  0.0910  0.2336
   36RES   H13914909   4.195   5.260   6.491 -2.0319 -0.3178  1.7264
   36RES   H14014910   4.168   5.523   6.547  1.9101  1.0599  1.1575
   36RES   H14114911   4.215   5.484   6.704 -1.0661  2.0021 -0.2516
   36RES   H14214912   4.033   5.309   6.717 -0.1168  2.4595  3.2906
   36RES   H14314913   3.976   5.351   6.556  0.8902  0.1469 -0.3082
   36RES   H14414914   3.907   5.557   6.602  0.2145  0.9855 -0.1208
   36RES   H14514915   3.973   5.572   6.769 -0.3075 -2.4179  0.3244
   36RES   H14614916   3.754   5.548   6.793 -0.3748 -0.1036 -0.3163
   36RES   H14714917   3.799   5.373   6.817 -0.3158  1.0605  1.2621
   36RES   H14814918   3.726   5.430   6.666  0.7502 -0.0843 -0.8610
   36RES   C14914919   4.353   5.446   6.354 -0.5417  0.4556 -0.1379
   36RES   C15014920   4.463   5.535   6.297 -0.8038 -0.2731 -0.1878
   36RES   C15114921   4.515   5.652   6.391  0.3014  0.2767 -0.7827
   36RES   C15214922   4.407   5.750   6.447  0.5852  0.4502 -0.2238
   36RES   C15314923   4.467   5.849   6.545  1.0621 -0.9295 -0.3937
   36RES   C15414924   4.415   5.994   6.551 -0.2328  0.8374 -0.3927
   36RES   C15514925   4.314   6.029   6.655  0.4779 -0.4721  0.1079
   36RES   H15614926   4.324   5.369   6.283  0.1812  0.6841 -0.6873
   36RES   H15714927   4.262   5.505   6.367 -0.2736  1.1449 -1.3246
   36RES   H15814928   4.544   5.465   6.278 -1.8810 -2.0441  1.5821
   36RES   H15914929   4.562   5.604   6.477  0.2085 -0.8642 -1.3681
   36RES   H16014930   4.604   5.700   6.350  0.6068  0.6382  0.2838
   36RES   H16114931   4.326   5.704   6.504  0.0959  0.8562 -0.5838
   36RES   H16214932   4.352   5.805   6.371  0.1370 -0.3178 -0.4705
   36RES   H16314933   4.571   5.860   6.511  0.8472  1.6619 -0.2730
   36RES   H16414934   4.475   5.816   6.649 -1.3141  3.2035  1.1700
   36RES   H16514935   4.363   6.012   6.456 -0.8898 -1.5410 -0.5358
   36RES   H16614936   4.500   6.060   6.567  0.3567  0.5980 -2.3589
   36RES   H16714937   4.234   5.955   6.647 -0.0944  0.0591  0.8465
   36RES   H16814938   4.267   6.127   6.645  1.4226  0.2278  2.2469
   36RES   H16914939   4.370   6.019   6.748 -0.0619  0.1801  0.5093
   36RES   C17014940   4.416   5.589   6.168  0.8146  0.8243 -0.7408
   36RES   C17114941   4.516   5.671   6.079 -1.0344  0.1022  0.0751
   36RES   C17214942   4.631   5.589   6.011 -0.1676 -0.1696  0.0932
   36RES   C17314943   4.759   5.657   5.979  0.7668  0.0196  0.1011
   36RES   C17414944   4.840   5.689   6.102 -0.4219  0.5824  0.8827
   36RES   C17514945   4.985   5.715   6.070  0.6885 -0.8390  0.5590
   36RES   C17614946   5.072   5.588   6.083 -0.3618 -0.0990 -0.5160
   36RES   H17714947   4.331   5.654   6.190  1.7305  1.2602  1.5777
   36RES   H17814948   4.373   5.511   6.105 -2.1209  1.8485 -0.0786
   36RES   H17914949   4.557   5.752   6.139 -1.8547 -2.1143  3.7577
   36RES   H18014950   4.582   5.535   5.929 -2.2702 -0.6264  1.6131
   36RES   H18114951   4.655   5.508   6.080  1.4341  0.4494  0.2675
   36RES   H18214952   4.741   5.744   5.917  0.4174 -0.6480 -0.7475
   36RES   H18314953   4.821   5.587   5.921  2.9529  1.9937 -0.0072
   36RES   H18414954   4.822   5.610   6.175 -0.4274  0.2052  0.4760
   36RES   H18514955   4.806   5.780   6.151 -1.6507 -0.1511  1.4261
   36RES   H18614956   5.027   5.792   6.135  0.4562  0.7880 -1.1581
   36RES   H18714957   5.013   5.760   5.975 -0.1723 -1.1609  0.1515
   36RES   H18814958   5.047   5.516   6.006 -1.2890 -0.5892  0.2291
   36RES   H18914959   5.053   5.531   6.174 -0.4428  1.4822  0.4795
   36RES   H19014960   5.172   5.631   6.084 -0.9607  1.3341  0.7613
   36RES   C19114961   4.438   5.753   5.972 -0.3185 -0.7025 -0.0727
   36RES   C19214962   4.383   5.878   6.036 -0.1959  0.3790  0.8516
   36RES   C19314963   4.484   5.990   6.046 -0.0257 -0.5971  0.5200
   36RES   C19414964   4.453   6.075   6.173  0.0613  0.1514 -0.2820
   36RES   C19514965   4.501   6.220   6.146 -0.0413  0.5107 -0.2490
   36RES   C19614966   4.514   6.304   6.277  0.2221 -0.2898 -0.7472
   36RES   C19714967   4.382   6.324   6.347  0.5761  0.1103 -0.8965
   36RES   H19814968   4.375   5.686   5.914 -2.3565  1.2948 -0.2314
   36RES   H19914969   4.510   5.784   5.897  1.3953 -0.3904  1.6706
   36RES   H20014970   4.347   5.856   6.137  0.4382  0.0010  0.9967
   36RES   H20114971   4.484   6.046   5.953 -1.9487 -1.5086 -0.0597
   36RES   H20214972   4.585   5.956   6.066 -0.3643 -1.2028  1.2535
   36RES   H20314973   4.514   6.038   6.256 -0.7020  2.0227  1.1491
   36RES   H20414974   4.347   6.094   6.184  0.4379  2.1357  0.2534
   36RES   H20514975   4.603   6.229   6.109  0.2061  0.4992  0.4210
   36RES   H20614976   4.433   6.269   6.077 -1.1761 -3.1886 -1.8579
   36RES   H20714977   4.564   6.398   6.253 -1.1196  0.2785 -1.3409
   36RES   H20814978   4.589   6.248   6.334  0.3820  0.0861 -0.5806
   36RES   H20914979   4.387   6.393   6.431  0.9873 -0.7977 -0.1648
   36RES   H21014980   4.328   6.233   6.376  0.7962  0.1697 -0.2985
   36RES   H21114981   4.315   6.373   6.276 -1.1055  0.1310  0.6735
   36RES   C21214982   4.254   5.908   5.957  0.7199  0.3520  0.3361
   36RES   C21314983   4.133   5.821   6.010  0.4144  0.4914  0.7550
   36RES   C21414984   4.068   5.898   6.128 -0.6672  0.2827  0.0775
   36RES   C21514985   4.019   5.823   6.256  0.3302 -0.0654  0.4942
   36RES   C21614986   4.027   5.908   6.387  0.4366 -0.3363 -0.3721
   36RES   C21714987   3.976   5.822   6.506 -0.1979  0.0834 -0.5013
   36RES   C21814988   3.930   5.908   6.617  0.6766 -0.8810 -0.6575
   36RES   H21914989   4.281   5.898   5.852 -0.1238 -1.3319  0.2641
   36RES   H22014990   4.217   6.010   5.966 -0.8116 -0.0643 -1.0643
   36RES   H22114991   4.178   5.732   6.054 -0.4276  0.3656  1.3692
   36RES   H22214992   4.146   5.958   6.175  1.8381 -2.5223 -0.3625
   36RES   H22314993   3.996   5.966   6.083 -1.0052  0.2775  0.6080
   36RES   H22414994   4.084   5.744   6.291  1.0228  0.3619  0.1836
   36RES   H22514995   3.920   5.782   6.237  0.3925 -0.3883  0.8811
   36RES   H22614996   4.129   5.932   6.419  0.1144  1.0483 -0.3758
   36RES   H22714997   3.983   6.007   6.379  0.1910 -0.3798  0.3753
   36RES   H22814998   3.890   5.763   6.476  0.0361  0.1875 -1.4008
   36RES   H22914999   4.058   5.759   6.541  0.3097 -0.1942 -2.1261
   36RES   H23015000   4.013   5.962   6.664  0.8521 -1.9838  0.3146
   36RES   H23115001   3.868   5.854   6.688  0.9249 -0.3527 -0.0395
   36RES   H23215002   3.863   5.987   6.583  0.7605 -1.2925 -1.8183
   36RES   C23315003   4.033   5.789   5.897  0.0988  0.1266 -0.1678
   36RES   C23415004   4.079   5.720   5.772  0.3971  0.2533  0.5813
   36RES   C23515005   4.118   5.580   5.805  0.5770  0.6124 -0.5544
   36RES   C23615006   4.209   5.511   5.705  0.2314  0.0962  0.3965
   36RES   C23715007   4.246   5.374   5.758 -0.4345 -0.0343 -0.7414
   36RES   C23815008   4.279   5.272   5.655  0.6619 -0.5044 -0.5155
   36RES   C23915009   4.404   5.295   5.565 -0.2114 -0.0571  0.4264
   36RES   H24015010   3.993   5.885   5.867 -0.3504  0.4879  1.5599
   36RES   H24115011   3.954   5.734   5.949  0.4201  1.9039  2.2854
   36RES   H24215012   4.173   5.758   5.733 -0.1440  2.2360  1.1433
   36RES   H24315013   4.030   5.516   5.807  1.8265 -1.3399 -4.0117
   36RES   H24415014   4.163   5.566   5.903  0.4806 -0.8525 -0.7129
   36RES   H24515015   4.297   5.574   5.694 -0.0285 -0.0625 -3.1726
   36RES   H24615016   4.155   5.501   5.611  2.2145 -1.3768 -0.6026
   36RES   H24715017   4.160   5.337   5.812  0.0783 -0.3099 -0.1108
   36RES   H24815018   4.322   5.394   5.833 -0.8434  3.3489 -1.1619
   36RES   H24915019   4.298   5.181   5.712  0.8119 -0.1801 -0.0539
   36RES   H25015020   4.187   5.252   5.600 -0.6916  0.7387  1.2528
   36RES   H25115021   4.414   5.218   5.488  2.0477 -0.9184  1.5409
   36RES   H25215022   4.406   5.386   5.504 -3.7331  0.6352  1.2384
   36RES   H25315023   4.501   5.289   5.614 -0.6128 -0.1771  1.2007
   36RES   C25415024   3.978   5.726   5.655 -0.0102  0.3367  0.8237
   36RES   C25515025   4.016   5.830   5.540 -0.1367 -0.6088 -0.5762
   36RES   C25615026   4.150   5.797   5.472 -0.1376  0.0060  0.2907
   36RES   C25715027   4.144   5.685   5.369 -0.8632  0.0423  0.1670
   36RES   C25815028   4.064   5.728   5.243  0.2708  0.3393  0.1059
   36RES   C25915029   4.072   5.637   5.119  0.7244  0.4571 -0.2343
   36RES   C26015030   4.199   5.647   5.033  0.4131  0.0958 -0.0438
   36RES   H26115031   3.883   5.733   5.709 -0.3039  0.3826  0.3019
   36RES   H26215032   3.969   5.638   5.591  2.2235  0.0726  0.8379
   36RES   H26315033   3.932   5.828   5.470 -1.6849 -0.6222  1.2461
   36RES   H26415034   4.225   5.766   5.545 -0.0871  2.2505  1.2369
   36RES   H26515035   4.190   5.888   5.428 -3.8012  0.3075 -2.6807
   36RES   H26615036   4.240   5.646   5.334 -2.0133 -0.7057 -2.2324
   36RES   H26715037   4.106   5.595   5.418 -1.3502  1.1027  1.7794
   36RES   H26815038   4.101   5.824   5.209  0.3054 -0.5521 -2.4997
   36RES   H26915039   3.958   5.750   5.261 -0.2193  0.0924 -2.3197
   36RES   H27015040   4.053   5.531   5.134  1.3852  0.3129 -0.4231
   36RES   H27115041   3.989   5.663   5.054 -0.2258 -1.1862  0.2996
   36RES   H27215042   4.194   5.568   4.958  1.5167  0.2941 -0.3287
   36RES   H27315043   4.215   5.736   4.973  1.3090  1.2503  1.8968
   36RES   H27415044   4.289   5.644   5.093 -0.0826  1.0909  0.7508
   36RES   C27515045   4.014   5.967   5.598  1.1482 -0.3861 -0.7320
   36RES   C27615046   3.879   6.021   5.660 -0.0025 -0.2760  0.0950
   36RES   C27715047   3.782   6.058   5.553 -0.0066 -0.4863  0.7313
   36RES   C27815048   3.788   6.197   5.485 -0.2612 -0.4176  0.4588
   36RES   C27915049   3.712   6.198   5.352 -0.5035 -0.3558 -0.0260
   36RES   C28015050   3.693   6.334   5.275 -0.1814 -0.0446  0.0523
   36RES   C28115051   3.609   6.324   5.140 -0.2779 -0.1272 -0.1680
   36RES   H28215052   4.049   6.038   5.524  0.1648 -0.2120 -1.0445
   36RES   H28315053   4.082   5.980   5.681 -0.7968  0.0591  0.8262
   36RES   H28415054   3.836   5.941   5.720  0.8791 -0.7554  0.0799
   36RES   H28515055   3.790   5.981   5.476  0.3639 -0.9766  1.2539
   36RES   H28615056   3.688   6.047   5.605 -0.2177 -0.5537  0.3362
   36RES   H28715057   3.892   6.208   5.455 -0.3688 -2.8931 -0.9179
   36RES   H28815058   3.762   6.283   5.548 -1.0696  0.1890 -0.6970
   36RES   H28915059   3.618   6.143   5.362  0.4266 -1.9920 -0.0868
   36RES   H29015060   3.775   6.133   5.291  0.4221  0.9243 -0.4343
   36RES   H29115061   3.648   6.411   5.337  2.7335  1.4941  0.3566
   36RES   H29215062   3.789   6.380   5.251 -0.1898 -0.7303 -1.3214
   36RES   H29315063   3.654   6.239   5.090  0.8483 -0.3246  1.1373
   36RES   H29415064   3.622   6.411   5.075 -1.4105  1.5935  1.8394
   36RES   H29515065   3.507   6.305   5.172  0.3585  1.4714  3.1704
   36RES   C29615066   3.894   6.141   5.763  0.3925 -0.2378 -0.0413
   36RES   C29715067   3.770   6.166   5.851  0.2655 -0.4561  0.0690
   36RES   C29815068   3.771   6.301   5.918 -0.1036 -0.0501  0.2620
   36RES   C29915069   3.855   6.312   6.054  0.0287  0.2396  0.8990
   36RES   C30015070   3.865   6.455   6.108 -0.0288 -0.0581 -0.1794
   36RES   C30115071   3.990   6.455   6.208  0.3083  0.1445  0.3559
   36RES   C30215072   3.997   6.589   6.279 -0.4421 -0.3661 -0.0989
   36RES   H30315073   3.975   6.106   5.827  0.4797  1.8967  1.0455
   36RES   H30415074   3.926   6.234   5.715 -1.8731  0.5711 -0.0289
   36RES   H30515075   3.683   6.170   5.786  0.8286  2.4581 -0.5696
   36RES   H30615076   3.790   6.375   5.840 -1.2372 -2.5005 -2.4292
   36RES   H30715077   3.668   6.321   5.947  0.9408  2.2313  2.6414
   36RES   H30815078   3.952   6.274   6.020 -1.0129 -0.3282 -1.5296
   36RES   H30915079   3.821   6.245   6.132 -0.4201 -1.3739 -0.6510
   36RES   H31015080   3.767   6.477   6.151 -0.5986  0.7801 -1.8918
   36RES   H31115081   3.876   6.528   6.028 -0.3373 -0.4377 -0.5720
   36RES   H31215082   3.980   6.374   6.281 -0.7373  1.3162  1.5328
   36RES   H31315083   4.079   6.435   6.149  0.8435  1.8727  0.5626
   36RES   H31415084   4.086   6.598   6.341 -0.5916 -0.1796  0.0860
   36RES   H31515085   4.023   6.662   6.202 -0.7892 -2.2757 -2.0925
   36RES   H31615086   3.912   6.615   6.342  0.0748  1.1606 -0.0234
   36RES   C31715087   3.735   6.046   5.946  0.4466 -0.1803  0.0025
   36RES   C31815088   3.592   6.048   6.006 -0.1969 -0.5312 -0.1131
   36RES   C31915089   3.480   5.997   5.908  0.0328 -0.0181 -0.5006
   36RES   C32015090   3.516   5.872   5.826  0.4801 -0.1899  0.0640
   36RES   C32115091   3.411   5.815   5.732  0.1188 -0.1204  0.5714
   36RES   C32215092   3.471   5.696   5.656 -0.1463 -0.1392  0.5331
   36RES   C32315093   3.570   5.720   5.543  0.2576  0.5720  0.1095
   36RES   H32415094   3.807   6.041   6.028  0.2431  1.4915  0.2922
   36RES   H32515095   3.760   5.947   5.906 -2.3371 -0.3775 -1.3169
   36RES   H32615096   3.567   6.152   6.030  0.1716 -0.8585  1.7356
   36RES   H32715097   3.454   6.079   5.841 -0.1808  0.0468 -0.3368
   36RES   H32815098   3.392   5.985   5.971 -1.0816  1.6622 -1.6879
   36RES   H32915099   3.536   5.794   5.899 -0.5921 -1.6229 -1.1501
   36RES   H33015100   3.611   5.890   5.775  0.6399 -1.6911 -0.1880
   36RES   H33115101   3.382   5.891   5.660  0.5796  0.2089  0.7322
   36RES   H33215102   3.320   5.790   5.786  0.3724 -2.2110  0.0756
   36RES   H33315103   3.381   5.656   5.611  0.5719 -0.6696 -0.4573
   36RES   H33415104   3.509   5.620   5.724 -0.0749 -1.6500 -1.1715
   36RES   H33515105   3.556   5.647   5.463 -0.0843 -0.6882  1.2940
   36RES   H33615106   3.672   5.712   5.580 -0.0526 -2.4964  0.3958
   36RES   H33715107   3.560   5.824   5.511  0.0953 -0.3666 -3.0988
   36RES   C33815108   3.585   5.961   6.139  0.0541 -0.7041  0.2220
   36RES   C33915109   3.629   6.025   6.269  0.9231  0.7451  0.1326
   36RES   C34015110   3.651   5.911   6.379  0.7274 -0.3452  0.2750
   36RES   C34115111   3.547   5.799   6.412 -0.2264 -0.1769  0.1557
   36RES   C34215112   3.596   5.702   6.517  0.0194  0.8198  0.7706
   36RES   C34315113   3.477   5.606   6.542  0.1385 -0.2635  0.8035
   36RES   C34415114   3.377   5.656   6.651  0.1953 -1.0096  1.1387
   36RES   H34515115   3.652   5.876   6.132 -1.2557 -1.8033  0.8087
   36RES   H34615116   3.481   5.931   6.148 -0.5989  1.2582 -0.5803
   36RES   H34715117   3.725   6.077   6.265  0.6752  1.0910 -1.4960
   36RES   H34815118   3.742   5.865   6.341  0.8549  1.1271 -1.2458
   36RES   H34915119   3.686   5.965   6.467  2.1703 -1.0352  0.1387
   36RES   H35015120   3.520   5.746   6.321 -0.6330  1.8062 -0.9139
   36RES   H35115121   3.456   5.845   6.451 -1.1995 -1.6552 -0.3053
   36RES   H35215122   3.685   5.646   6.488  0.1737  1.7109 -0.5102
   36RES   H35315123   3.614   5.759   6.608 -0.6912 -0.0357  1.4464
   36RES   H35415124   3.424   5.568   6.455  1.4144  2.9649 -1.4887
   36RES   H35515125   3.511   5.519   6.597 -0.4409 -0.0372  1.5318
   36RES   H35615126   3.428   5.704   6.735 -1.5166  0.4715  1.3532
   36RES   H35715127   3.318   5.574   6.690  1.9864 -3.2944 -0.8043
   36RES   H35815128   3.313   5.735   6.613  0.0794 -1.2575  0.8157
   36RES   C35915129   3.529   6.126   6.322 -0.2455  0.4847  0.3673
   36RES   C36015130   3.564   6.201   6.459 -0.0321  0.4574  0.0489
   36RES   C36115131   3.702   6.264   6.459  0.2592  0.5490  0.4226
   36RES   C36215132   3.750   6.344   6.589 -0.4913 -0.5782  0.4777
   36RES   C36315133   3.903   6.366   6.600  0.4826  0.1487 -0.5320
   36RES   C36415134   3.954   6.455   6.720  0.0965 -0.2018 -0.5760
   36RES   C36515135   4.109   6.443   6.754 -0.2301 -0.2873 -0.0370
   36RES   H36615136   3.437   6.068   6.335 -0.1550 -0.3948 -2.6073
   36RES   H36715137   3.506   6.188   6.236 -0.2436  2.1794  1.5512
   36RES   H36815138   3.557   6.133   6.544 -1.1044  0.7548  0.2080
   36RES   H36915139   3.775   6.185   6.444 -0.3245  0.0332  0.2826
   36RES   H37015140   3.708   6.324   6.367 -1.4682 -1.8972 -1.3527
   36RES   H37115141   3.705   6.442   6.578 -0.7143 -0.8361 -1.0432
   36RES   H37215142   3.707   6.293   6.676 -0.4154  0.3755  1.0776
   36RES   H37315143   3.960   6.274   6.618  0.1129  0.2332  1.1480
   36RES   H37415144   3.939   6.398   6.502 -1.8025  0.5791 -1.2443
   36RES   H37515145   3.926   6.558   6.698 -2.3995 -0.0132  3.0305
   36RES   H37615146   3.899   6.422   6.808 -0.3491 -2.0471 -1.5294
   36RES   H37715147   4.142   6.498   6.842 -0.3502  0.1718 -0.2762
   36RES   H37815148   4.124   6.337   6.775 -2.0418 -0.0971  2.5457
   36RES   H37915149   4.175   6.471   6.673  1.8804  0.6129  1.9331
   36RES   C38015150   3.462   6.310   6.488 -0.1928  0.5422  0.5537
   36RES   C38115151   3.321   6.268   6.545  0.7384 -0.5353  0.5299
   36RES   C38215152   3.224   6.210   6.441  0.1634 -0.0222 -0.5059
   36RES   C38315153   3.220   6.302   6.320  0.3019 -0.4183  1.1636
   36RES   C38415154   3.105   6.273   6.221 -0.2988 -0.3471 -0.3714
   36RES   C38515155   3.114   6.360   6.098  0.4125  0.2463  0.2965
   36RES   C38615156   3.220   6.316   5.995 -0.6930  0.3994 -0.5499
   36RES   H38715157   3.495   6.356   6.582  1.6151  1.5537 -0.5682
   36RES   H38815158   3.450   6.383   6.408 -1.0167 -1.6197 -1.3528
   36RES   H38915159   3.263   6.355   6.573  3.6601  1.5181  0.4276
   36RES   H39015160   3.125   6.208   6.485 -0.0725  1.7759 -0.9009
   36RES   H39115161   3.251   6.107   6.417  1.7671 -0.1854  1.8255
   36RES   H39215162   3.205   6.407   6.345 -2.0305  0.1457 -2.1285
   36RES   H39315163   3.311   6.300   6.260 -0.1200  1.6994  0.3999
   36RES   H39415164   3.093   6.167   6.197 -2.7535 -0.3662  0.7823
   36RES   H39515165   3.015   6.310   6.269 -2.4845 -3.4507 -1.8516
   36RES   H39615166   3.141   6.461   6.129 -1.4276  0.7523  0.3033
   36RES   H39715167   3.012   6.356   6.061  1.1609 -0.6010 -1.7545
   36RES   H39815168   3.322   6.322   6.031  0.1962  1.1837 -3.0502
   36RES   H39915169   3.222   6.386   5.911 -1.8748 -0.1728 -1.0599
   36RES   H40015170   3.222   6.216   5.952 -2.3234  0.7671 -1.5414
   36RES   C40115171   3.338   6.181   6.678 -0.1667  0.0008  0.6403
   36RES   C40215172   3.402   6.255   6.801  0.3151 -0.2867 -0.9090
   36RES   C40315173   3.391   6.181   6.934 -0.5922  0.4288  0.0993
   36RES   C40415174   3.458   6.257   7.049  0.4530  0.0498  0.2610
   36RES   C40515175   3.439   6.195   7.194  0.0642 -0.7596  0.1201
   36RES   C40615176   3.527   6.263   7.299 -0.0429  0.8692 -0.3150
   36RES   C40715177   3.476   6.220   7.437  0.1008  0.2321 -0.3224
   36RES   H40815178   3.401   6.093   6.664 -0.3026  0.3208 -2.2117
   36RES   H40915179   3.236   6.149   6.700 -1.3666  1.8220 -2.0499
   36RES   H41015180   3.352   6.349   6.822 -0.5924 -0.8160 -0.7100
   36RES   H41115181   3.430   6.080   6.931 -1.4699  0.0536  1.0365
   36RES   H41215182   3.284   6.168   6.952 -0.6105  0.9170  0.3605
   36RES   H41315183   3.408   6.354   7.044 -0.5601 -0.5860 -2.5271
   36RES   H41415184   3.563   6.276   7.026  0.8642  2.0464  3.3775
   36RES   H41515185   3.337   6.206   7.230 -0.3118  1.2339 -1.4241
   36RES   H41615186   3.443   6.087   7.198  2.4515 -0.7466 -0.6262
   36RES   H41715187   3.632   6.239   7.284 -0.0819  0.3300  0.2733
   36RES   H41815188   3.502   6.368   7.285  0.2805  1.1815  1.4291
   36RES   H41915189   3.548   6.248   7.514  1.2093  1.0802 -1.6405
   36RES   H42015190   3.450   6.115   7.441  2.6390 -0.4457 -1.0326
   36RES   H42115191   3.389   6.281   7.464  0.4669  0.1891  1.0127
   36RES   H42215192   3.502   6.295   6.784  0.1881 -0.0128 -1.0128
   37RES     C115193   4.210   7.135   2.789 -0.1019  0.2023  0.7679
   37RES     C215194   4.103   7.244   2.798  0.0409 -0.7132 -0.5305
   37RES     C315195   3.973   7.194   2.737 -0.1624 -0.1136 -0.0473
   37RES     C415196   3.848   7.270   2.777  0.1059  0.8570 -0.2538
   37RES     C515197   3.712   7.234   2.720  0.2813 -0.0794 -0.8274
   37RES     C615198   3.598   7.322   2.765 -0.2050 -0.4782 -0.6439
   37RES     C715199   3.473   7.268   2.695  1.0140  1.0224 -0.3288
   37RES     H815200   4.275   7.134   2.702 -0.3077 -0.5697  0.6232
   37RES     H915201   4.172   7.034   2.802 -0.0742  0.1748  0.6318
   37RES    H1015202   4.084   7.260   2.904  0.8979  2.6358 -0.8460
   37RES    H1115203   3.969   7.208   2.629  1.4340 -5.0385 -0.8677
   37RES    H1215204   3.949   7.090   2.760  0.1228 -0.0614  0.4989
   37RES    H1315205   3.834   7.271   2.885  1.1468  1.0810 -0.1111
   37RES    H1415206   3.861   7.375   2.750  0.1923  0.5727 -1.3365
   37RES    H1515207   3.697   7.128   2.741  2.3082 -0.0490  0.9285
   37RES    H1615208   3.724   7.237   2.611  0.3529  0.2191 -0.8129
   37RES    H1715209   3.601   7.428   2.739  3.0987 -0.3301  0.1062
   37RES    H1815210   3.596   7.315   2.874 -2.5515  2.1768 -0.4826
   37RES    H1915211   3.391   7.339   2.698  0.0761 -0.0809  0.7534
   37RES    H2015212   3.448   7.173   2.743 -0.3215  2.3266  1.6409
   37RES    H2115213   3.492   7.255   2.589  1.0325 -0.3234 -0.1720
   37RES    H2215214   4.277   7.157   2.873 -2.2556 -1.4890  3.0069
   37RES    C2315215   4.154   7.376   2.750  0.8276  0.8419 -0.2214
   37RES    C2415216   4.104   7.503   2.819  0.4619 -0.0153  0.2829
   37RES    C2515217   4.128   7.629   2.739 -1.0816 -0.4664 -0.0241
   37RES    C2615218   4.278   7.654   2.715  0.4440 -0.2076  0.0464
   37RES    C2715219   4.318   0.063   2.651 -0.7619 -0.0905 -0.3231
   37RES    C2815220   4.268   0.193   2.724  0.1245 -0.2559 -0.4372
   37RES    C2915221   4.276   0.308   2.635  0.0407  0.1199 -0.5224
   37RES    H3015222   4.260   7.362   2.768  0.6205 -1.2613 -0.4524
   37RES    H3115223   4.135   7.376   2.642  0.4984 -0.3142 -0.1704
   37RES    H3215224   3.996   7.503   2.833  0.3586  1.9915 -0.2574
   37RES    H3315225   4.086   7.722   2.777  1.3621  1.4886 -1.9720
   37RES    H3415226   4.072   7.611   2.648  0.1763  0.2667 -0.9521
   37RES    H3515227   4.316   7.573   2.653  1.7646  1.6566 -1.6409
   37RES    H3615228   4.338   7.645   2.805  0.4673 -3.8336 -0.2613
   37RES    H3715229   4.265   0.067   2.556 -1.6971 -0.3178  0.1767
   37RES    H3815230   4.425   0.065   2.630 -0.9434  3.1637 -1.1893
   37RES    H3915231   4.331   0.207   2.812  0.2265 -2.6620 -0.0701
   37RES    H4015232   4.167   0.180   2.762  0.1484 -0.1277 -0.3317
   37RES    H4115233   4.280   0.403   2.689 -0.8321 -0.9067  1.4280
   37RES    H4215234   4.369   0.299   2.580  0.5958 -1.5565  0.6299
   37RES    H4315235   4.191   0.324   2.569 -0.9633  0.6549  0.8480
   37RES    C4415236   4.148   7.507   2.972 -0.1470 -0.0908  0.5988
   37RES    C4515237   4.119   7.631   3.068  0.1775 -0.6377 -0.3487
   37RES    C4615238   3.977   7.696   3.074 -0.8817 -0.3461 -0.4550
   37RES    C4715239   3.867   7.602   3.103  0.0615  0.1171 -0.5691
   37RES    C4815240   3.724   7.654   3.123  0.7534  0.3944  0.4328
   37RES    C4915241   3.688   0.039   3.017 -0.2479 -0.7446  0.4112
   37RES    C5015242   3.686   7.702   2.872 -0.0023  0.2798 -0.3020
   37RES    H5115243   4.252   7.477   2.974 -0.1188 -0.3165 -2.2536
   37RES    H5215244   4.094   7.424   3.018  0.8395 -0.4956  1.0258
   37RES    H5315245   4.179   7.716   3.035  0.4114 -0.8503 -0.4680
   37RES    H5415246   3.955   0.030   2.986  0.9725  1.2747  0.1482
   37RES    H5515247   3.979   0.049   3.148  3.4665  0.6564 -1.4953
   37RES    H5615248   3.855   7.531   3.022  0.1131 -0.0534 -0.4267
   37RES    H5715249   3.896   7.534   3.184 -0.2752 -0.7352 -1.1566
   37RES    H5815250   3.705   7.677   3.227  0.0226  0.4449  0.2911
   37RES    H5915251   3.659   7.567   3.117  1.9078 -0.4327 -0.4474
   37RES    H6015252   3.745   0.132   3.021 -2.0484  0.3712  1.5287
   37RES    H6115253   3.587   0.079   3.027 -0.2953 -0.5369 -0.8564
   37RES    H6215254   3.650   0.045   2.796  0.6689  0.6059 -0.3277
   37RES    H6315255   3.632   7.609   2.857  2.4996 -1.1071 -0.8960
   37RES    H6415256   3.787   7.681   2.839 -0.1964  0.8792 -1.2915
   37RES    C6515257   4.162   7.587   3.217 -0.6024  0.1954  0.3214
   37RES    C6615258   4.167   7.697   3.330  0.2107 -0.0709 -0.2125
   37RES    C6715259   4.259   0.095   3.299  0.4167  0.4261  0.2412
   37RES    C6815260   4.402   0.059   3.329 -0.9350  0.1668 -0.2396
   37RES    C6915261   4.495   0.178   3.270  0.4634  0.4923 -0.0940
   37RES    C7015262   4.632   0.175   3.324 -0.7931  0.2020  0.5705
   37RES    C7115263   4.702   0.306   3.288  0.4088  0.0237 -0.9008
   37RES    H7215264   4.099   7.505   3.253 -0.6412 -0.5394 -1.4041
   37RES    H7315265   4.266   7.558   3.203 -0.3745  0.3518  1.6161
   37RES    H7415266   4.063   0.003   3.337  0.2657 -0.1623  1.1222
   37RES    H7515267   4.241   0.122   3.195  2.8796 -0.8145 -0.5646
   37RES    H7615268   4.234   0.186   3.353  0.7149  1.0871 -0.7224
   37RES    H7715269   4.418   0.062   3.436  1.1992 -0.7096 -0.5224
   37RES    H7815270   4.432   7.686   3.298 -0.9368 -0.1193  0.6810
   37RES    H7915271   4.490   0.185   3.161  1.7618  0.4785 -0.1620
   37RES    H8015272   4.455   0.276   3.298  1.2800  0.4340  1.3179
   37RES    H8115273   4.688   0.090   3.283 -1.8540 -0.2414  0.0312
   37RES    H8215274   4.622   0.172   3.432 -0.6440 -1.7339  0.5610
   37RES    H8315275   4.805   0.297   3.320 -0.4065 -0.3990  1.7817
   37RES    H8415276   4.693   0.326   3.181  0.9453  1.9260 -0.6081
   37RES    H8515277   4.656   0.395   3.331  0.6654 -0.4169  0.2965
   37RES    C8615278   4.199   7.636   3.477 -0.5092  0.0463  0.0314
   37RES    C8715279   4.127   7.510   3.534 -0.2426 -0.2110 -0.0901
   37RES    C8815280   3.972   7.532   3.535 -0.2733  0.3067 -0.5912
   37RES    C8915281   3.903   7.412   3.606 -0.3481  0.1266 -0.1030
   37RES    C9015282   3.777   7.456   3.688 -0.3961  0.2136 -0.0981
   37RES    C9115283   3.683   7.539   3.597  0.5702  0.3557 -0.3874
   37RES    C9215284   3.544   7.562   3.659 -0.0826 -0.3144 -0.0432
   37RES    H9315285   4.303   7.621   3.506 -0.4362 -2.4001 -1.3786
   37RES    H9415286   4.162   7.715   3.542  1.5977  1.1585 -0.0819
   37RES    H9515287   4.158   7.500   3.639  1.6993 -0.6264 -0.6673
   37RES    H9615288   3.942   7.615   3.599  2.6163  0.3499  0.7593
   37RES    H9715289   3.922   7.548   3.440  0.8008  2.2921 -0.8349
   37RES    H9815290   3.885   7.336   3.530  0.8599 -1.0864  0.8017
   37RES    H9915291   3.973   7.359   3.670 -1.4028 -0.6299  0.4242
   37RES   H10015292   3.812   7.504   3.779 -0.1349 -1.7411  0.8586
   37RES   H10115293   3.711   7.376   3.722 -2.7808  2.0070 -0.3655
   37RES   H10215294   3.733   7.635   3.585  0.3748  0.4487 -0.4640
   37RES   H10315295   3.669   7.498   3.497 -0.7473  0.8705 -0.4256
   37RES   H10415296   3.564   7.616   3.752 -2.8565  2.8614 -1.1695
   37RES   H10515297   3.481   7.473   3.663 -0.2038 -0.2203  0.1339
   37RES   H10615298   3.494   7.639   3.599  2.9647  0.9202 -1.0888
   37RES   C10715299   4.163   7.371   3.468 -0.3005  0.3312  0.5803
   37RES   C10815300   4.303   7.346   3.431 -0.1831  0.6221 -0.2482
   37RES   C10915301   4.387   7.323   3.559 -0.1188  0.8611  0.6592
   37RES   C11015302   4.506   7.411   3.581 -0.3524 -0.4555  0.3998
   37RES   C11115303   4.576   7.402   3.722  0.1588  0.0827 -0.0742
   37RES   C11215304   4.668   7.521   3.735  0.1299 -0.2596 -0.1561
   37RES   C11315305   4.759   7.494   3.860 -0.2140 -0.2468  0.1849
   37RES   H11415306   4.098   7.360   3.382  0.3221 -1.3637  0.3225
   37RES   H11515307   4.133   7.288   3.532 -1.5092 -1.6703 -2.4848
   37RES   H11615308   4.341   7.435   3.382 -1.4799  2.3162  1.7380
   37RES   H11715309   4.420   7.221   3.575 -1.0313  0.7115  1.6425
   37RES   H11815310   4.322   7.341   3.644 -1.3184 -0.2469  0.0085
   37RES   H11915311   4.582   7.397   3.505  0.5556 -0.9834  1.3883
   37RES   H12015312   4.472   7.512   3.558  0.2241  0.0462  1.6815
   37RES   H12115313   4.643   7.317   3.724  0.4214  0.3010  2.4377
   37RES   H12215314   4.505   7.404   3.805 -0.4268 -1.4367 -0.5231
   37RES   H12315315   4.728   7.526   3.645 -4.3353  0.6613 -3.2483
   37RES   H12415316   4.609   7.612   3.745 -1.2174 -1.1344  0.0655
   37RES   H12515317   4.800   7.591   3.887 -0.3079 -0.1396 -0.0619
   37RES   H12615318   4.699   7.461   3.945 -4.0555  0.5612 -2.1046
   37RES   H12715319   4.834   7.420   3.830 -1.2418 -0.2587 -2.4525
   37RES   C12815320   4.312   7.222   3.347  0.1490  0.1406  0.7533
   37RES   C12915321   4.445   7.197   3.270  0.0509  0.1493  0.7159
   37RES   C13015322   4.446   7.280   3.134 -0.3121  0.6463  0.2097
   37RES   C13115323   4.559   7.381   3.119  0.2126  1.0003  0.0741
   37RES   C13215324   4.577   7.431   2.975 -0.2679  0.5317 -0.2050
   37RES   C13315325   4.704   7.514   2.971  0.0347  0.3266  1.2098
   37RES   C13415326   4.687   7.649   3.050 -0.1338 -0.1637 -0.4899
   37RES   H13515327   4.284   7.141   3.414 -0.3532  1.0357  1.6533
   37RES   H13615328   4.236   7.226   3.270  2.5538  0.6802 -1.6556
   37RES   H13715329   4.532   7.225   3.330  0.6731 -0.9347  0.3461
   37RES   H13815330   4.344   7.315   3.115 -0.1953  1.4146  0.9262
   37RES   H13915331   4.458   7.205   3.057  0.3361  1.7811 -0.8098
   37RES   H14015332   4.659   7.350   3.150  0.4440  2.2755  0.6073
   37RES   H14115333   4.545   7.464   3.188  2.5574  0.8696  0.7678
   37RES   H14215334   4.485   7.478   2.938  0.2327  1.5327 -0.2143
   37RES   H14315335   4.592   7.358   2.896 -0.6101  0.3203 -0.0730
   37RES   H14415336   4.712   7.530   2.863 -1.0474 -0.7444  0.9529
   37RES   H14515337   4.801   7.467   2.990 -1.4452 -2.5121  2.0465
   37RES   H14615338   4.606   7.708   3.009 -1.1464 -0.7448  0.6351
   37RES   H14715339   4.782   7.697   3.027  0.0287 -0.4526 -0.4284
   37RES   H14815340   4.681   7.624   3.156  0.6283 -0.4351 -0.5020
   37RES   C14915341   4.460   7.042   3.237  0.1161 -0.0379 -0.2639
   37RES   C15015342   4.603   6.992   3.201  0.4228 -0.8330  0.1892
   37RES   C15115343   4.593   6.862   3.116 -0.9639 -0.7639  0.1557
   37RES   C15215344   4.722   6.791   3.080  0.8291  0.2321 -0.4752
   37RES   C15315345   4.707   6.644   3.031  0.9379 -0.4625  0.3032
   37RES   C15415346   4.842   6.601   2.978  0.6138 -0.0613 -0.2641
   37RES   C15515347   4.837   6.452   2.943 -0.1978  0.2246  0.3099
   37RES   H15615348   4.430   6.990   3.328  0.6019  0.9291  0.4591
   37RES   H15715349   4.389   7.011   3.160 -0.3261  0.3413 -0.0176
   37RES   H15815350   4.653   7.070   3.145 -0.4271 -0.4609 -0.0426
   37RES   H15915351   4.522   6.795   3.165 -3.1959  0.6660 -1.0385
   37RES   H16015352   4.541   6.880   3.022  0.4606 -3.0417 -1.1133
   37RES   H16115353   4.770   6.781   3.177 -2.2852  1.8856  1.3238
   37RES   H16215354   4.778   6.848   3.006  0.3261  2.4464  0.8125
   37RES   H16315355   4.632   6.637   2.953  0.7651 -1.0954  0.5284
   37RES   H16415356   4.681   6.581   3.115  2.2671 -1.1526  0.2089
   37RES   H16515357   4.919   6.631   3.049 -0.6853 -0.1022  1.1675
   37RES   H16615358   4.852   6.657   2.885  0.5807 -0.5208 -0.5456
   37RES   H16715359   4.927   6.417   2.894 -0.6690 -0.6467  0.0517
   37RES   H16815360   4.752   6.426   2.880 -0.0307 -1.1253  0.6233
   37RES   H16915361   4.821   6.396   3.036 -1.5021  0.9284  0.5302
   37RES   C17015362   4.684   6.979   3.334 -0.2353 -0.4526  0.4835
   37RES   C17115363   4.832   7.022   3.333  0.4836 -0.7152  0.2235
   37RES   C17215364   4.840   7.168   3.371  0.5320 -0.1665 -0.1598
   37RES   C17315365   4.976   7.238   3.358 -0.4556  0.6308 -0.0114
   37RES   C17415366   4.977   7.386   3.417 -0.2180  0.0440 -0.0158
   37RES   C17515367   4.986   7.399   3.565 -0.1017  0.1751 -0.5851
   37RES   C17615368   5.037   7.534   3.592  0.0585  0.0209 -0.8616
   37RES   H17715369   4.671   6.873   3.356 -0.7241 -0.7150 -0.9866
   37RES   H17815370   4.633   7.029   3.416  0.0282  2.4480 -1.0595
   37RES   H17915371   4.863   7.013   3.229  0.4162  2.0065 -0.0702
   37RES   H18015372   4.812   7.178   3.476  3.3241  3.9449  0.3001
   37RES   H18115373   4.760   7.215   3.314  0.5019 -0.4913 -0.3888
   37RES   H18215374   5.005   7.248   3.253  1.4194  0.5837  0.4829
   37RES   H18315375   5.054   7.179   3.405  0.2725  0.2023 -1.7178
   37RES   H18415376   4.887   7.439   3.384 -1.4908 -1.8104  0.3845
   37RES   H18515377   5.068   7.429   3.376 -0.9852  1.2130 -0.5187
   37RES   H18615378   5.062   7.327   3.594 -2.0162 -1.4568  0.4364
   37RES   H18715379   4.889   7.382   3.611  0.7722  0.5854  1.4278
   37RES   H18815380   5.032   7.556   3.699 -0.2382 -0.0929 -0.8514
   37RES   H18915381   4.982   7.603   3.529 -0.2835 -1.3829 -2.1138
   37RES   H19015382   5.140   7.548   3.561  0.3502 -1.7006 -0.6992
   37RES   C19115383   4.919   6.927   3.421 -0.5747  0.3046  0.3044
   37RES   C19215384   4.886   6.918   3.572  0.7115  0.1157  0.2722
   37RES   C19315385   4.769   6.823   3.605 -0.6533 -0.4882  0.1390
   37RES   C19415386   4.766   6.679   3.535 -0.4348  0.6258 -0.0149
   37RES   C19515387   4.649   6.592   3.576 -0.4427  0.3654  0.3841
   37RES   C19615388   4.514   6.632   3.513 -0.0548  0.2967  0.4579
   37RES   C19715389   4.400   6.548   3.560  0.4791 -0.3357  0.0673
   37RES   H19815390   5.023   6.960   3.410 -1.3636  2.9685  0.5562
   37RES   H19915391   4.907   6.824   3.387  2.5131  0.4705 -1.5420
   37RES   H20015392   4.855   7.015   3.610  2.1888  0.9907 -0.7003
   37RES   H20115393   4.684   6.883   3.573  0.2497 -0.0158 -1.4440
   37RES   H20215394   4.769   6.798   3.711 -1.9036  0.7287  0.4340
   37RES   H20315395   4.847   6.613   3.568 -1.5534 -1.6258 -1.6785
   37RES   H20415396   4.772   6.673   3.427 -0.1975 -2.7123  0.1487
   37RES   H20515397   4.677   6.494   3.535  1.2385  1.1258 -0.3287
   37RES   H20615398   4.644   6.594   3.685 -0.7249  3.3024  0.3337
   37RES   H20715399   4.519   6.605   3.408 -1.2657  0.9372  0.2203
   37RES   H20815400   4.496   6.739   3.527 -0.0526  0.7198 -2.5566
   37RES   H20915401   4.301   6.584   3.533 -0.3331 -1.8384  1.0073
   37RES   H21015402   4.396   6.572   3.666  2.9471  4.4980 -0.8101
   37RES   H21115403   4.415   6.440   3.551  2.0219 -0.2510  1.5058
   37RES   C21215404   5.012   6.877   3.651 -0.0766  0.3868  0.2810
   37RES   C21315405   5.107   6.987   3.692  0.3002 -0.3905  0.3828
   37RES   C21415406   5.044   7.053   3.827  0.3290 -0.5503 -0.4346
   37RES   C21515407   5.125   7.172   3.883  0.1253  0.0493 -0.3520
   37RES   C21615408   5.048   7.253   3.988 -0.7993 -0.0903  0.4872
   37RES   C21715409   5.110   7.395   4.012 -0.1884 -0.2965  0.0341
   37RES   C21815410   5.039   7.459   4.134 -0.9078 -0.0610  0.0673
   37RES   H21915411   5.070   6.806   3.591  0.1944  2.3269 -1.8226
   37RES   H22015412   4.974   6.826   3.739 -1.0077  2.2899  1.0052
   37RES   H22115413   5.120   7.060   3.612 -4.2780 -1.1423 -1.2122
   37RES   H22215414   4.943   7.090   3.805 -0.3368  0.5903  4.0159
   37RES   H22315415   5.036   6.986   3.913  1.5089  0.5257  0.5224
   37RES   H22415416   5.164   7.241   3.809  1.5336 -0.3443  0.0183
   37RES   H22515417   5.216   7.129   3.925 -0.3183 -1.3072 -0.7472
   37RES   H22615418   4.943   7.277   3.968 -0.0329  3.3007  0.2240
   37RES   H22715419   5.050   7.202   4.084 -0.3836  0.4731  0.7831
   37RES   H22815420   5.215   7.383   4.038  0.0492  1.8652  0.1587
   37RES   H22915421   5.091   7.459   3.926  2.4785 -0.2820 -0.5592
   37RES   H23015422   4.937   7.424   4.149 -0.5743 -0.9613  0.2686
   37RES   H23115423   5.033   7.568   4.129 -3.4530 -0.1957 -0.3548
   37RES   H23215424   5.086   7.441   4.230  1.1622  0.6707 -0.7623
   37RES   C23315425   5.240   6.927   3.730 -0.6053  0.2319  0.1709
   37RES   C23415426   5.323   6.880   3.608 -0.1478  0.2072 -0.0541
   37RES   C23515427   5.374   6.995   3.518  0.0179  0.8683 -0.1450
   37RES   C23615428   5.431   6.946   3.381  0.0654 -0.5569  0.2318
   37RES   C23715429   5.478   7.073   3.304  0.9184  0.4090  0.0798
   37RES   C23815430   5.369   7.161   3.244  0.6648  0.0489  0.3498
   37RES   C23915431   5.428   7.271   3.158 -0.4518  0.7107 -0.2935
   37RES   H24015432   5.223   6.844   3.799 -0.0546 -0.3251 -0.3512
   37RES   H24115433   5.306   6.994   3.784  1.0368 -1.6167  0.5167
   37RES   H24215434   5.255   6.822   3.544 -1.6718  0.5753  1.2007
   37RES   H24315435   5.444   7.053   3.579 -1.4076 -0.4883  2.8655
   37RES   H24415436   5.293   7.065   3.498 -0.6912  0.4026  1.0559
   37RES   H24515437   5.348   6.898   3.329  0.3752  1.1930 -1.9598
   37RES   H24615438   5.519   6.885   3.401  1.0828  0.7453 -0.1719
   37RES   H24715439   5.551   7.041   3.229  1.3675  0.2335  0.5862
   37RES   H24815440   5.528   7.134   3.379  0.3696  0.8234  0.1091
   37RES   H24915441   5.304   7.097   3.184  0.5068  0.3173  0.2378
   37RES   H25015442   5.306   7.198   3.325 -1.0745 -1.0308 -0.4593
   37RES   H25115443   5.509   7.331   3.200 -1.2607  0.9332  0.9597
   37RES   H25215444   5.483   7.232   3.072 -1.2610  0.9962 -0.9356
   37RES   H25315445   5.346   7.336   3.128  0.3720  1.9427  0.0625
   37RES   C25415446   5.436   6.780   3.640 -0.3498  0.9276  0.0837
   37RES   C25515447   5.546   6.841   3.738 -0.1974 -0.6789  0.2287
   37RES   C25615448   5.672   6.889   3.659  0.4118  1.0395 -0.4202
   37RES   C25715449   5.763   6.988   3.733 -0.1485 -0.5359  0.0895
   37RES   C25815450   5.884   7.042   3.643 -0.2189 -0.5428 -0.3689
   37RES   C25915451   5.965   7.143   3.715  0.2312  0.0803 -0.5682
   37RES   C26015452   6.018   7.248   3.623  0.3107  0.1715  0.5885
   37RES   H26115453   5.468   6.732   3.547 -3.2924  0.4905 -0.7638
   37RES   H26215454   5.395   6.693   3.690  0.3930  1.2536  1.2804
   37RES   H26315455   5.520   6.934   3.788  2.6889 -0.7453  1.9865
   37RES   H26415456   5.636   6.938   3.569  2.2590  0.4733 -1.5007
   37RES   H26515457   5.737   6.803   3.640 -0.6761 -0.2366  1.4635
   37RES   H26615458   5.712   7.064   3.791  0.7728 -2.0064  2.9219
   37RES   H26715459   5.815   6.938   3.815 -0.6839 -2.5641 -0.7678
   37RES   H26815460   5.847   7.092   3.554  0.8686  0.5825 -0.2073
   37RES   H26915461   5.943   6.961   3.599  0.2046 -0.8592  0.7437
   37RES   H27015462   5.906   7.192   3.793  0.7343 -3.2639  2.0114
   37RES   H27115463   6.044   7.089   3.768  0.1897  0.2626 -0.3175
   37RES   H27215464   6.102   7.213   3.563  1.5711 -2.1080  3.5833
   37RES   H27315465   5.944   7.292   3.555  1.5444 -0.6453 -1.3270
   37RES   H27415466   6.075   7.321   3.680 -0.3540  0.1365  1.3076
   37RES   C27515467   5.577   6.746   3.851  0.2113  0.6301  0.1612
   37RES   C27615468   5.493   6.764   3.986 -0.0725  0.3836  0.2511
   37RES   C27715469   5.528   6.888   4.074  0.0102  0.4824  0.0942
   37RES   C27815470   5.414   6.935   4.169 -0.2899 -0.1487 -0.0737
   37RES   C27915471   5.478   7.021   4.281  0.2284  0.8648  0.2243
   37RES   C28015472   5.368   7.085   4.365 -0.1180 -0.3356 -1.0171
   37RES   C28115473   5.424   7.171   4.475 -0.2316  0.5780 -0.1930
   37RES   H28215474   5.683   6.759   3.875  0.4924 -0.5680 -0.3927
   37RES   H28315475   5.577   6.642   3.818 -0.4907  0.5708  0.3506
   37RES   H28415476   5.394   6.789   3.948 -0.5414 -1.1065  0.4577
   37RES   H28515477   5.624   6.874   4.123 -0.8349 -0.5160  1.4785
   37RES   H28615478   5.546   6.975   4.011  0.3831  1.4512  1.5123
   37RES   H28715479   5.355   6.869   4.231  0.4112  0.6658  1.4995
   37RES   H28815480   5.343   6.994   4.111 -1.1460 -0.1639  0.9488
   37RES   H28915481   5.532   7.103   4.235  1.2427 -0.0289 -0.1876
   37RES   H29015482   5.549   6.953   4.328 -1.3263 -0.5254  0.6282
   37RES   H29115483   5.313   7.150   4.297  1.0119  0.0595 -1.5597
   37RES   H29215484   5.298   7.014   4.409  1.5458 -1.2202  0.2601
   37RES   H29315485   5.347   7.235   4.517 -1.1064 -0.8278  0.3649
   37RES   H29415486   5.492   7.249   4.439 -0.7877  2.5257  2.7830
   37RES   H29515487   5.472   7.104   4.546 -2.8024 -1.4347 -0.2957
   37RES   C29615488   5.476   6.631   4.067 -0.6644  0.5025  0.2560
   37RES   C29715489   5.367   6.537   4.001 -0.4095  0.6092  0.3672
   37RES   C29815490   5.219   6.597   4.011  0.6102 -0.1588 -0.5238
   37RES   C29915491   5.119   6.533   3.909  0.2226 -0.5145  0.3664
   37RES   C30015492   4.970   6.563   3.940 -0.5391  0.7958 -0.1607
   37RES   C30115493   4.883   6.482   3.846  0.4476  0.5193 -0.1819
   37RES   C30215494   4.890   6.329   3.884  0.3925 -0.4166 -0.1636
   37RES   H30315495   5.573   6.581   4.074 -1.0667 -0.6600 -1.7765
   37RES   H30415496   5.450   6.660   4.168 -0.7482  1.8278 -0.1396
   37RES   H30515497   5.397   6.519   3.898  1.1840 -1.9946  1.2493
   37RES   H30615498   5.189   6.566   4.112  2.6814 -0.0759  0.1309
   37RES   H30715499   5.218   6.706   4.013  0.4664 -0.1644  0.1649
   37RES   H30815500   5.144   6.427   3.903  2.3646 -0.0866  1.2439
   37RES   H30915501   5.131   6.571   3.808  1.2764  0.9200  1.0207
   37RES   H31015502   4.942   6.668   3.940 -0.2286  0.9403 -3.8831
   37RES   H31115503   4.947   6.532   4.042 -2.0619 -0.9137 -0.9850
   37RES   H31215504   4.783   6.518   3.870 -0.8378 -2.8815 -0.0650
   37RES   H31315505   4.895   6.497   3.738  2.2868 -1.0277 -0.2256
   37RES   H31415506   4.860   6.313   3.988  0.2169 -0.7263 -0.2620
   37RES   H31515507   4.830   6.276   3.810 -1.0771  0.5825  0.3034
   37RES   H31615508   4.987   6.286   3.857 -0.4841 -1.4653 -1.7453
   37RES   C31715509   5.375   6.406   4.088 -0.5973 -0.1437 -0.2806
   37RES   C31815510   5.469   6.294   4.038  0.3314 -0.0994  0.0496
   37RES   C31915511   5.478   6.176   4.137 -0.6073 -0.1824  0.5574
   37RES   C32015512   5.534   6.215   4.275 -0.5991  1.5450  0.7538
   37RES   C32115513   5.685   6.222   4.283  0.0137  0.2455  0.2699
   37RES   C32215514   5.743   6.226   4.428 -0.0251 -0.3118 -0.0720
   37RES   C32315515   5.884   6.259   4.447 -0.4050  0.1358  0.2061
   37RES   H32415516   5.276   6.362   4.103 -0.6688  0.7045  1.9163
   37RES   H32515517   5.399   6.435   4.190 -1.3190 -1.1296  0.1769
   37RES   H32615518   5.566   6.341   4.024  1.0019 -1.0188  1.4696
   37RES   H32715519   5.532   6.091   4.095 -1.0333 -0.6279  0.9109
   37RES   H32815520   5.376   6.140   4.150 -0.3362 -0.6431  1.4263
   37RES   H32915521   5.493   6.139   4.341  0.2521 -0.3325 -0.8451
   37RES   H33015522   5.496   6.312   4.309  0.9272  1.4014  2.9723
   37RES   H33115523   5.709   6.318   4.236  3.6302 -0.7194 -0.0698
   37RES   H33215524   5.741   6.149   4.225 -2.2411 -0.8936 -0.5230
   37RES   H33315525   5.721   6.125   4.464 -0.3559 -0.0600  0.4250
   37RES   H33415526   5.685   6.290   4.494 -1.3686 -0.3876 -1.1594
   37RES   H33515527   5.961   6.204   4.394 -1.9250 -1.7980 -0.0703
   37RES   H33615528   5.911   6.259   4.553  0.2332 -1.5212  0.0702
   37RES   H33715529   5.893   6.363   4.416  0.3618  0.3935  1.2797
   37RES   C33815530   5.419   6.238   3.898 -0.4817 -0.0676 -0.4592
   37RES   C33915531   5.493   6.130   3.814  0.2786  0.3671 -0.2072
   37RES   C34015532   5.637   6.169   3.781 -0.4290 -0.5766  0.5642
   37RES   C34115533   5.664   6.307   3.715 -0.4294 -0.1441  0.6646
   37RES   C34215534   5.803   6.339   3.670 -0.6748 -0.1112 -0.3266
   37RES   C34315535   5.827   6.483   3.609 -0.0116  0.0316 -0.5228
   37RES   C34415536   5.730   6.510   3.494 -0.1173 -0.3814 -0.1492
   37RES   H34515537   5.409   6.322   3.828  1.1554  0.9849  0.5451
   37RES   H34615538   5.325   6.186   3.913 -0.3237  0.1690  1.4220
   37RES   H34715539   5.497   6.037   3.871  2.8974  0.5482 -0.0240
   37RES   H34815540   5.702   6.166   3.869 -1.1544 -0.6153  1.1109
   37RES   H34915541   5.678   6.098   3.710 -0.0042  0.5976 -0.3835
   37RES   H35015542   5.609   6.383   3.770  0.0948 -0.0172  1.0115
   37RES   H35115543   5.605   6.319   3.623  0.5722  1.4801  0.2267
   37RES   H35215544   5.874   6.338   3.753 -0.7031  1.8024 -0.2435
   37RES   H35315545   5.839   6.269   3.596 -0.2876  0.0893 -0.3290
   37RES   H35415546   5.820   6.554   3.691  0.2016  0.7370 -1.1073
   37RES   H35515547   5.928   6.489   3.568  1.4598 -0.4611  2.8882
   37RES   H35615548   5.761   6.445   3.411 -0.2103  2.2391 -2.3174
   37RES   H35715549   5.727   6.613   3.458 -2.6154 -0.5271 -0.4501
   37RES   H35815550   5.625   6.495   3.520 -0.5029 -0.8703 -1.9183
   37RES   C35915551   5.421   6.092   3.688  0.2386  0.7592  0.5668
   37RES   C36015552   5.307   5.990   3.701  0.0119 -1.4031  0.3448
   37RES   C36115553   5.195   5.995   3.595  0.3839 -0.0571  0.9720
   37RES   C36215554   5.098   6.108   3.618  0.2414 -0.1701  0.3873
   37RES   C36315555   4.983   6.095   3.516 -0.1972 -0.1689 -0.5455
   37RES   C36415556   4.890   6.218   3.507  0.2238 -0.0961  0.7454
   37RES   C36515557   4.791   6.225   3.392  0.2986  0.1898  0.4696
   37RES   H36615558   5.484   6.055   3.608  0.7708  0.9287  0.9100
   37RES   H36715559   5.370   6.183   3.657  0.9236  0.8068 -0.4454
   37RES   H36815560   5.258   6.013   3.796 -1.1651  0.4174 -0.6673
   37RES   H36915561   5.251   5.988   3.502 -1.4399 -2.4513 -0.0087
   37RES   H37015562   5.147   5.897   3.586  2.7768 -0.9897 -3.3650
   37RES   H37115563   5.062   6.104   3.721 -2.1010 -1.8815 -0.4491
   37RES   H37215564   5.168   6.189   3.601  1.6179 -1.4461 -0.0827
   37RES   H37315565   5.026   6.068   3.420  0.1608  0.3829 -0.5455
   37RES   H37415566   4.920   6.014   3.552  2.1744 -1.6265  0.4532
   37RES   H37515567   4.828   6.218   3.597  1.0664  0.8528  1.3316
   37RES   H37615568   4.941   6.314   3.510  1.4038 -0.6614 -0.6466
   37RES   H37715569   4.761   6.325   3.360 -0.2435  0.2763  1.2479
   37RES   H37815570   4.843   6.183   3.305 -0.6249  0.5967 -0.2896
   37RES   H37915571   4.705   6.162   3.414  0.6880 -1.1193 -1.6420
   37RES   C38015572   5.363   5.846   3.704 -0.3308  0.2687  0.0082
   37RES   C38115573   5.275   5.734   3.769  0.1825 -0.5639 -0.0715
   37RES   C38215574   5.321   5.590   3.741 -0.6795 -0.1510  0.6280
   37RES   C38315575   5.342   5.551   3.591  0.0397 -0.0075  1.1881
   37RES   C38415576   5.362   5.402   3.574  0.3068 -0.3446 -0.5483
   37RES   C38515577   5.378   5.367   3.430  0.3501  0.5969 -0.3908
   37RES   C38615578   5.369   5.217   3.397  0.7436 -0.2677 -0.0771
   37RES   H38715579   5.395   5.816   3.604 -0.4365  1.5263 -0.4169
   37RES   H38815580   5.457   5.846   3.760 -0.6636  0.7594  0.5722
   37RES   H38915581   5.174   5.745   3.732  0.2067 -1.1275 -0.3080
   37RES   H39015582   5.256   5.513   3.784 -0.0013 -1.2566 -0.3190
   37RES   H39115583   5.413   5.582   3.799 -0.2333  2.6406  0.3977
   37RES   H39215584   5.254   5.594   3.543 -0.6278 -2.6323 -0.0209
   37RES   H39315585   5.424   5.599   3.538 -1.2439 -0.7061 -1.5095
   37RES   H39415586   5.454   5.371   3.624  0.3938 -1.7812 -1.5426
   37RES   H39515587   5.275   5.353   3.617 -0.7216  3.1335  1.5709
   37RES   H39615588   5.463   5.422   3.390 -0.3290  0.4530 -2.0795
   37RES   H39715589   5.287   5.412   3.390 -0.7513  0.3964  1.7615
   37RES   H39815590   5.271   5.181   3.428  2.0564 -1.9448  2.2684
   37RES   H39915591   5.446   5.155   3.443  0.9278  1.2196  1.6653
   37RES   H40015592   5.375   5.206   3.288 -0.9985  0.1720 -0.2242
   37RES   C40115593   5.255   5.751   3.926 -0.1668  0.2564  0.2256
   37RES   C40215594   5.391   5.745   4.004  1.1934  0.2679  0.0619
   37RES   C40315595   5.367   5.772   4.155 -0.0254  0.6062  0.3266
   37RES   C40415596   5.500   5.773   4.233 -0.1157 -0.2409  0.0700
   37RES   C40515597   5.490   5.792   4.383  0.3879 -0.1379  0.4073
   37RES   C40615598   5.622   5.816   4.452  0.1071 -0.2152 -0.1839
   37RES   C40715599   5.591   5.883   4.590  0.1235 -0.1803  0.7770
   37RES   H40815600   5.187   5.670   3.955  0.9509 -0.3835  1.1004
   37RES   H40915601   5.211   5.849   3.944  0.1080  0.5668 -0.7784
   37RES   H41015602   5.464   5.813   3.959  0.4123  0.7301 -0.5274
   37RES   H41115603   5.296   5.709   4.208 -1.5136  0.3952 -1.8289
   37RES   H41215604   5.318   5.868   4.172 -0.7716 -0.3208  3.7458
   37RES   H41315605   5.554   5.863   4.201 -1.4247 -0.3864 -2.6743
   37RES   H41415606   5.557   5.683   4.210  0.3437 -0.9119  3.5925
   37RES   H41515607   5.417   5.868   4.410 -1.7130 -1.7420 -0.6780
   37RES   H41615608   5.439   5.704   4.422  1.1151 -0.6294  0.2566
   37RES   H41715609   5.683   5.727   4.465 -0.3249 -0.5153 -0.1938
   37RES   H41815610   5.675   5.880   4.382 -0.9016  0.4312 -0.3580
   37RES   H41915611   5.689   5.889   4.637 -0.4725 -0.1104  2.0173
   37RES   H42015612   5.531   5.821   4.656  1.2181 -0.8856  1.1116
   37RES   H42115613   5.546   5.981   4.571 -0.9179 -1.1067 -1.7663
   37RES   H42215614   5.444   5.650   3.995  2.2921  0.9297 -0.5272
   38RES     C115615   2.650   1.785   4.385 -0.2377 -1.0362 -0.0194
   38RES     C215616   2.732   1.812   4.261 -0.0672  0.0932  0.3611
   38RES     C315617   2.729   1.962   4.225 -0.5870  0.0716 -0.3568
   38RES     C415618   2.791   2.061   4.325  0.1852 -0.1846  0.2327
   38RES     C515619   2.799   2.204   4.268  0.5580  0.5974  0.5277
   38RES     C615620   2.872   2.300   4.363 -0.8067 -0.0823  0.2066
   38RES     C715621   2.923   2.430   4.300  0.2077 -0.2299  0.2258
   38RES     H815622   2.547   1.785   4.350 -0.1344  0.1562 -0.3747
   38RES     H915623   2.675   1.853   4.467 -1.5072 -0.5217 -0.0546
   38RES    H1015624   2.837   1.795   4.286 -0.0608  1.0344  1.0089
   38RES    H1115625   2.782   1.969   4.131 -0.8203 -1.2071 -0.5951
   38RES    H1215626   2.630   1.996   4.192  0.0395  3.2915  0.9076
   38RES    H1315627   2.729   2.070   4.415  2.2893  1.0604  1.6081
   38RES    H1415628   2.884   2.024   4.369  0.8925 -1.7680 -2.5063
   38RES    H1515629   2.699   2.249   4.267 -0.4223 -1.5345 -0.7283
   38RES    H1615630   2.841   2.206   4.168  0.3739 -0.6289  0.4249
   38RES    H1715631   2.966   2.264   4.404 -0.6098 -1.6067 -1.5267
   38RES    H1815632   2.811   2.319   4.451 -0.3986  0.0241  0.4665
   38RES    H1915633   2.983   2.495   4.364  1.0652 -2.1516  1.3821
   38RES    H2015634   2.838   2.489   4.263 -0.3804 -0.8582  0.5626
   38RES    H2115635   2.983   2.405   4.213  0.6648 -0.4343  0.6046
   38RES    H2215636   2.675   1.691   4.434 -0.2192 -2.5073 -2.7161
   38RES    C2315637   2.707   1.733   4.134 -0.0998 -0.1299  0.5634
   38RES    C2415638   2.703   1.578   4.156  0.4815 -0.3066  0.1883
   38RES    C2515639   2.831   1.521   4.214  0.4357 -0.3901 -0.4084
   38RES    C2615640   2.823   1.383   4.289  0.3007  0.0315  0.1873
   38RES    C2715641   2.955   1.327   4.332 -0.6402  0.2916 -1.0152
   38RES    C2815642   3.023   1.390   4.462 -0.3466 -0.6914 -0.3260
   38RES    C2915643   3.168   1.330   4.480  0.0713 -0.8191 -0.4054
   38RES    H3015644   2.617   1.764   4.081  0.1491  2.6734  1.7275
   38RES    H3115645   2.791   1.760   4.070 -1.5124 -0.2915 -1.4092
   38RES    H3215646   2.624   1.561   4.230  0.2149  1.2154  0.2753
   38RES    H3315647   2.879   1.583   4.290  0.9464  0.2394 -1.2435
   38RES    H3415648   2.910   1.516   4.139  0.3036 -0.5453 -0.5387
   38RES    H3515649   2.776   1.303   4.232 -0.1913  0.5771 -0.1809
   38RES    H3615650   2.759   1.397   4.376  0.3205 -0.7876  0.3386
   38RES    H3715651   3.015   1.312   4.242 -0.4302  1.0790 -1.0060
   38RES    H3815652   2.938   1.223   4.363 -1.3449  0.4457 -0.8808
   38RES    H3915653   2.954   1.373   4.544 -2.5527 -0.2956 -2.0396
   38RES    H4015654   3.024   1.499   4.466  0.5633 -0.7154  0.2123
   38RES    H4115655   3.214   1.382   4.563 -3.9222 -1.9960  2.6937
   38RES    H4215656   3.157   1.227   4.513  0.4421 -0.2844  1.3921
   38RES    H4315657   3.220   1.324   4.384  2.3383 -0.8821  0.8077
   38RES    C4415658   2.665   1.517   4.019 -0.3432 -0.1713 -0.8599
   38RES    C4515659   2.511   1.520   3.992 -0.7098  0.4136  0.3364
   38RES    C4615660   2.491   1.586   3.854  0.3624 -0.5309  0.5447
   38RES    C4715661   2.341   1.587   3.794  0.7454  0.0332  0.0846
   38RES    C4815662   2.249   1.671   3.883  0.2564  0.6113 -0.5516
   38RES    C4915663   2.110   1.692   3.829  0.1463  0.1539 -0.2224
   38RES    C5015664   2.010   1.729   3.938 -0.4483 -0.7447 -0.1476
   38RES    H5115665   2.694   1.412   4.022 -1.2503 -0.3964  0.4252
   38RES    H5215666   2.717   1.570   3.939 -0.2324 -1.3263 -1.5667
   38RES    H5315667   2.457   1.580   4.066  0.7130  0.9527  0.9710
   38RES    H5415668   2.554   1.537   3.779 -1.0176  1.2089 -1.8322
   38RES    H5515669   2.527   1.689   3.853  0.9025 -0.7150  0.7975
   38RES    H5615670   2.349   1.621   3.691  4.3915  0.1569  0.3571
   38RES    H5715671   2.299   1.487   3.787  2.1941 -0.5204 -0.9259
   38RES    H5815672   2.296   1.769   3.892 -0.5223  1.0755 -1.4112
   38RES    H5915673   2.243   1.627   3.982  1.0832  2.3349  0.2868
   38RES    H6015674   2.076   1.597   3.787  2.7622 -0.4059 -1.1412
   38RES    H6115675   2.100   1.768   3.751  0.6721  0.2402 -0.2061
   38RES    H6215676   2.010   1.666   4.027 -0.0056 -1.7573 -0.8463
   38RES    H6315677   1.915   1.724   3.885 -0.0337  0.7516 -1.0605
   38RES    H6415678   2.030   1.831   3.971  2.2838 -1.3831  0.2804
   38RES    C6515679   2.446   1.380   4.010 -0.3510 -0.2124 -0.4759
   38RES    C6615680   2.445   1.311   4.154 -0.4695  0.3540  0.5182
   38RES    C6715681   2.422   1.160   4.145  0.5672  0.0239  0.1537
   38RES    C6815682   2.284   1.114   4.091  0.3814 -0.9169  0.3192
   38RES    C6915683   2.270   0.970   4.044 -0.5173 -0.6193  0.0528
   38RES    C7015684   2.135   0.943   3.968  0.2479 -0.9802 -0.2652
   38RES    C7115685   2.121   0.796   3.925  0.0821 -0.5222 -0.7052
   38RES    H7215686   2.343   1.386   3.977 -0.0826  1.4971 -1.0758
   38RES    H7315687   2.499   1.305   3.950  1.3073  0.0457  0.6154
   38RES    H7415688   2.546   1.330   4.190 -0.3412 -1.0935  0.9558
   38RES    H7515689   2.499   1.125   4.077  0.7463 -0.0755  0.4030
   38RES    H7615690   2.434   1.104   4.238 -2.4831 -2.1883 -0.7274
   38RES    H7715691   2.217   1.127   4.177 -0.2064  0.7987 -0.3764
   38RES    H7815692   2.252   1.177   4.008  0.0791  1.0545  1.8631
   38RES    H7915693   2.350   0.946   3.973 -0.6739 -0.8127 -0.0595
   38RES    H8015694   2.277   0.896   4.124  0.3339  0.3176  0.8521
   38RES    H8115695   2.140   1.000   3.875  1.9772  0.4410  0.6414
   38RES    H8215696   2.045   0.974   4.021  0.3862 -0.4135 -0.3559
   38RES    H8315697   2.045   0.789   3.847 -3.1859  1.9795  2.0842
   38RES    H8415698   2.212   0.747   3.891  0.7457  0.6199 -0.6237
   38RES    H8515699   2.080   0.733   4.004  0.1411 -1.7744 -1.6612
   38RES    C8615700   2.333   1.375   4.243 -0.1546  0.5377 -0.2441
   38RES    C8715701   2.339   1.343   4.393  0.4297 -0.0720  0.8297
   38RES    C8815702   2.471   1.379   4.466  0.5056  0.2416 -0.2778
   38RES    C8915703   2.482   1.331   4.611 -0.1952  0.7270 -0.0982
   38RES    C9015704   2.511   1.175   4.616 -0.2898 -0.5202 -0.2841
   38RES    C9115705   2.664   1.145   4.596  0.4043 -0.7403  0.1183
   38RES    C9215706   2.696   1.011   4.535  0.3882  0.3303 -0.1552
   38RES    H9315707   2.355   1.482   4.238 -0.8996  0.6494 -1.1922
   38RES    H9415708   2.232   1.354   4.208 -0.0347 -2.5389  1.1464
   38RES    H9515709   2.324   1.235   4.398  0.9356 -0.1885 -0.0383
   38RES    H9615710   2.547   1.330   4.405 -0.6984  0.1399 -1.7061
   38RES    H9715711   2.497   1.485   4.460 -1.5309  0.8255  0.7330
   38RES    H9815712   2.576   1.375   4.644 -0.0983 -0.4720  1.2944
   38RES    H9915713   2.407   1.364   4.683 -0.7727  1.4630 -1.0265
   38RES   H10015714   2.450   1.129   4.539  0.9633  0.4262 -1.8862
   38RES   H10115715   2.483   1.138   4.715 -0.9384  0.5633 -0.0551
   38RES   H10215716   2.709   1.219   4.529 -0.2232  0.0071  0.5218
   38RES   H10315717   2.723   1.160   4.686  0.2386 -0.5819  0.2023
   38RES   H10415718   2.801   0.991   4.556  0.9099  1.8450 -1.2297
   38RES   H10515719   2.694   1.009   4.426  1.7775 -2.6994 -0.1967
   38RES   H10615720   2.641   0.929   4.580  0.2896  0.3482 -0.2436
   38RES   C10715721   2.224   1.423   4.459 -0.3985 -0.0238  0.8244
   38RES   C10815722   2.087   1.353   4.426  0.7539 -0.5831  0.8163
   38RES   C10915723   2.026   1.296   4.551  0.9786  0.9920 -0.1815
   38RES   C11015724   2.115   1.191   4.622 -0.6802 -0.5734 -0.1681
   38RES   C11115725   2.040   1.087   4.709 -0.0939 -0.2908  0.7565
   38RES   C11215726   2.133   0.988   4.782 -0.5749  0.5305 -0.5620
   38RES   C11315727   2.195   1.055   4.904  0.1112  0.4338 -0.1199
   38RES   H11415728   2.213   1.524   4.421  2.7679 -0.3642 -1.2576
   38RES   H11515729   2.235   1.415   4.567  0.5037  0.2677  0.7612
   38RES   H11615730   2.105   1.274   4.353 -0.6761  1.3828 -1.7531
   38RES   H11715731   1.933   1.246   4.525  0.4836  1.0336  1.4395
   38RES   H11815732   1.994   1.371   4.625 -0.5215 -1.6947  1.9998
   38RES   H11915733   2.181   1.139   4.554 -1.9760 -1.3647 -0.8390
   38RES   H12015734   2.179   1.250   4.688 -0.2331 -1.1752 -0.0594
   38RES   H12115735   1.985   1.034   4.631  1.5181 -2.2412  0.8971
   38RES   H12215736   1.965   1.140   4.767  0.2115  0.5313  0.4110
   38RES   H12315737   2.070   0.913   4.829  1.8240 -1.0929  0.1895
   38RES   H12415738   2.211   0.944   4.719 -1.2157 -2.0345  0.3847
   38RES   H12515739   2.236   0.986   4.977  1.9982 -0.3350 -1.8377
   38RES   H12615740   2.290   1.098   4.873  0.8659  0.3247  2.0160
   38RES   H12715741   2.128   1.129   4.948 -0.3520  0.6904 -1.2296
   38RES   C12815742   1.999   1.452   4.352 -0.2957 -0.7512 -0.4662
   38RES   C12915743   1.871   1.399   4.285 -0.1598 -0.6123  0.0847
   38RES   C13015744   1.900   1.295   4.169 -0.1934 -0.9797 -0.1068
   38RES   C13115745   1.942   1.377   4.044  0.4678  0.7189 -0.2374
   38RES   C13215746   1.959   1.291   3.919 -0.3684  0.0232  0.2444
   38RES   C13315747   1.820   1.249   3.852  0.3914 -0.5529  0.1562
   38RES   C13415748   1.851   1.163   3.730  0.1993 -0.5552 -0.3150
   38RES   H13515749   1.986   1.540   4.415 -0.9073  0.8066 -2.7087
   38RES   H13615750   2.056   1.487   4.267  2.2399 -2.0839  0.6254
   38RES   H13715751   1.829   1.337   4.364  0.7791 -1.8289 -0.3504
   38RES   H13815752   1.808   1.247   4.136 -0.0447 -2.1463  1.0921
   38RES   H13915753   1.972   1.218   4.197  0.0309 -0.5244  0.6063
   38RES   H14015754   2.040   1.423   4.059  0.0600  1.8230 -0.8547
   38RES   H14115755   1.874   1.460   4.021 -0.9712 -0.4363 -0.2232
   38RES   H14215756   2.031   1.211   3.936 -1.0607 -1.0829 -1.8823
   38RES   H14315757   2.007   1.337   3.833 -2.3962  0.2168 -0.7906
   38RES   H14415758   1.762   1.340   3.839 -0.6303 -1.0482  1.1777
   38RES   H14515759   1.766   1.188   3.924  0.7177 -1.4127 -0.3243
   38RES   H14615760   1.752   1.138   3.690 -0.6403  1.6954  0.2834
   38RES   H14715761   1.903   1.071   3.756 -0.4598 -1.2467 -1.4039
   38RES   H14815762   1.903   1.233   3.664  3.6186  0.2757  3.1297
   38RES   C14915763   1.768   1.512   4.255  0.4441 -0.1459  0.3160
   38RES   C15015764   1.621   1.463   4.209  0.4398  0.0994  0.0196
   38RES   C15115765   1.529   1.572   4.138  0.4231  0.1401 -0.9674
   38RES   C15215766   1.572   1.615   3.993 -0.0291  0.8985 -0.4127
   38RES   C15315767   1.511   1.751   3.950  1.1699 -0.1303 -0.1484
   38RES   C15415768   1.536   1.790   3.800  0.0697  0.4333  0.7735
   38RES   C15515769   1.451   1.914   3.751  0.5724  0.6122 -0.3585
   38RES   H15615770   1.763   1.573   4.346 -3.1859  1.2007 -0.6964
   38RES   H15715771   1.808   1.588   4.187  2.5944 -1.5604 -0.0161
   38RES   H15815772   1.625   1.382   4.136 -2.4619 -1.0691  1.0867
   38RES   H15915773   1.423   1.551   4.125  0.2425 -0.9412  1.7962
   38RES   H16015774   1.526   1.651   4.213  2.0208  0.0656 -0.8193
   38RES   H16115775   1.542   1.544   3.916  1.4610 -1.2790  0.9239
   38RES   H16215776   1.680   1.606   3.979 -0.0886 -0.8197  0.1312
   38RES   H16315777   1.563   1.828   4.006  0.0724 -0.3259  1.1528
   38RES   H16415778   1.407   1.771   3.977  1.0715  0.0006 -0.6107
   38RES   H16515779   1.503   1.707   3.737 -2.4768  0.1639  2.3957
   38RES   H16615780   1.643   1.797   3.777  0.7252  0.3206  3.6033
   38RES   H16715781   1.352   1.873   3.729  1.0765 -0.0885 -1.3244
   38RES   H16815782   1.488   1.962   3.660  0.1386 -2.5514 -2.2899
   38RES   H16915783   1.448   1.991   3.828  1.9316  3.3689 -2.9836
   38RES   C17015784   1.536   1.404   4.333 -0.0517 -0.4849  0.3645
   38RES   C17115785   1.447   1.281   4.301  0.6861  0.5114  0.2212
   38RES   C17215786   1.526   1.153   4.272 -0.0014 -0.0974  0.1747
   38RES   C17315787   1.590   1.091   4.392  0.6733 -0.0274 -0.4971
   38RES   C17415788   1.664   0.965   4.344  0.2180  0.0509  0.6162
   38RES   C17515789   1.744   0.882   4.450 -0.0406  0.1877  0.3962
   38RES   C17615790   1.821   0.781   4.368  0.6225  0.1611  0.6515
   38RES   H17715791   1.475   1.490   4.361 -0.3450  0.2841 -2.5040
   38RES   H17815792   1.599   1.378   4.418  0.9287 -2.3461 -0.8976
   38RES   H17915793   1.407   1.302   4.201  0.9228  2.3606  0.4917
   38RES   H18015794   1.607   1.186   4.206  0.4897 -0.4787  0.5775
   38RES   H18115795   1.472   1.076   4.218  1.9727 -1.0911 -0.4205
   38RES   H18215796   1.511   1.068   4.464  1.3517 -1.0129 -0.0436
   38RES   H18315797   1.647   1.169   4.443 -1.0588  1.8167 -1.3188
   38RES   H18415798   1.738   0.997   4.271 -2.0482 -0.5847 -2.0697
   38RES   H18515799   1.596   0.899   4.290 -1.3076  1.7411  0.4342
   38RES   H18615800   1.669   0.835   4.513 -0.2810  1.5198  1.1133
   38RES   H18715801   1.811   0.949   4.503 -1.2882 -0.2969  2.6205
   38RES   H18815802   1.882   0.715   4.429 -0.2763 -0.9317  0.3939
   38RES   H18915803   1.882   0.820   4.287  3.3950 -0.5672  2.3415
   38RES   H19015804   1.758   0.707   4.318 -0.5507  2.1412 -0.8483
   38RES   C19115805   1.333   1.272   4.398 -0.5677  0.7557  0.2133
   38RES   C19215806   1.219   1.367   4.369 -0.3747  0.4892  0.1234
   38RES   C19315807   1.100   1.297   4.301  0.0398 -0.6796  0.0411
   38RES   C19415808   1.115   1.275   4.153  0.6816  0.0180 -0.1514
   38RES   C19515809   1.014   1.171   4.102 -0.3394  0.0355  0.2874
   38RES   C19615810   1.048   1.132   3.952  0.2752  1.0851 -0.1219
   38RES   C19715811   0.950   1.042   3.881  0.0817 -0.1825  0.2730
   38RES   H19815812   1.371   1.290   4.499  1.9398 -0.9593 -0.4086
   38RES   H19915813   1.297   1.170   4.401  2.3606 -0.3116  0.4492
   38RES   H20015814   1.263   1.439   4.300 -1.4334 -0.0669 -1.1592
   38RES   H20115815   1.010   1.359   4.298 -1.8928 -3.1460  3.0940
   38RES   H20215816   1.076   1.207   4.358  2.7769 -1.0027  0.7380
   38RES   H20315817   1.212   1.230   4.131  0.1704 -0.0065 -2.5294
   38RES   H20415818   1.100   1.362   4.090 -1.6633 -0.0262  0.3026
   38RES   H20515819   0.998   1.085   4.167  0.6435 -0.4485 -0.1048
   38RES   H20615820   0.926   1.234   4.096 -0.4368 -0.0306  0.9644
   38RES   H20715821   1.140   1.072   3.955  1.8957  3.5321  0.4049
   38RES   H20815822   1.054   1.217   3.884  0.3618  0.6796 -0.6333
   38RES   H20915823   0.852   1.090   3.885  0.3094  0.2576  0.6329
   38RES   H21015824   0.932   0.950   3.936 -0.1274  0.5788  1.4987
   38RES   H21115825   0.967   1.012   3.778  0.5950 -1.4490  0.7218
   38RES   C21215826   1.166   1.437   4.497 -0.2761 -0.6891 -0.2228
   38RES   C21315827   1.253   1.559   4.546  0.8837  0.5156  0.7183
   38RES   C21415828   1.250   1.684   4.444  0.7412  0.3111 -0.3324
   38RES   C21515829   1.346   1.797   4.466 -0.0240  0.8312  0.3443
   38RES   C21615830   1.358   1.893   4.347  0.3467  0.1150 -0.0241
   38RES   C21715831   1.474   1.990   4.363 -0.7066  0.4571  0.1161
   38RES   C21815832   1.437   2.102   4.463  0.2725 -0.0669 -0.8622
   38RES   H21915833   1.148   1.371   4.582 -1.7473  0.4826  0.3864
   38RES   H22015834   1.066   1.476   4.479 -0.5928 -0.3615  2.1294
   38RES   H22115835   1.356   1.524   4.552  0.6634 -0.2768  0.0318
   38RES   H22215836   1.262   1.650   4.341 -1.1501 -1.7710  0.0687
   38RES   H22315837   1.150   1.727   4.438  0.2882 -0.5604  0.6780
   38RES   H22415838   1.449   1.763   4.479 -0.4291 -0.2429  0.8285
   38RES   H22515839   1.319   1.852   4.556 -0.3816 -1.5480  1.7215
   38RES   H22615840   1.381   1.829   4.262  0.7639  0.0998  0.0961
   38RES   H22715841   1.267   1.951   4.334  1.2364  1.2699 -1.2601
   38RES   H22815842   1.567   1.940   4.392 -0.3859  1.4031  0.7647
   38RES   H22915843   1.510   2.022   4.265  0.8962  2.0843  1.2016
   38RES   H23015844   1.528   2.162   4.465  0.6912 -0.6382 -2.1717
   38RES   H23115845   1.428   2.068   4.566 -0.6147 -0.7262 -1.1450
   38RES   H23215846   1.358   2.167   4.426  0.5348  1.3308  0.9968
   38RES   C23315847   1.226   1.587   4.696 -0.3520 -0.0663 -0.0148
   38RES   C23415848   1.325   1.678   4.771  0.1116  0.3832  0.2239
   38RES   C23515849   1.253   1.800   4.838  0.0497  0.8321  0.4589
   38RES   C23615850   1.347   1.923   4.841  0.7428 -0.3312 -0.5626
   38RES   C23715851   1.276   2.041   4.907 -0.6825  0.2025 -0.2718
   38RES   C23815852   1.338   2.180   4.906 -0.0970 -0.0868  0.6268
   38RES   C23915853   1.465   2.185   4.992  0.6234 -0.4543 -0.2711
   38RES   H24015854   1.224   1.493   4.751 -1.0010 -0.6406 -1.0107
   38RES   H24115855   1.128   1.628   4.721  0.7467  2.9349 -0.3732
   38RES   H24215856   1.405   1.716   4.707  0.5478  0.5201  0.8448
   38RES   H24315857   1.209   1.775   4.934 -2.3401  1.5641 -0.4094
   38RES   H24415858   1.168   1.828   4.775  1.0401  1.0364 -0.8070
   38RES   H24515859   1.375   1.966   4.745  0.1821 -0.6857 -0.8825
   38RES   H24615860   1.437   1.908   4.901  0.9736 -1.2747 -1.1314
   38RES   H24715861   1.256   2.018   5.011 -0.0096 -1.1809 -0.4318
   38RES   H24815862   1.180   2.052   4.858 -0.3927  0.5512 -0.7701
   38RES   H24915863   1.362   2.205   4.803  0.0935 -0.8441  0.4807
   38RES   H25015864   1.262   2.250   4.940  1.4496  1.7502  0.4136
   38RES   H25115865   1.523   2.274   4.969  1.3525 -1.0315 -0.7179
   38RES   H25215866   1.443   2.205   5.097  2.9698  0.9383 -0.0035
   38RES   H25315867   1.529   2.097   4.987 -0.5075 -1.2492 -0.9045
   38RES   C25415868   1.400   1.585   4.879 -0.1126  0.0846 -0.1588
   38RES   C25515869   1.494   1.478   4.824  0.2930  0.0160 -0.1404
   38RES   C25615870   1.519   1.374   4.938 -0.4095  0.6350 -0.3206
   38RES   C25715871   1.595   1.248   4.906  0.1253  0.8994  0.1498
   38RES   C25815872   1.607   1.164   5.026  0.2682 -0.0046  0.5429
   38RES   C25915873   1.698   1.044   5.004 -0.4819 -0.0422  0.0221
   38RES   C26015874   1.702   0.952   5.121  0.4246 -0.0746  0.2766
   38RES   H26115875   1.322   1.561   4.951  0.0893 -1.9367 -0.5932
   38RES   H26215876   1.462   1.658   4.932  1.8617 -1.0326 -0.8741
   38RES   H26315877   1.439   1.416   4.753  1.2546  0.1790 -1.0347
   38RES   H26415878   1.420   1.343   4.972 -0.1502  0.7680  0.5684
   38RES   H26515879   1.573   1.417   5.023 -0.6242 -1.6695  1.0358
   38RES   H26615880   1.563   1.186   4.823 -0.2591 -2.5222  2.7469
   38RES   H26715881   1.693   1.287   4.878  0.5962  0.0233  0.5601
   38RES   H26815882   1.510   1.122   5.055  0.6276 -1.0649  0.2448
   38RES   H26915883   1.647   1.216   5.113  1.1503 -0.8512  0.6531
   38RES   H27015884   1.667   0.992   4.913 -1.8082  0.1224  0.3701
   38RES   H27115885   1.800   1.078   4.982 -1.2553  2.2272 -0.1885
   38RES   H27215886   1.763   0.862   5.109 -0.6880 -0.7811 -0.1328
   38RES   H27315887   1.757   0.998   5.203  2.0377  1.5996 -1.6754
   38RES   H27415888   1.601   0.917   5.143  0.1043  0.8213  0.2609
   38RES   C27515889   1.622   1.531   4.758  0.0032  0.2080  0.0194
   38RES   C27615890   1.720   1.607   4.866  0.1480 -0.5521 -0.5040
   38RES   C27715891   1.710   1.770   4.855 -0.0373  0.1673 -0.8972
   38RES   C27815892   1.761   1.831   4.721  0.1172 -0.8073  0.6951
   38RES   C27915893   1.738   1.988   4.717  0.4141 -0.0693 -0.6151
   38RES   C28015894   1.840   2.069   4.633  0.0164 -0.3591 -0.0440
   38RES   C28115895   1.975   2.087   4.700 -0.0976  0.3977  0.3983
   38RES   H28215896   1.603   1.590   4.668 -2.3004  0.5927  0.7215
   38RES   H28315897   1.669   1.440   4.719 -1.5803 -0.5561 -0.1263
   38RES   H28415898   1.691   1.578   4.967  2.5035  2.1761  1.0361
   38RES   H28515899   1.609   1.801   4.881 -0.3020 -2.4161  1.3108
   38RES   H28615900   1.771   1.815   4.933 -2.4444  1.7121  0.1522
   38RES   H28715901   1.718   1.775   4.638  0.9428  0.0874 -0.3460
   38RES   H28815902   1.868   1.814   4.720  0.5867  1.9939 -0.2751
   38RES   H28915903   1.739   2.031   4.817  1.6185  0.3631 -0.8073
   38RES   H29015904   1.634   2.007   4.689 -0.1859 -1.5494  0.4916
   38RES   H29115905   1.855   2.025   4.535 -1.1437  1.0292 -0.8533
   38RES   H29215906   1.791   2.166   4.629  0.3215 -0.1677  0.7058
   38RES   H29315907   2.040   2.160   4.652  0.5518 -0.4395 -0.0053
   38RES   H29415908   2.035   1.996   4.711 -1.2064 -0.3465  0.3731
   38RES   H29515909   1.950   2.125   4.799 -0.2180  0.7716  0.2237
   38RES   C29615910   1.869   1.557   4.860  0.4901 -0.0533 -0.5929
   38RES   C29715911   1.948   1.554   4.997  0.2467 -0.5016  0.9825
   38RES   C29815912   2.105   1.570   4.985  0.1809  0.5558 -0.6185
   38RES   C29915913   2.157   1.716   4.990 -0.1923  0.2408 -0.3115
   38RES   C30015914   2.306   1.722   4.953 -0.0755 -0.0422 -0.0241
   38RES   C30115915   2.371   1.866   4.952  1.3531 -0.3500 -0.2756
   38RES   C30215916   2.520   1.843   4.956 -0.0324  0.2092  0.9009
   38RES   H30315917   1.875   1.455   4.822  1.0610 -1.1572  2.2949
   38RES   H30415918   1.926   1.620   4.793 -2.0099  2.3615 -0.5345
   38RES   H30515919   1.913   1.647   5.041 -0.6074  0.2002 -1.1179
   38RES   H30615920   2.161   1.519   5.064 -0.0440  0.0044 -0.8209
   38RES   H30715921   2.147   1.516   4.901  2.6638 -0.8154  1.4441
   38RES   H30815922   2.144   1.762   5.088  2.4019  1.2081 -0.3895
   38RES   H30915923   2.113   1.786   4.919  3.6468  2.4285 -0.6303
   38RES   H31015924   2.324   1.672   4.858 -0.1752  0.4130 -0.2881
   38RES   H31115925   2.361   1.659   5.022 -0.1698  0.7709  0.8077
   38RES   H31215926   2.343   1.922   4.863 -0.5853  1.1167  1.1945
   38RES   H31315927   2.344   1.932   5.035 -1.0068  0.1251 -1.3870
   38RES   H31415928   2.537   1.782   4.868 -0.8928 -1.6710  2.0064
   38RES   H31515929   2.569   1.941   4.957  1.3284 -0.4521  0.7525
   38RES   H31615930   2.556   1.799   5.049  0.8604  0.6992  0.8011
   38RES   C31715931   1.912   1.431   5.087 -0.0758 -0.8546 -0.0323
   38RES   C31815932   1.957   1.442   5.234 -0.1985 -0.1126  0.4942
   38RES   C31915933   1.847   1.528   5.316 -0.6365 -0.1421  0.1321
   38RES   C32015934   1.884   1.567   5.457 -0.3743  0.3511 -0.5307
   38RES   C32115935   1.790   1.673   5.529 -0.0394  0.1473  0.0174
   38RES   C32215936   1.658   1.600   5.569 -0.6956 -0.1743 -0.0923
   38RES   C32315937   1.663   1.523   5.699 -0.0194  0.3889 -0.3693
   38RES   H32415938   1.942   1.343   5.030  0.4065  1.3256 -3.3063
   38RES   H32515939   1.804   1.421   5.091 -0.2893 -1.1743 -4.3247
   38RES   H32615940   2.052   1.496   5.241  0.3072 -1.0343  0.8051
   38RES   H32715941   1.759   1.464   5.314 -0.9101  0.2353  0.0100
   38RES   H32815942   1.836   1.626   5.268 -1.4790  0.8956  2.3621
   38RES   H32915943   1.992   1.582   5.448 -0.3711  2.0701  1.9358
   38RES   H33015944   1.872   1.478   5.520  0.6543  0.7299  0.2307
   38RES   H33115945   1.761   1.746   5.453 -0.2872 -2.2011 -2.2160
   38RES   H33215946   1.830   1.719   5.619 -0.5130  0.0768  0.2681
   38RES   H33315947   1.605   1.549   5.489 -1.2194 -2.0553  1.4034
   38RES   H33415948   1.587   1.680   5.591  1.0251  1.6416 -0.9560
   38RES   H33515949   1.724   1.567   5.777 -0.3115 -0.4691  0.3456
   38RES   H33615950   1.718   1.435   5.666 -0.0684  0.7469 -1.4344
   38RES   H33715951   1.567   1.488   5.737 -0.1195 -0.7989 -1.6744
   38RES   C33815952   1.969   1.294   5.285 -0.0382  0.1921  0.1670
   38RES   C33915953   2.098   1.230   5.244 -0.6016  0.0309  0.5486
   38RES   C34015954   2.076   1.080   5.235  0.2021 -0.1533  0.4350
   38RES   C34115955   2.029   1.018   5.370  0.0874  0.7052  0.3713
   38RES   C34215956   2.070   0.870   5.389 -0.0288 -0.8347 -0.0894
   38RES   C34315957   1.984   0.798   5.491 -0.2102  0.4294 -0.5858
   38RES   C34415958   2.054   0.666   5.533 -0.1153 -0.2886  0.1611
   38RES   H34515959   1.878   1.241   5.256 -0.7820  0.7725  1.3946
   38RES   H34615960   1.964   1.291   5.394 -0.9205 -2.2970  0.0708
   38RES   H34715961   2.116   1.257   5.140  2.0952  1.1901  1.2577
   38RES   H34815962   2.012   1.056   5.150 -1.2670  3.1986  0.5250
   38RES   H34915963   2.171   1.034   5.206 -0.8686 -2.3261  0.2358
   38RES   H35015964   1.920   1.016   5.382 -0.1364  0.3200 -1.4544
   38RES   H35115965   2.066   1.078   5.453  0.1837  0.1069  0.7594
   38RES   H35215966   2.060   0.817   5.294 -0.9416 -1.0326  0.1081
   38RES   H35315967   2.172   0.866   5.427  0.2956 -0.4583 -0.9078
   38RES   H35415968   1.984   0.862   5.578 -1.8509 -0.2684 -0.0475
   38RES   H35515969   1.880   0.793   5.458 -0.2751  0.5019 -0.3861
   38RES   H35615970   2.001   0.639   5.624 -1.9187 -0.8526 -1.0145
   38RES   H35715971   2.160   0.676   5.556 -0.2561 -2.1823  1.7347
   38RES   H35815972   2.049   0.589   5.456 -0.5030 -0.5849  0.4869
   38RES   C35915973   2.220   1.276   5.327  1.0076  0.7706  0.8646
   38RES   C36015974   2.357   1.251   5.266 -0.4593 -0.3038  0.1103
   38RES   C36115975   2.408   1.372   5.174  0.3374 -0.1481 -0.4097
   38RES   C36215976   2.534   1.343   5.090  0.4977 -0.1884  0.0776
   38RES   C36315977   2.570   1.467   4.991  0.5454  0.0449 -0.0428
   38RES   C36415978   2.711   1.459   4.936  0.0822  0.4292  0.1702
   38RES   C36515979   2.735   1.559   4.817 -0.1262 -0.2959 -0.2432
   38RES   H36615980   2.216   1.226   5.423  0.9170 -0.5589  0.1715
   38RES   H36715981   2.209   1.379   5.361 -3.6171  0.3579  0.8362
   38RES   H36815982   2.346   1.169   5.195 -1.7977 -1.1628  1.2719
   38RES   H36915983   2.327   1.402   5.108 -1.2984 -0.2541  1.4935
   38RES   H37015984   2.430   1.464   5.228  2.5892 -0.8911 -0.0122
   38RES   H37115985   2.621   1.342   5.156 -2.0349  2.7587  3.6172
   38RES   H37215986   2.527   1.247   5.039  0.4470  0.3101 -0.8638
   38RES   H37315987   2.507   1.486   4.905  0.3974 -0.9425 -0.1537
   38RES   H37415988   2.555   1.559   5.048 -2.3270 -0.5433  0.1937
   38RES   H37515989   2.790   1.469   5.011  0.0779  1.5062  0.0440
   38RES   H37615990   2.733   1.365   4.886  0.8901  0.9975 -0.5670
   38RES   H37715991   2.837   1.552   4.780 -0.3680  1.0560 -1.1897
   38RES   H37815992   2.665   1.550   4.734  0.7343 -1.2653 -0.8733
   38RES   H37915993   2.737   1.662   4.853 -0.5735 -0.2340 -0.3907
   38RES   C38015994   2.462   1.203   5.374 -0.2128  0.1696  0.1653
   38RES   C38115995   2.469   1.052   5.397 -0.2887  0.1758  0.8316
   38RES   C38215996   2.541   0.990   5.281 -0.0951  0.3344 -1.1464
   38RES   C38315997   2.507   0.836   5.275  0.3762 -0.6239 -0.5538
   38RES   C38415998   2.605   0.773   5.164 -0.0814 -0.0830 -0.5063
   38RES   C38515999   2.605   0.621   5.161  0.0893  0.0172 -0.1967
   38RES   C38616000   2.650   0.564   5.299 -0.0023 -0.2656 -0.2127
   38RES   H38716001   2.561   1.232   5.339  0.6848  0.5824  2.9168
   38RES   H38816002   2.448   1.260   5.465  0.3901  0.0590  0.3291
   38RES   H38916003   2.377   0.996   5.414 -0.5522  0.3655  0.0390
   38RES   H39016004   2.647   1.011   5.287 -0.3778  1.4226  0.5022
   38RES   H39116005   2.507   1.030   5.186  1.3332  1.1119 -1.3322
   38RES   H39216006   2.537   0.795   5.371 -1.1782  1.1827  0.7271
   38RES   H39316007   2.399   0.820   5.273  0.3179 -0.8750  2.4834
   38RES   H39416008   2.573   0.801   5.063  0.5752  1.4378 -0.3036
   38RES   H39516009   2.702   0.822   5.160  0.2651 -0.4910  2.2640
   38RES   H39616010   2.672   0.578   5.086 -1.3116 -0.3036 -1.2816
   38RES   H39716011   2.512   0.582   5.119  0.2691 -1.4044  0.6923
   38RES   H39816012   2.669   0.457   5.284  0.5100 -0.1662 -0.2716
   38RES   H39916013   2.573   0.571   5.376 -0.3729  0.7121 -0.6695
   38RES   H40016014   2.736   0.611   5.346 -1.0934 -0.6681  2.2488
   38RES   C40116015   2.545   1.026   5.526 -0.3090  0.6589  0.5435
   38RES   C40216016   2.460   1.053   5.650 -0.4448  0.4700  0.3776
   38RES   C40316017   2.383   0.938   5.710 -0.6779  0.5547 -0.4375
   38RES   C40416018   2.323   0.976   5.849 -0.3841  0.5821 -0.0780
   38RES   C40516019   2.230   0.870   5.893  0.1702  0.4412  0.6716
   38RES   C40616020   2.201   0.871   6.043 -0.2964 -0.0493  0.4674
   38RES   C40716021   2.132   0.734   6.077 -0.1822  0.7420 -0.3842
   38RES   H40816022   2.635   1.089   5.523  0.0760  0.0492 -1.9697
   38RES   H40916023   2.584   0.925   5.539 -0.7743  0.5581  1.1402
   38RES   H41016024   2.387   1.131   5.629 -1.8444 -1.1258 -0.8471
   38RES   H41116025   2.450   0.855   5.736 -1.1904  0.0260 -0.7920
   38RES   H41216026   2.308   0.899   5.641 -0.8775 -1.3922  0.8304
   38RES   H41316027   2.268   1.070   5.858 -1.8127 -0.0826 -1.6112
   38RES   H41416028   2.405   0.987   5.920 -1.2014 -0.1556  0.9925
   38RES   H41516029   2.141   0.869   5.831 -0.6519  1.1438  1.8112
   38RES   H41616030   2.280   0.773   5.885 -1.8248 -0.4522 -1.7630
   38RES   H41716031   2.289   0.875   6.107  1.8643  2.1572 -2.5074
   38RES   H41816032   2.130   0.949   6.072 -0.1666  0.2730 -0.0865
   38RES   H41916033   2.026   0.734   6.052 -0.9460  1.2121  2.6611
   38RES   H42016034   2.136   0.708   6.183 -0.8350  1.1924 -0.2500
   38RES   H42116035   2.174   0.646   6.028  1.0967  0.6946  0.7525
   38RES   H42216036   2.529   1.091   5.725 -0.6789 -1.7748  1.7894
   39RES     C116037   4.578   3.638   7.277  0.4836  0.0664 -0.1754
   39RES     C216038   4.664   3.510   7.312  0.1702  0.4717  0.9736
   39RES     C316039   4.612   3.447   7.449  0.3394  0.4541 -0.4827
   39RES     C416040   4.689   3.321   7.480 -0.0647  0.0004 -0.2464
   39RES     C516041   4.620   3.233   7.583 -0.3101 -0.5290 -0.2549
   39RES     C616042   4.722   3.119   7.619 -0.1963 -0.0968 -0.1821
   39RES     C716043   4.670   3.020   7.720 -0.2970  0.1249  0.8613
   39RES     H816044   4.575   3.659   7.170  1.8556  1.2160  0.0061
   39RES     H916045   4.596   3.725   7.339  0.6192 -0.0245 -0.0871
   39RES    H1016046   4.647   3.439   7.231 -0.8040  1.1511  0.5671
   39RES    H1116047   4.635   3.516   7.531 -0.9534 -0.7950  0.9774
   39RES    H1216048   4.505   3.428   7.462  0.5250 -0.5419 -0.3964
   39RES    H1316049   4.700   3.258   7.392 -0.5183 -0.1388 -0.2017
   39RES    H1416050   4.786   3.343   7.525 -1.1491 -0.8503  2.6112
   39RES    H1516051   4.530   3.196   7.533 -0.1713 -0.0730 -0.8469
   39RES    H1616052   4.599   3.297   7.669  3.2068  0.9780 -0.4415
   39RES    H1716053   4.819   3.149   7.659  0.1754  0.1669 -1.2536
   39RES    H1816054   4.751   3.069   7.527 -0.9913 -1.3823  0.2598
   39RES    H1916055   4.730   2.929   0.003 -0.7640 -0.0044  2.9188
   39RES    H2016056   4.563   3.000   7.713 -0.0883 -0.7238 -0.0039
   39RES    H2116057   4.669   3.067   0.092 -3.3668 -0.6185  1.2338
   39RES    H2216058   4.473   3.620   7.299  1.4017 -0.5358  4.1015
   39RES    C2316059   4.812   3.543   7.318 -0.6941  0.3982 -0.7739
   39RES    C2416060   4.865   3.616   7.196  1.0390 -0.3194  0.2048
   39RES    C2516061   4.856   3.535   7.060  0.5391 -0.3616 -0.0170
   39RES    C2616062   4.823   3.621   6.933 -0.1889 -0.3600  0.1553
   39RES    C2716063   4.843   3.555   6.797  0.4722  0.0902  0.4791
   39RES    C2816064   4.740   3.441   6.767  0.3194  0.6776  0.2880
   39RES    C2916065   4.601   3.494   6.715  0.7263 -0.5429  0.6745
   39RES    H3016066   4.832   3.592   7.413  2.3601 -0.7521 -0.7471
   39RES    H3116067   4.867   3.448   7.320 -3.4596 -1.2479 -0.5647
   39RES    H3216068   4.800   3.702   7.178 -0.0917 -0.8028  1.8794
   39RES    H3316069   4.786   3.452   7.062 -1.1738  1.0495  0.0657
   39RES    H3416070   4.941   3.468   7.054  1.0206  0.1544  0.9472
   39RES    H3516071   4.884   3.711   6.946 -3.9138  2.1705  1.0988
   39RES    H3616072   4.723   3.663   6.929 -0.4695 -1.0999 -0.6927
   39RES    H3716073   4.942   3.514   6.778 -0.2075 -0.9041 -0.9975
   39RES    H3816074   4.827   3.638   6.728 -0.0454  1.2039  1.9044
   39RES    H3916075   4.727   3.386   6.861 -1.8017  0.8082  0.0800
   39RES    H4016076   4.787   3.375   6.694 -0.7048 -1.2562  1.3354
   39RES    H4116077   4.534   3.411   6.693 -1.2649  0.4076  3.0166
   39RES    H4216078   4.558   3.569   6.781  0.2377 -0.4193  0.2170
   39RES    H4316079   4.618   3.548   6.621 -0.3622 -0.2296  0.6464
   39RES    C4416080   5.014   3.661   7.226  0.3050  0.8253 -0.0532
   39RES    C4516081   5.013   3.786   7.318 -0.0773  0.7794  0.1115
   39RES    C4616082   5.137   3.789   7.405  0.7658 -0.3546  0.2742
   39RES    C4716083   5.140   3.674   7.517  0.2762  0.5447  0.8495
   39RES    C4816084   5.249   3.700   7.621  0.0288  0.3031  0.1789
   39RES    C4916085   5.202   3.800   7.723  0.2207  0.3136 -0.3395
   39RES    C5016086   5.310   3.824   0.109  0.6637  0.1741  0.1096
   39RES    H5116087   5.062   3.685   7.130  3.6872 -0.9108  1.1110
   39RES    H5216088   5.074   3.579   7.264 -2.6085 -0.9976  0.7219
   39RES    H5316089   4.928   3.783   7.386 -0.7716  0.5633 -0.7411
   39RES    H5416090   5.135   3.881   7.463 -1.6373 -0.5218  0.5108
   39RES    H5516091   5.230   3.790   7.348  0.5616 -0.6901 -0.0695
   39RES    H5616092   5.045   3.649   7.563 -1.1962 -0.3631 -2.5292
   39RES    H5716093   5.166   3.583   7.463 -0.3919  0.0865  1.2974
   39RES    H5816094   5.341   3.718   7.566  1.8877 -4.1352  1.6121
   39RES    H5916095   5.262   3.602   7.666  0.6418 -0.2184 -1.0979
   39RES    H6016096   5.112   3.758   0.041  1.2044  0.4523  1.8329
   39RES    H6116097   5.177   3.894   7.673 -0.0407 -0.0728 -0.9383
   39RES    H6216098   5.331   3.743   0.179 -1.6514 -0.6451 -0.0789
   39RES    H6316099   5.264   3.909   0.159 -0.6793 -0.5551  0.1443
   39RES    H6416100   5.401   3.854   0.057 -0.7341  1.1401 -1.8621
   39RES    C6516101   5.001   3.909   7.235  0.6932  0.2046 -1.3078
   39RES    C6616102   4.935   4.025   7.317  0.2884 -0.7438 -0.5707
   39RES    C6716103   4.781   4.004   7.329 -0.4653  0.1697  0.1723
   39RES    C6816104   4.706   4.101   7.414  0.0682 -0.5357 -0.1038
   39RES    C6916105   4.560   4.058   7.446  0.0746  0.0529 -0.4173
   39RES    C7016106   4.481   4.170   7.510 -0.3786 -0.7994  0.1149
   39RES    C7116107   4.552   4.222   7.635 -0.1057  0.0698 -0.1215
   39RES    H7216108   5.096   3.930   7.185  0.1535 -2.2519 -3.5164
   39RES    H7316109   4.936   3.909   7.147 -0.3816  0.1027 -0.5221
   39RES    H7416110   4.970   4.020   7.420 -0.9629  0.6141 -0.0577
   39RES    H7516111   4.739   4.011   7.229 -4.3438 -0.2528  1.6610
   39RES    H7616112   4.758   3.900   7.354 -0.3211 -0.7146 -3.1981
   39RES    H7716113   4.758   4.100   7.510  1.2051 -1.4723 -0.7031
   39RES    H7816114   4.708   4.196   7.361 -0.1798 -1.3483 -1.5852
   39RES    H7916115   4.520   4.021   7.352 -0.6568  2.1316 -0.9552
   39RES    H8016116   4.554   3.973   7.514 -2.1097  0.4834 -0.0341
   39RES    H8116117   4.378   4.149   7.539 -0.9142 -0.5605 -1.5598
   39RES    H8216118   4.466   4.253   7.441 -0.4483  1.1050  2.4061
   39RES    H8316119   4.645   4.277   7.623  0.4909 -0.6362  1.1268
   39RES    H8416120   4.491   4.294   7.690  1.5788 -0.3168  2.3548
   39RES    H8516121   4.571   4.146   7.711  1.4981  0.1369 -0.4238
   39RES    C8616122   4.976   4.161   7.261 -0.3370  0.0409  0.1029
   39RES    C8716123   5.002   4.265   7.374 -0.4460  0.4989 -0.0504
   39RES    C8816124   5.134   4.234   7.456 -0.4940 -0.3617 -0.5589
   39RES    C8916125   5.260   4.250   7.367 -0.5223  0.0201  0.0932
   39RES    C9016126   5.394   4.185   7.407  0.1745 -0.3453  0.2038
   39RES    C9116127   5.383   4.032   7.409  0.6792  0.3086 -0.0340
   39RES    C9216128   5.523   3.979   7.438 -0.1571 -0.4028 -0.3608
   39RES    H9316129   5.052   4.159   7.184 -1.4924 -2.3370 -1.0166
   39RES    H9416130   4.880   4.191   7.219 -0.0005 -0.6659 -1.1736
   39RES    H9516131   4.922   4.248   7.446  0.1780  1.4854  0.9023
   39RES    H9616132   5.157   4.300   7.539 -2.3869  0.8904 -0.9985
   39RES    H9716133   5.128   4.131   7.492  1.0310 -0.5376 -0.7866
   39RES    H9816134   5.241   4.203   7.271  0.9411  2.5917 -1.5026
   39RES    H9916135   5.282   4.355   7.349  3.1061 -0.2944  2.1398
   39RES   H10016136   5.437   4.236   7.493  1.8492 -0.8952 -0.2971
   39RES   H10116137   5.471   4.210   7.335 -1.4139  0.9460 -1.1074
   39RES   H10216138   5.325   3.998   7.496  0.7881  2.5609  0.9690
   39RES   H10316139   5.333   3.980   7.327 -1.2449 -0.2335  1.4230
   39RES   H10416140   5.582   4.002   7.350  1.1542  1.6231  1.0088
   39RES   H10516141   5.507   3.874   7.462 -0.1833  0.1599  2.1756
   39RES   H10616142   5.562   4.037   7.521 -1.0915 -1.6273  0.9565
   39RES   C10716143   4.982   4.409   7.329  0.2077 -0.4404  0.7844
   39RES   C10816144   4.974   4.511   7.447  0.5512 -0.1935  0.4195
   39RES   C10916145   5.011   4.655   7.386 -0.1575 -0.2102  0.6735
   39RES   C11016146   4.900   4.716   7.300 -0.0216 -0.4629 -0.4721
   39RES   C11116147   4.945   4.827   7.209  0.1653  0.4194 -0.4190
   39RES   C11216148   4.825   4.910   7.161  0.4593 -0.1341 -0.3587
   39RES   C11316149   4.862   5.024   7.066  0.4012  0.0296 -0.6117
   39RES   H11416150   4.888   4.412   7.274  0.2469  2.0851  0.7934
   39RES   H11516151   5.069   4.434   7.269  0.0830 -1.0597  0.3376
   39RES   H11616152   5.060   4.490   7.511  0.5704 -1.0416  0.1220
   39RES   H11716153   5.102   4.644   7.327  0.3306 -1.6013  1.6627
   39RES   H11816154   5.039   4.725   7.465 -3.1197  2.8071 -0.8279
   39RES   H11916155   4.865   4.636   7.235  2.9884 -1.4846 -0.9096
   39RES   H12016156   4.809   4.734   7.356 -1.3118 -0.9033 -2.3890
   39RES   H12116157   5.013   4.787   7.134 -0.1404 -1.6872  0.4002
   39RES   H12216158   5.011   4.890   7.270  0.9840  0.5796 -1.4544
   39RES   H12316159   4.760   4.846   7.102 -0.3922 -1.2714  1.7683
   39RES   H12416160   4.758   4.951   7.236 -1.0718 -0.6275 -1.4349
   39RES   H12516161   4.920   5.106   7.107  1.3401  0.1692 -2.1594
   39RES   H12616162   4.907   4.999   6.969  2.2462 -0.5536  0.3736
   39RES   H12716163   4.774   5.080   7.037  1.5116  2.3998  0.4441
   39RES   C12816164   4.834   4.508   7.516 -0.1023 -0.2011 -0.1916
   39RES   C12916165   4.828   4.577   7.654  0.0398 -0.5284 -0.2176
   39RES   C13016166   4.932   4.524   0.027  0.2569  0.4722 -0.1293
   39RES   C13116167   4.937   4.366   0.054  0.4441 -0.3645  0.4706
   39RES   C13216168   5.053   4.334   0.147  0.6765  0.0472 -0.3798
   39RES   C13316169   5.076   4.185   0.182 -0.3416  0.4408  0.7248
   39RES   C13416170   5.180   4.175   0.290 -0.9484 -0.0422  0.1455
   39RES   H13516171   4.752   4.544   7.453  1.2634 -0.9085 -2.4290
   39RES   H13616172   4.821   4.403   7.543  0.6628 -0.1486  0.3849
   39RES   H13716173   4.846   4.683   7.639 -2.2436  0.1455  1.4978
   39RES   H13816174   4.914   4.580   0.119 -2.8834 -0.9984  0.2124
   39RES   H13916175   5.026   4.557   7.709  0.5003  0.3452  0.2870
   39RES   H14016176   4.945   4.310   7.687  1.1266  0.6146 -0.0710
   39RES   H14116177   4.845   4.338   0.104  0.2176 -2.1963 -0.9285
   39RES   H14216178   5.036   4.381   0.244  1.6898 -1.1276  0.3982
   39RES   H14316179   5.147   4.369   0.105  0.8269 -1.5200 -1.3954
   39RES   H14416180   5.121   4.131   0.099  0.3064  1.1946  0.5854
   39RES   H14516181   4.976   4.147   0.206 -0.4760  0.8994  0.9022
   39RES   H14616182   5.214   4.072   0.302 -0.3115  0.0441 -0.8512
   39RES   H14716183   5.150   4.220   0.385  0.1463 -2.0882  1.4985
   39RES   H14816184   5.271   4.230   0.269 -0.8819  0.7111  2.3132
   39RES   C14916185   4.682   4.556   7.709  0.0200 -0.5877 -0.2976
   39RES   C15016186   4.611   4.676   0.053  0.1994  0.2714 -0.2635
   39RES   C15116187   4.550   4.779   7.680 -0.3217  0.3247  0.4669
   39RES   C15216188   4.451   4.879   0.018 -0.5321 -0.2322  0.3803
   39RES   C15316189   4.395   4.979   7.634  0.1390 -0.0502 -0.2148
   39RES   C15416190   4.314   5.101   7.693 -0.1320 -0.3668 -0.3512
   39RES   C15516191   4.389   5.203   0.041 -0.0114  0.0555 -0.1479
   39RES   H15616192   4.607   4.535   7.632  0.5822 -1.6457 -0.5728
   39RES   H15716193   4.682   4.467   0.045  0.4456 -2.2877 -2.6248
   39RES   H15816194   4.516   4.638   0.089  0.2121  0.7638  0.2993
   39RES   H15916195   4.634   4.831   7.635 -1.3490  1.8297  0.2350
   39RES   H16016196   4.495   4.727   7.601 -0.4866  1.1473  0.0384
   39RES   H16116197   4.508   4.944   0.084  0.9545 -1.2969  0.1686
   39RES   H16216198   4.368   4.839   0.076 -0.0876 -2.1091 -0.2476
   39RES   H16316199   4.336   4.931   7.556 -0.8942 -0.5139  0.8379
   39RES   H16416200   4.471   5.036   7.581 -1.1667  1.6657 -0.2543
   39RES   H16516201   4.240   5.055   0.032  0.9261 -0.0043  1.1151
   39RES   H16616202   4.266   5.153   7.610 -1.3756  0.4084  0.8289
   39RES   H16716203   4.330   5.292   0.064  0.3263  0.4694 -0.8407
   39RES   H16816204   4.474   5.233   7.706 -0.4003  2.8480  0.6233
   39RES   H16916205   4.431   5.167   0.135 -0.3715 -0.6673 -0.2621
   39RES   C17016206   4.691   4.743   0.171 -0.2023 -0.0881 -0.1736
   39RES   C17116207   4.723   4.640   0.286  0.4947  0.0206 -0.0681
   39RES   C17216208   4.833   4.688   0.379  0.0922 -0.0797 -0.3490
   39RES   C17316209   4.805   4.816   0.474 -0.5631 -0.1910  0.0480
   39RES   C17416210   4.945   4.861   0.524  0.1808 -0.1772  0.0223
   39RES   C17516211   4.939   4.976   0.624  0.9102  0.1285 -0.0161
   39RES   C17616212   4.914   5.106   0.548  0.8420  0.2266  0.6004
   39RES   H17716213   4.636   4.827   0.213  0.2263  0.6043 -0.9844
   39RES   H17816214   4.787   4.782   0.138  0.1584  1.3790  2.4565
   39RES   H17916215   4.762   4.548   0.244 -1.6824 -1.3448  0.8520
   39RES   H18016216   4.926   4.704   0.325 -0.3905  2.0677 -0.5797
   39RES   H18116217   4.849   4.601   0.442  1.4582  0.2013 -0.2957
   39RES   H18216218   4.743   4.778   0.556  2.0573 -0.4684  1.9669
   39RES   H18316219   4.763   4.892   0.409  2.0099  0.3070 -1.0861
   39RES   H18416220   5.000   4.894   0.436 -1.4754 -1.6106 -1.5751
   39RES   H18516221   4.994   4.781   0.579  1.3287 -0.0108 -0.7553
   39RES   H18616222   5.035   4.972   0.677  1.4291  0.1048 -0.9501
   39RES   H18716223   4.858   4.973   0.696  2.3253  2.2758  1.7611
   39RES   H18816224   4.958   5.192   0.599 -0.5212  0.3135  1.6568
   39RES   H18916225   4.810   5.120   0.519  0.9193  0.3275  0.3760
   39RES   H19016226   4.971   5.102   0.455  1.0608 -1.7867  0.7901
   39RES   C19116227   4.594   4.623   0.369  0.4210  1.1641 -0.0017
   39RES   C19216228   4.584   4.487   0.454 -0.6271 -0.1592 -0.4176
   39RES   C19316229   4.478   4.481   0.558  0.5362 -0.3443 -0.1782
   39RES   C19416230   4.472   4.603   0.648  0.0944 -0.4731 -0.5850
   39RES   C19516231   4.395   4.583   0.786 -0.2420 -0.2151 -0.1572
   39RES   C19616232   4.392   4.717   0.868 -0.3350  0.2896  0.4918
   39RES   C19716233   4.519   4.796   0.910  0.2609  0.5337 -0.3058
   39RES   H19816234   4.503   4.626   0.309 -0.6209 -3.2390  1.1682
   39RES   H19916235   4.572   4.712   0.428  1.1443  2.1715 -1.2091
   39RES   H20016236   4.675   4.468   0.510 -1.3180  1.4011  1.2904
   39RES   H20116237   4.498   4.394   0.620  2.8345  0.1321 -0.2158
   39RES   H20216238   4.381   4.470   0.511  0.2554 -0.4744  0.4275
   39RES   H20316239   4.417   4.686   0.604 -0.7543 -0.3119  0.7238
   39RES   H20416240   4.571   4.642   0.669 -1.0620  0.3547  3.8968
   39RES   H20516241   4.294   4.555   0.755 -0.9200 -0.0006  1.7923
   39RES   H20616242   4.431   4.502   0.851  1.0798 -0.1396 -0.7763
   39RES   H20716243   4.330   4.693   0.954 -1.0546  2.0723  0.4923
   39RES   H20816244   4.326   4.786   0.815  1.0195  2.4347  1.5271
   39RES   H20916245   4.487   4.883   0.967  0.3331 -1.0487  2.2813
   39RES   H21016246   4.563   4.839   0.821 -1.3113  0.9817 -0.8778
   39RES   H21116247   4.574   4.722   0.969  1.3318  1.0981 -0.5839
   39RES   C21216248   4.562   4.367   0.359  0.7711  0.5412 -0.6956
   39RES   C21316249   4.584   4.229   0.408 -0.2958 -0.1390 -0.0822
   39RES   C21416250   4.510   4.123   0.321  0.0007  0.3825 -0.5354
   39RES   C21516251   4.361   4.142   0.312  0.3379  0.3756  0.3411
   39RES   C21616252   4.298   4.023   0.244  0.0999  0.8374 -0.0555
   39RES   C21716253   4.141   4.033   0.223  0.3703  0.2346  0.2262
   39RES   C21816254   4.048   4.036   0.341  0.4110 -0.3237  0.1172
   39RES   H21916255   4.604   4.383   0.260 -0.8144 -0.4746 -1.5492
   39RES   H22016256   4.459   4.382   0.328  0.1543  0.4869  1.2413
   39RES   H22116257   4.543   4.217   0.509  0.2819  0.3193  0.2076
   39RES   H22216258   4.543   4.145   0.220 -1.0366 -1.7027 -1.3655
   39RES   H22316259   4.541   4.018   0.326  0.5020  0.6237  1.5913
   39RES   H22416260   4.340   4.221   0.240  1.7791 -0.2438 -0.7948
   39RES   H22516261   4.304   4.169   0.400  1.8989  2.1896  0.8319
   39RES   H22616262   4.348   4.004   0.149  1.4946 -1.1223  1.0413
   39RES   H22716263   4.319   3.942   0.313 -2.2522  0.1589 -0.1094
   39RES   H22816264   4.111   4.116   0.159  2.1673  0.4457 -0.3750
   39RES   H22916265   4.111   3.949   0.161  0.5140 -1.4555  2.3877
   39RES   H23016266   4.030   4.140   0.370  2.2566  0.2926 -0.8526
   39RES   H23116267   4.069   3.969   0.424 -0.9599 -1.2742 -0.2937
   39RES   H23216268   3.948   4.004   0.313 -0.0362  1.1455 -0.0440
   39RES   C23316269   4.736   4.195   0.410  0.7345  0.4290  0.4618
   39RES   C23416270   4.776   4.112   0.537  0.1120  0.3060 -0.1017
   39RES   C23516271   4.897   4.020   0.510 -0.4939 -0.3882 -0.3583
   39RES   C23616272   4.870   3.900   0.420  0.0461  0.2122  0.4525
   39RES   C23716273   4.995   3.811   0.394 -0.3287 -0.3588  0.4645
   39RES   C23816274   5.016   3.684   0.486  0.1773  0.8047 -0.2956
   39RES   C23916275   5.141   3.609   0.418 -0.1165 -0.0771  0.0176
   39RES   H24016276   4.802   4.281   0.397  0.6431  0.4494  0.1414
   39RES   H24116277   4.758   4.143   0.317  1.6764  1.0859  0.3150
   39RES   H24216278   4.694   4.044   0.560  0.9724 -1.4407 -2.0038
   39RES   H24316279   4.940   3.988   0.605  0.6026  1.6414 -0.1252
   39RES   H24416280   4.966   4.086   0.456 -2.0738  1.7201  0.1335
   39RES   H24516281   4.826   3.935   0.327 -0.2343 -1.0195  0.1087
   39RES   H24616282   4.796   3.839   0.472  0.4534  0.3028  1.1485
   39RES   H24716283   5.089   3.867   0.398  0.6420 -1.8283 -0.9981
   39RES   H24816284   4.988   3.791   0.287  2.1789  1.4200 -0.0898
   39RES   H24916285   5.022   3.722   0.588 -0.2588  2.3246 -0.8215
   39RES   H25016286   4.927   3.623   0.474  2.0662 -1.9267 -0.8342
   39RES   H25116287   5.154   3.508   0.456 -0.7596  0.0126  0.4839
   39RES   H25216288   5.125   3.596   0.311 -0.2230  0.6376 -0.0561
   39RES   H25316289   5.233   3.668   0.417 -0.3909  0.3454 -0.2131
   39RES   C25416290   4.803   4.200   0.656  0.1684  0.0933 -0.5393
   39RES   C25516291   4.707   4.205   0.773 -0.2031 -0.0640 -0.1761
   39RES   C25616292   4.725   4.329   0.872  0.1839  0.1542  0.3802
   39RES   C25716293   4.869   4.360   0.919  0.5725 -0.4739  0.2308
   39RES   C25816294   4.881   4.497   0.994 -0.4393  0.0218  0.1842
   39RES   C25916295   4.902   4.619   0.900  0.8913 -0.6547  0.0833
   39RES   C26016296   4.963   4.752   0.957 -0.4729  0.0496  0.0154
   39RES   H26116297   4.804   4.303   0.620  0.0728  0.2735 -0.0403
   39RES   H26216298   4.909   4.194   0.682  0.6820  1.2236 -2.2848
   39RES   H26316299   4.609   4.202   0.725  0.0463 -1.8552 -0.6157
   39RES   H26416300   4.652   4.332   0.953 -1.6635  1.4233 -1.3077
   39RES   H26516301   4.685   4.416   0.820  1.4637  0.6613  0.2100
   39RES   H26616302   4.897   4.275   0.982  1.2732 -0.3743  0.0600
   39RES   H26716303   4.938   4.361   0.834  1.6096  1.7376  1.0597
   39RES   H26816304   4.970   4.494   1.057 -1.0586 -1.9735  0.9855
   39RES   H26916305   4.803   4.506   1.070 -0.4464 -0.2378  0.2081
   39RES   H27016306   4.967   4.590   0.817 -0.3523 -0.7735 -0.8566
   39RES   H27116307   4.807   4.647   0.855  0.8841  0.6024  0.8544
   39RES   H27216308   4.967   4.841   0.894  0.1372 -1.3969 -2.0433
   39RES   H27316309   4.907   4.784   1.045 -2.8655  1.5114 -1.9649
   39RES   H27416310   5.063   4.736   0.995 -0.4484 -0.6300 -0.3334
   39RES   C27516311   4.703   4.068   0.845  0.4228  0.1064  0.4555
   39RES   C27616312   4.570   4.016   0.896  0.4733  0.3706  0.1592
   39RES   C27716313   4.582   3.946   1.035 -0.2377  0.1261  0.7278
   39RES   C27816314   4.605   4.037   1.151 -0.5269 -0.0645 -0.7302
   39RES   C27916315   4.602   3.973   1.295  0.5019 -0.2230  0.2628
   39RES   C28016316   4.705   3.869   1.307 -0.0416  0.1953 -0.1088
   39RES   C28116317   4.728   3.808   1.448  0.3352  0.0647 -0.7397
   39RES   H28216318   4.775   4.081   0.926 -0.6252  1.7375  1.1615
   39RES   H28316319   4.745   3.996   0.776 -1.2978 -0.5543  0.0813
   39RES   H28416320   4.502   4.098   0.919 -1.7198 -1.1446 -0.7788
   39RES   H28516321   4.489   3.897   1.062 -0.7746  0.8428  0.2102
   39RES   H28616322   4.663   3.873   1.035 -0.6752 -0.3555  0.7655
   39RES   H28716323   4.534   4.119   1.155  1.6100  1.8062  0.0092
   39RES   H28816324   4.706   4.078   1.142 -0.6949  1.2495  2.5416
   39RES   H28916325   4.510   3.926   1.327  0.9162  0.1411  2.0614
   39RES   H29016326   4.611   4.056   1.365  1.6249 -0.2726  0.1920
   39RES   H29116327   4.683   3.788   1.237 -1.4393 -1.4593  2.1634
   39RES   H29216328   4.799   3.914   1.277 -0.5707  0.7857 -0.8868
   39RES   H29316329   4.789   3.719   1.440  0.1877 -0.1487  0.4564
   39RES   H29416330   4.635   3.765   1.487  0.0312 -1.1235 -2.7032
   39RES   H29516331   4.756   3.871   1.532 -0.4627 -2.3436  1.3955
   39RES   C29616332   4.495   3.931   0.791 -0.3794 -0.0357 -0.3142
   39RES   C29716333   4.341   3.959   0.793 -0.1166 -0.6594 -0.3571
   39RES   C29816334   4.266   3.840   0.721 -0.4743  0.0543 -0.4915
   39RES   C29916335   4.286   3.692   0.771  0.2805 -0.3510  0.5413
   39RES   C30016336   4.190   3.586   0.710 -0.5318  0.1351 -0.1009
   39RES   C30116337   4.226   3.557   0.561 -0.1450 -0.7442 -0.5476
   39RES   C30216338   4.129   3.459   0.495 -0.1537  0.1958  0.3311
   39RES   H30316339   4.541   3.948   0.694  0.6257 -1.7191 -0.1535
   39RES   H30416340   4.523   3.831   0.822 -1.0392  0.4104  1.8287
   39RES   H30516341   4.310   3.950   0.897  1.5602  1.5426  0.3654
   39RES   H30616342   4.159   3.849   0.739 -0.3156  0.3754  0.2949
   39RES   H30716343   4.282   3.842   0.613  1.5303  0.5457 -0.2009
   39RES   H30816344   4.278   3.695   0.879 -0.6532 -0.4649  0.4841
   39RES   H30916345   4.389   3.662   0.752  0.2812 -0.9183  1.4605
   39RES   H31016346   4.087   3.619   0.721 -0.6379  0.3652 -1.6656
   39RES   H31116347   4.199   3.501   0.777  2.6442  1.2188  0.9260
   39RES   H31216348   4.218   3.648   0.500  1.1281  2.3203  3.6338
   39RES   H31316349   4.326   3.517   0.548  0.6217  1.4856 -1.9952
   39RES   H31416350   4.031   3.506   0.481 -0.5124 -0.7267 -0.2991
   39RES   H31516351   4.166   3.437   0.395 -1.7189  2.0583 -0.7059
   39RES   H31616352   4.121   3.362   0.544 -3.9957  0.6782  0.8350
   39RES   C31716353   4.303   4.095   0.737 -0.4310 -0.1543  0.2558
   39RES   C31816354   4.161   4.141   0.794 -0.0331  0.0988 -0.7048
   39RES   C31916355   4.166   4.174   0.948  0.6508  1.0926 -0.0403
   39RES   C32016356   4.271   4.280   0.989 -0.2800 -0.7200 -0.2493
   39RES   C32116357   4.264   4.305   1.144 -0.4395  0.1619  0.5712
   39RES   C32216358   4.300   4.447   1.176 -0.2948  0.4820 -0.3005
   39RES   C32316359   4.309   4.472   1.323 -0.2073 -0.4969 -0.1717
   39RES   H32416360   4.314   4.084   0.629 -1.2800  0.6594  0.0763
   39RES   H32516361   4.377   4.175   0.740 -0.0344 -0.4942 -0.4080
   39RES   H32616362   4.094   4.057   0.776  0.1007  0.0773 -1.1014
   39RES   H32716363   4.191   4.081   0.998 -0.8752  0.2016 -0.9034
   39RES   H32816364   4.065   4.206   0.975  0.6505  0.8069  0.2896
   39RES   H32916365   4.243   4.368   0.931 -1.8443 -0.2882  1.1369
   39RES   H33016366   4.377   4.266   0.972 -0.1239 -1.8182  1.5198
   39RES   H33116367   4.326   4.233   1.197  0.5315  0.3387 -0.3135
   39RES   H33216368   4.161   4.295   1.179 -0.7067 -0.2518 -0.3060
   39RES   H33316369   4.226   4.512   1.129 -0.5199  2.2928  2.4390
   39RES   H33416370   4.394   4.477   1.128 -0.7726 -0.9672 -2.2266
   39RES   H33516371   4.400   4.434   1.369  0.2052  0.0766 -0.5207
   39RES   H33616372   4.225   4.424   1.374 -1.3829  1.3327 -0.3226
   39RES   H33716373   4.299   4.578   1.345  0.3832 -0.5204  0.2157
   39RES   C33816374   4.116   4.253   0.697  0.2095 -0.3432  0.4156
   39RES   C33916375   3.984   4.318   0.715  0.2416 -0.0872 -0.2357
   39RES   C34016376   3.875   4.205   0.724 -1.1707 -0.7029 -0.5620
   39RES   C34116377   3.839   4.125   0.599 -0.2632 -0.4911 -0.6410
   39RES   C34216378   3.717   4.025   0.613 -0.4463  0.1183  0.3891
   39RES   C34316379   3.739   3.899   0.690 -1.1546  0.4332  0.2872
   39RES   C34416380   3.859   3.820   0.647 -0.4211 -0.2801  0.2342
   39RES   H34516381   4.118   4.210   0.597  1.1965 -0.5909  0.5340
   39RES   H34616382   4.187   4.335   0.706  0.9036 -0.3531 -3.8629
   39RES   H34716383   3.987   4.365   0.813 -1.3740  0.3622 -0.3859
   39RES   H34816384   3.911   4.142   0.805  0.6790 -1.6535 -2.0565
   39RES   H34916385   3.789   4.250   0.772 -0.1956  1.1927 -0.5494
   39RES   H35016386   3.928   4.063   0.583 -0.4785 -0.4354 -2.1667
   39RES   H35116387   3.837   4.191   0.512  0.9344 -0.0279 -0.3318
   39RES   H35216388   3.627   4.074   0.649 -1.5279 -0.9395 -0.8177
   39RES   H35316389   3.691   3.983   0.516 -0.3676 -0.9651  0.8287
   39RES   H35416390   3.756   3.922   0.796 -2.1286  0.3212  0.4682
   39RES   H35516391   3.654   3.833   0.678  1.0567 -2.2683 -1.1350
   39RES   H35616392   3.946   3.868   0.693  0.9142 -2.3071 -0.1235
   39RES   H35716393   3.872   3.843   0.541 -0.3678 -1.5950 -0.0559
   39RES   H35816394   3.853   3.715   0.676  1.0226 -0.0066  1.5612
   39RES   C35916395   3.966   4.432   0.604  0.2308  0.3816  0.5833
   39RES   C36016396   3.832   4.516   0.619  0.7913  0.1507  0.2731
   39RES   C36116397   3.831   4.633   0.727 -0.8709 -0.3161 -0.7842
   39RES   C36216398   3.903   4.602   0.864  0.3390  0.3617  0.3983
   39RES   C36316399   3.876   4.709   0.968  0.5572 -0.0461 -0.3298
   39RES   C36416400   3.945   4.678   1.094  0.0535 -0.0981 -0.4520
   39RES   C36516401   3.889   4.552   1.164  0.6050 -0.0167 -0.3736
   39RES   H36616402   3.968   4.381   0.508 -0.3838 -1.5451  1.5588
   39RES   H36716403   4.053   4.497   0.610  1.9799 -1.6425 -1.7569
   39RES   H36816404   3.755   4.442   0.641  0.5457  0.1802 -0.4454
   39RES   H36916405   3.881   4.718   0.681  0.5836 -0.7207  0.0520
   39RES   H37016406   3.733   4.677   0.745 -0.6803 -0.3879  0.4340
   39RES   H37116407   3.863   4.509   0.903  0.4065  0.4935  0.7786
   39RES   H37216408   4.011   4.593   0.849 -0.0139 -3.2233 -0.6277
   39RES   H37316409   3.899   4.809   0.932  1.0486  0.0564  0.2598
   39RES   H37416410   3.771   4.706   0.995  0.9232 -0.4500  1.0959
   39RES   H37516411   4.052   4.663   1.082 -0.1174 -1.1160 -0.7904
   39RES   H37616412   3.941   4.769   1.153 -0.3712  0.3421 -1.1498
   39RES   H37716413   3.782   4.568   1.178  0.5216  0.7446 -1.7071
   39RES   H37816414   3.905   4.456   1.114  0.8898  0.0709 -0.4512
   39RES   H37916415   3.929   4.546   1.265  0.7080  0.1501 -0.4040
   39RES   C38016416   3.791   4.568   0.475 -0.5325 -0.7991  0.2173
   39RES   C38116417   3.651   4.625   0.457  0.5352  0.0140 -0.4644
   39RES   C38216418   3.633   4.682   0.311 -0.5612 -0.3068  0.5588
   39RES   C38316419   3.520   4.791   0.314 -0.7139 -0.1011 -0.0757
   39RES   C38416420   3.499   4.859   0.178  0.0403  0.5641 -0.9305
   39RES   C38516421   3.405   4.975   0.157 -0.3913  0.2404 -0.6387
   39RES   C38616422   3.261   4.930   0.168  0.5835 -0.3444 -0.2713
   39RES   H38716423   3.869   4.643   0.465  0.1177 -1.7606 -2.2512
   39RES   H38816424   3.810   4.497   0.396 -1.7012 -0.8664 -0.0202
   39RES   H38916425   3.654   4.706   0.530  0.3534 -0.4467  0.0543
   39RES   H39016426   3.607   4.600   0.243 -1.3038  0.4332 -0.0565
   39RES   H39116427   3.730   4.715   0.275  0.8273 -1.6843  2.9091
   39RES   H39216428   3.423   4.761   0.355 -1.2579 -1.0885 -2.0239
   39RES   H39316429   3.558   4.865   0.384  2.8235 -1.9237  0.0228
   39RES   H39416430   3.596   4.889   0.140  0.3142  1.1747  0.2532
   39RES   H39516431   3.475   4.787   0.100 -2.5018 -0.0720  0.3904
   39RES   H39616432   3.417   5.002   0.052 -0.5439 -1.0528 -0.9866
   39RES   H39716433   3.437   5.053   0.226  0.4171 -1.3740  0.8381
   39RES   H39816434   3.246   4.880   0.263  1.9309  0.7460  0.5277
   39RES   H39916435   3.239   4.857   0.090 -0.7645  0.0384 -0.2784
   39RES   H40016436   3.191   5.014   0.161  0.8837 -0.0021  0.8090
   39RES   C40116437   3.540   4.523   0.503 -0.4110 -0.5946 -0.9399
   39RES   C40216438   3.528   4.404   0.410  0.1057  0.5145 -0.3613
   39RES   C40316439   3.446   4.288   0.461  0.0739 -0.3307 -0.7763
   39RES   C40416440   3.460   4.162   0.373 -0.3658  0.6861  0.3096
   39RES   C40516441   3.387   4.037   0.419 -0.5155 -0.4777 -0.2470
   39RES   C40616442   3.394   3.924   0.312  0.6682  0.0839 -0.4192
   39RES   C40716443   3.533   3.859   0.306  0.2694 -0.0734  0.3638
   39RES   H40816444   3.443   4.572   0.514  0.2637  1.0625 -2.1208
   39RES   H40916445   3.551   4.487   0.605  1.0959 -0.3249 -1.0001
   39RES   H41016446   3.627   4.365   0.386  0.2275 -0.5370  1.7451
   39RES   H41116447   3.343   4.324   0.462 -0.2428 -1.2069 -1.2044
   39RES   H41216448   3.482   4.269   0.561  0.2005 -1.2009 -0.9829
   39RES   H41316449   3.565   4.145   0.348 -0.5764  2.8681 -2.2881
   39RES   H41416450   3.414   4.175   0.275 -0.2329  2.2584  0.4469
   39RES   H41516451   3.422   4.000   0.516  1.9678 -0.4441 -1.1220
   39RES   H41616452   3.282   4.059   0.442 -0.8473 -2.1079 -0.1771
   39RES   H41716453   3.313   3.855   0.336 -0.9462  1.5332 -1.6659
   39RES   H41816454   3.370   3.963   0.213  0.2916  0.0708 -0.3332
   39RES   H41916455   3.617   3.928   0.306  2.4416 -2.6203 -0.2047
   39RES   H42016456   3.531   3.799   0.214  1.7590 -1.3234  1.1274
   39RES   H42116457   3.549   3.783   0.382  0.0628 -0.1535  0.3272
   39RES   H42216458   3.484   4.429   0.313 -0.9310  0.2546  0.0347
   40RES     C116459   0.430   2.781   0.155  0.0277 -0.5940  0.2561
   40RES     C216460   0.571   2.827   0.109 -0.2791 -0.5557 -0.3163
   40RES     C316461   0.654   2.907   0.215 -0.4497  0.3853 -0.0874
   40RES     C416462   0.672   2.823   0.345  0.7851 -0.2492 -0.3047
   40RES     C516463   0.763   2.892   0.452  0.7007 -0.0730  0.5936
   40RES     C616464   0.750   2.832   0.596 -0.6433  0.4157  0.0793
   40RES     C716465   0.833   2.700   0.626 -0.1160 -0.2707 -0.2040
   40RES     H816466   0.362   2.857   0.193  1.6107 -0.0153  2.0439
   40RES     H916467   0.429   2.691   0.216  0.1963 -0.1598  0.9014
   40RES    H1016468   0.627   2.736   0.091  1.0393  0.2115 -0.1233
   40RES    H1116469   0.751   2.933   0.175  0.6883  1.0223  2.9577
   40RES    H1216470   0.593   2.990   0.251  1.3210  1.3059  0.8660
   40RES    H1316471   0.575   2.804   0.391  2.3671 -0.6007  3.0031
   40RES    H1416472   0.732   2.734   0.321  1.4697  0.0677  0.2065
   40RES    H1516473   0.737   2.997   0.462 -1.4790 -0.7355  2.2394
   40RES    H1616474   0.861   2.873   0.407 -0.0172  1.3479 -1.6538
   40RES    H1716475   0.644   2.820   0.617 -0.6606  2.3445  1.1909
   40RES    H1816476   0.785   2.908   0.665 -1.3669 -0.4814  1.4662
   40RES    H1916477   0.786   2.619   0.570  1.0129 -1.1359  0.0891
   40RES    H2016478   0.830   2.660   0.727 -0.1022  1.4459  0.4865
   40RES    H2116479   0.932   2.705   0.582 -0.6552 -0.8258 -1.5120
   40RES    H2216480   0.374   2.750   0.066  0.2705  1.3666 -0.5933
   40RES    C2316481   0.562   2.898   7.705  0.1513  0.1676  0.0005
   40RES    C2416482   0.534   2.813   7.580 -0.0020  0.0105  0.2097
   40RES    C2516483   0.675   2.771   7.522  0.1651 -0.3740  0.1112
   40RES    C2616484   0.674   2.665   7.411  0.0002  0.2105  0.4071
   40RES    C2716485   0.815   2.643   7.349  0.4533  0.3822  0.6386
   40RES    C2816486   0.911   2.560   7.432 -0.2567  0.5261 -0.5874
   40RES    C2916487   1.027   2.511   7.347 -0.5086  0.1843  0.1816
   40RES    H3016488   0.479   2.968   7.715  0.8404  1.4713 -2.9338
   40RES    H3116489   0.655   2.950   7.683  0.8302 -0.0521  2.2440
   40RES    H3216490   0.469   2.727   7.596 -1.0915  1.2358  2.5750
   40RES    H3316491   0.737   2.731   7.601  2.1736  0.1804 -1.1403
   40RES    H3416492   0.724   2.858   7.477  0.4538 -0.2879  0.5914
   40RES    H3516493   0.613   2.708   7.331 -1.7282 -1.2501  0.9162
   40RES    H3616494   0.635   2.573   7.454  0.1818 -0.2980 -0.5031
   40RES    H3716495   0.864   2.738   7.327  1.1779 -0.1406 -0.0474
   40RES    H3816496   0.796   2.595   7.253  0.9497 -0.6632  1.0612
   40RES    H3916497   0.865   2.476   7.484  1.3220 -0.9293 -1.4696
   40RES    H4016498   0.956   2.620   7.511 -0.9632 -1.4450  1.3703
   40RES    H4116499   1.094   2.595   7.327 -2.4387  1.8246  0.4853
   40RES    H4216500   1.088   2.437   7.399 -2.6199 -0.0474  2.3899
   40RES    H4316501   0.994   2.456   7.259  0.5301  0.9561 -0.7137
   40RES    C4416502   0.456   2.896   7.477  0.5242 -0.1846 -0.9482
   40RES    C4516503   0.299   2.899   7.493  0.5238 -0.8931  0.6189
   40RES    C4616504   0.224   3.019   7.428  0.2194 -0.0616  0.6963
   40RES    C4716505   0.242   3.017   7.278  0.6471  0.1672  0.0962
   40RES    C4816506   0.138   3.101   7.195 -0.3458 -0.3882 -0.7737
   40RES    C4916507   0.162   3.083   7.045  0.2183  0.7689  0.2623
   40RES    C5016508   0.098   3.192   6.962 -0.0300 -0.4300 -0.2031
   40RES    H5116509   0.471   2.849   7.380  1.6678  2.3044 -2.0235
   40RES    H5216510   0.496   2.996   7.459  0.0787 -0.1162 -1.5564
   40RES    H5316511   0.272   2.919   7.597  1.5853  0.1443  0.7107
   40RES    H5416512   0.273   3.109   7.465  0.2532 -0.4677  1.6744
   40RES    H5516513   0.117   3.019   7.451  0.0083  1.9412 -0.1259
   40RES    H5616514   0.342   3.051   7.251  2.0693 -1.5873  2.8402
   40RES    H5716515   0.252   2.919   7.233 -0.3477 -0.1825  0.6296
   40RES    H5816516   0.149   3.206   7.221  2.5591 -1.1629  1.3759
   40RES    H5916517   0.034   3.075   7.211 -0.4762  0.5440 -0.1208
   40RES    H6016518   0.130   2.986   7.007  0.8721  0.7017 -0.1317
   40RES    H6116519   0.267   3.085   7.018 -0.0652  0.4720 -0.8689
   40RES    H6216520   0.134   3.292   6.986 -1.5338  0.4863 -1.6260
   40RES    H6316521   7.719   3.189   6.987  0.0162 -0.0406  0.0587
   40RES    H6416522   0.114   3.177   6.855  1.5219  3.2548 -0.5669
   40RES    C6516523   0.234   2.760   7.462 -0.1560 -0.2466  0.1206
   40RES    C6616524   0.086   2.742   7.479  0.4140 -0.0421 -0.6355
   40RES    C6716525   0.032   2.756   7.619 -0.7856  0.1668 -0.2213
   40RES    C6816526   0.057   2.638   7.716 -0.2770  0.1489 -0.3060
   40RES    C6916527   7.700   2.637   0.113  1.1261  0.0176  0.6045
   40RES    C7016528   0.033   2.704   0.238 -0.0737  0.0865 -0.7512
   40RES    C7116529   7.681   2.688   0.369 -0.6026  0.4926 -0.0381
   40RES    H7216530   0.253   2.728   7.360 -0.3400 -0.2861  0.0984
   40RES    H7316531   0.272   2.685   7.531 -2.1138  0.3569  1.9371
   40RES    H7416532   0.038   2.824   7.425  1.2072 -0.5176 -2.0767
   40RES    H7516533   0.062   2.849   7.669 -1.4454  0.9985 -1.3463
   40RES    H7616534   7.650   2.755   7.609 -0.9541  1.5676  1.1807
   40RES    H7716535   0.042   2.543   7.665 -1.4134  0.2861 -0.2326
   40RES    H7816536   0.161   2.638   0.022 -0.1700 -2.7922 -0.5301
   40RES    H7916537   7.605   2.690   0.099  0.4245 -0.9305  1.6237
   40RES    H8016538   7.668   2.534   0.132  0.0227 -0.3799 -3.0528
   40RES    H8116539   0.051   2.807   0.206  0.2079  0.8486  1.7464
   40RES    H8216540   0.127   2.652   0.258  0.4775  1.3766  0.0336
   40RES    H8316541   0.012   2.714   0.457  2.2863 -2.3250 -1.0047
   40RES    H8416542   7.588   2.745   0.376 -2.3079 -2.0187 -1.3371
   40RES    H8516543   7.639   2.591   0.396 -1.5979  0.5106 -1.4249
   40RES    C8616544   0.041   2.609   7.409  0.3132 -0.4043  0.2800
   40RES    C8716545   7.713   2.621   7.263 -0.1490  0.8404  0.2154
   40RES    C8816546   7.726   2.483   7.190  0.2228  0.6012 -0.2121
   40RES    C8916547   7.665   2.368   7.277 -0.0540  0.0117 -0.6004
   40RES    C9016548   7.641   2.242   7.198 -0.1622  0.5558 -0.6223
   40RES    C9116549   0.042   2.169   7.165 -0.0041 -0.6281 -0.1423
   40RES    C9216550   0.019   2.026   7.121 -0.5532 -0.0858 -0.8100
   40RES    H9316551   0.121   2.535   7.412 -0.6134 -1.3844  1.7071
   40RES    H9416552   7.682   2.561   7.458  0.9660 -2.7413 -0.8032
   40RES    H9516553   0.060   2.687   7.216  1.1926 -1.4559 -1.0079
   40RES    H9616554   7.685   2.474   7.090  1.1736  0.7503 -0.6127
   40RES    H9716555   0.105   2.461   7.174 -0.0288 -1.9735  1.3401
   40RES    H9816556   0.004   2.358   7.363 -1.0536  2.4506  0.4927
   40RES    H9916557   7.572   2.403   7.321  0.7380 -0.2914  1.3522
   40RES   H10016558   7.568   2.248   7.117  0.2523 -0.5790 -1.0783
   40RES   H10116559   7.579   2.184   7.267  0.4324  1.1266  0.4104
   40RES   H10216560   0.108   2.221   7.095  0.3906 -1.3932 -0.3467
   40RES   H10316561   0.110   2.151   7.248  0.8292  0.2803 -0.6177
   40RES   H10416562   7.699   2.015   7.023 -1.6446  1.4690 -0.4884
   40RES   H10516563   7.689   1.976   7.200  1.2739 -1.7083 -0.4854
   40RES   H10616564   0.114   1.973   7.127 -0.4528  0.2660  1.2135
   40RES   C10716565   7.570   2.686   7.249 -0.4428  0.5073 -0.7426
   40RES   C10816566   7.515   2.696   7.102  0.4891  0.4129 -0.4339
   40RES   C10916567   7.366   2.697   7.105 -0.4577 -0.4889 -0.3908
   40RES   C11016568   7.306   2.551   7.090  0.2954 -0.2983  0.1263
   40RES   C11116569   7.293   2.511   6.946 -0.3225 -0.3355 -0.3862
   40RES   C11216570   7.272   2.360   6.908  0.4756 -0.1261  0.4574
   40RES   C11316571   7.241   2.338   6.759  0.5097 -0.8524  0.6314
   40RES   H11416572   7.581   2.786   7.291 -0.7005  0.6042 -0.9103
   40RES   H11516573   7.497   2.636   7.312  2.3986  0.4081  2.6602
   40RES   H11616574   7.545   2.614   7.037  1.6123  1.4000 -1.1736
   40RES   H11716575   7.336   2.758   7.020 -0.7292 -0.3751 -0.2113
   40RES   H11816576   7.335   2.753   7.193 -0.2057  0.0952 -0.6712
   40RES   H11916577   7.361   2.486   7.157  2.1326  1.3547  0.2539
   40RES   H12016578   7.206   2.557   7.135 -0.1788 -3.3322 -0.4283
   40RES   H12116579   7.382   2.543   6.891  1.5035 -0.7919  2.1949
   40RES   H12216580   7.215   2.573   6.903  0.2478 -0.1950 -1.2431
   40RES   H12316581   7.370   2.324   6.940  1.1816  1.2969 -0.0197
   40RES   H12416582   7.189   2.320   6.965  0.3440  0.5357  0.7390
   40RES   H12516583   7.217   2.233   6.744 -1.7657 -0.2848  0.1338
   40RES   H12616584   7.149   2.389   6.732  0.3119 -1.6514 -0.2234
   40RES   H12716585   7.325   2.378   6.703 -0.5791  1.3179  0.5055
   40RES   C12816586   7.567   2.820   7.036  0.1250  0.1702 -1.1335
   40RES   C12916587   7.537   2.833   6.883  0.1255 -0.2077 -0.2324
   40RES   C13016588   7.667   2.850   6.802  0.0620 -0.1847 -0.9265
   40RES   C13116589   0.019   2.718   6.804 -0.3630 -0.0305  0.4304
   40RES   C13216590   0.137   2.703   6.716  0.4412 -1.0461  0.3955
   40RES   C13316591   0.199   2.561   6.718  0.1624 -0.2435 -0.3177
   40RES   C13416592   0.344   2.563   6.658  0.4420 -0.3661 -0.0086
   40RES   H13516593   7.540   2.907   7.096 -1.2319 -0.9408 -0.1011
   40RES   H13616594   7.675   2.811   7.050 -0.0604  1.2524  1.2323
   40RES   H13716595   7.487   2.739   6.859  1.5129 -0.8792 -0.4934
   40RES   H13816596   0.006   2.932   6.831  0.7941 -0.3992 -1.9427
   40RES   H13916597   7.655   2.883   6.699 -0.2557 -0.9286 -1.1293
   40RES   H14016598   7.677   2.644   6.764 -0.5873  0.4215 -0.0214
   40RES   H14116599   0.040   2.679   6.904  1.3427 -2.2908 -0.7410
   40RES   H14216600   0.215   2.773   6.748  0.4187 -0.6245 -0.4405
   40RES   H14316601   0.117   2.739   6.615  3.0330 -0.1939  0.1516
   40RES   H14416602   0.146   2.490   6.655 -0.5873 -1.0265  1.1677
   40RES   H14516603   0.203   2.523   6.821  0.9201  0.4316 -0.0947
   40RES   H14616604   0.380   2.465   6.629  1.0578 -0.2508  0.3655
   40RES   H14716605   0.408   2.602   6.737 -1.3891 -0.6562  1.6610
   40RES   H14816606   0.357   2.626   6.569  0.1719 -0.2725  0.0178
   40RES   C14916607   7.443   2.958   6.858 -0.9864 -0.1297  0.1330
   40RES   C15016608   7.365   2.961   6.724  0.6384 -0.3422  0.1577
   40RES   C15116609   7.278   3.091   6.704 -0.0601  0.0973  0.3527
   40RES   C15216610   7.178   3.115   6.817  0.3100 -0.5637  0.4676
   40RES   C15316611   7.079   3.228   6.773 -0.4266  0.2486 -0.6272
   40RES   C15416612   6.951   3.231   6.861 -0.4815 -0.7470  0.0191
   40RES   C15516613   6.960   3.274   7.005  0.3338  0.0498 -0.2832
   40RES   H15616614   7.362   2.968   6.931  1.4855  0.0166  2.9276
   40RES   H15716615   7.499   3.049   6.878 -2.1295  0.9744 -1.5809
   40RES   H15816616   7.433   2.962   6.639 -0.7259 -0.0005 -0.9604
   40RES   H15916617   7.342   3.180   6.702 -0.3051  0.3346  2.1096
   40RES   H16016618   7.225   3.086   6.609  2.8620 -1.8374 -1.2654
   40RES   H16116619   7.239   3.155   6.899  0.4164 -1.5070  0.8486
   40RES   H16216620   7.132   3.023   6.852  1.0661 -0.9320  0.4987
   40RES   H16316621   7.045   3.213   6.671 -1.1035 -2.3298 -0.0570
   40RES   H16416622   7.121   3.329   6.777  0.0512  0.0862 -1.5478
   40RES   H16516623   6.907   3.132   6.869  0.6067 -1.1106  1.9921
   40RES   H16616624   6.881   3.303   6.820  0.4939  0.2993  0.1607
   40RES   H16716625   6.862   3.256   7.049  0.3066  0.8626 -0.0154
   40RES   H16816626   6.982   3.381   7.008 -1.9716  0.5341  0.2664
   40RES   H16916627   7.033   3.211   7.057  0.1490 -0.7928 -1.0349
   40RES   C17016628   7.274   2.840   6.703  0.2083 -0.3490  0.6702
   40RES   C17116629   7.213   2.829   6.555  0.2745 -0.2523  1.2378
   40RES   C17216630   7.304   2.769   6.447  0.0996 -0.0267  0.1763
   40RES   C17316631   7.363   2.624   6.455  0.1103  0.2229  0.4548
   40RES   C17416632   7.470   2.590   6.351 -0.2819 -0.0328 -0.1783
   40RES   C17516633   7.559   2.471   6.396 -0.6420 -0.3085 -0.3384
   40RES   C17616634   7.672   2.440   6.303  0.3540  1.0711  0.4030
   40RES   H17716635   7.193   2.846   6.776 -0.9860 -0.6699 -0.5899
   40RES   H17816636   7.324   2.748   6.731  0.1835 -0.2771  0.9538
   40RES   H17916637   7.178   2.923   6.510  2.1705 -0.8090 -1.5465
   40RES   H18016638   7.390   2.834   6.431 -0.5834  0.1345 -3.1591
   40RES   H18116639   7.249   2.780   6.354 -2.4099  0.8139  1.7146
   40RES   H18216640   7.275   2.561   6.442  0.2345 -0.2918  2.0832
   40RES   H18316641   7.410   2.630   6.552 -0.0556  0.6923  0.5092
   40RES   H18416642   7.528   2.680   6.334 -1.6709  0.6299 -1.5072
   40RES   H18516643   7.425   2.566   6.255 -0.8149 -0.6155  0.2144
   40RES   H18616644   7.512   2.381   6.436 -0.8735  0.3033  0.7626
   40RES   H18716645   7.613   2.504   6.485  0.3249 -2.3019 -0.1530
   40RES   H18816646   7.707   2.516   6.233  0.0457  0.9761  0.1443
   40RES   H18916647   7.653   2.351   6.242 -0.0365 -0.4830  2.7474
   40RES   H19016648   0.034   2.421   6.363 -1.2784  1.5256  3.0020
   40RES   C19116649   7.088   2.734   6.554 -0.3132  0.2127 -0.5382
   40RES   C19216650   6.958   2.783   6.623  0.5429 -0.3461 -0.4207
   40RES   C19316651   6.904   2.911   6.553  0.4035  0.3454  0.3092
   40RES   C19416652   6.767   2.964   6.610  0.2665  0.0435  0.0983
   40RES   C19516653   6.715   3.087   6.529  0.5504 -0.6824 -0.5607
   40RES   C19616654   6.619   3.180   6.609  0.2274 -0.1579  0.0023
   40RES   C19716655   6.583   3.311   6.532 -0.0888  0.3037 -0.7964
   40RES   H19816656   7.115   2.633   6.585 -0.8090 -0.1380 -1.2469
   40RES   H19916657   7.055   2.718   6.451 -1.2861  1.5450 -0.4533
   40RES   H20016658   6.991   2.810   6.724 -0.3556 -1.1231  0.0882
   40RES   H20116659   6.883   2.896   6.447  1.7365  0.6853 -0.0109
   40RES   H20216660   6.980   2.989   6.556  0.8506 -0.0220 -0.8535
   40RES   H20316661   6.775   2.978   6.718 -0.6026  1.4301 -0.0073
   40RES   H20416662   6.694   2.884   6.600  2.0472 -1.5535 -0.2754
   40RES   H20516663   6.798   3.145   6.489  1.5041 -0.3993  1.7322
   40RES   H20616664   6.653   3.055   6.446 -1.0205 -0.7037  0.5940
   40RES   H20716665   6.656   3.198   6.709  1.2570 -1.8613 -0.0557
   40RES   H20816666   6.519   3.135   6.611  1.1608 -2.3147 -0.2370
   40RES   H20916667   6.670   3.373   6.554 -0.6186  0.0932  2.1249
   40RES   H21016668   6.498   3.364   6.575  1.0360 -0.4340  2.5354
   40RES   H21116669   6.563   3.291   6.427 -0.4375 -0.5770 -0.5706
   40RES   C21216670   6.849   2.669   6.640  0.8348 -0.0729  0.1209
   40RES   C21316671   6.764   2.668   6.772 -0.5808 -0.7048  0.5822
   40RES   C21416672   6.626   2.586   6.755 -1.3939 -0.1798  0.1179
   40RES   C21516673   6.514   2.645   6.668 -0.5521  0.3749 -0.1761
   40RES   C21616674   6.443   2.761   6.743 -0.2632  0.0855 -0.3184
   40RES   C21716675   6.296   2.794   6.699 -0.2416 -0.2455  0.6901
   40RES   C21816676   6.270   2.866   6.562 -0.1401  0.0269 -0.2581
   40RES   H21916677   6.898   2.572   6.646  1.2834  0.2684  2.3081
   40RES   H22016678   6.783   2.658   6.554  0.2021 -0.6148  0.6683
   40RES   H22116679   6.741   2.773   6.787 -0.9502 -0.4527 -1.6015
   40RES   H22216680   6.657   2.484   6.728 -0.9022 -0.1969  0.7285
   40RES   H22316681   6.584   2.581   6.855  0.7214  0.3496  1.0557
   40RES   H22416682   6.443   2.563   6.657 -1.7504  1.6338 -2.1589
   40RES   H22516683   6.536   2.671   6.564 -0.3298 -0.7954 -0.4249
   40RES   H22616684   6.444   2.741   6.850  0.0368 -0.1398 -0.3620
   40RES   H22716685   6.509   2.848   6.749  1.7497 -1.5434  2.5881
   40RES   H22816686   6.246   2.698   6.700 -1.5101  0.4092  1.6156
   40RES   H22916687   6.251   2.861   6.773  0.8874  0.5289  0.7041
   40RES   H23016688   6.347   2.942   6.546  0.0307 -0.2060 -0.5543
   40RES   H23116689   6.181   2.928   6.571 -1.8351 -2.2207 -1.1309
   40RES   H23216690   6.265   2.793   6.481 -0.5096  0.5937 -0.7547
   40RES   C23316691   6.849   2.609   6.895 -0.6059  0.1042 -0.0347
   40RES   C23416692   6.800   2.662   7.037 -0.1400  0.4883 -0.3976
   40RES   C23516693   6.824   2.558   7.152 -0.1129  0.0219  0.0825
   40RES   C23616694   6.734   2.433   7.129 -0.7804  0.7425  0.4298
   40RES   C23716695   6.760   2.314   7.222  0.7164  0.2152  0.8447
   40RES   C23816696   6.845   2.202   7.161 -0.0512 -0.1725 -0.7991
   40RES   C23916697   6.898   2.099   7.267  0.6547 -0.8347  0.6263
   40RES   H24016698   6.956   2.623   6.880 -0.0913 -0.4491  2.8850
   40RES   H24116699   6.835   2.501   6.886 -1.6268  0.1983  0.3422
   40RES   H24216700   6.692   2.678   7.029 -0.4010 -0.0740  1.9014
   40RES   H24316701   6.799   2.601   7.249  0.3250 -1.1524  0.7324
   40RES   H24416702   6.926   2.519   7.158  0.2873  0.8104 -1.4710
   40RES   H24516703   6.729   2.400   7.025 -0.8649  1.0732  0.3277
   40RES   H24616704   6.632   2.466   7.146 -1.9817 -2.3338 -0.4027
   40RES   H24716705   6.663   2.273   7.251  0.0044  1.5705  0.4261
   40RES   H24816706   6.800   2.350   7.317  1.5491 -1.2122  1.0569
   40RES   H24916707   6.791   2.145   7.086 -2.7445  0.6357  0.4426
   40RES   H25016708   6.930   2.254   7.117 -0.0030  1.5615  1.2540
   40RES   H25116709   6.976   2.032   7.230  0.7372 -0.6462  0.4620
   40RES   H25216710   6.939   2.135   7.362  2.8198  0.5720 -0.8053
   40RES   H25316711   6.815   2.035   7.299 -0.6226  0.2656 -0.4793
   40RES   C25416712   6.870   2.789   7.076 -0.4048 -0.4355 -0.6569
   40RES   C25516713   6.801   2.865   7.195  0.8669 -0.0639 -0.3644
   40RES   C25616714   6.655   2.901   7.166  0.3101  0.3247  0.3590
   40RES   C25716715   6.625   2.996   7.046 -1.1132  0.8044  0.1885
   40RES   C25816716   6.479   3.045   7.065 -0.2309 -0.5542 -0.1696
   40RES   C25916717   6.436   3.114   6.938 -0.1775 -0.0071 -0.1181
   40RES   C26016718   6.494   3.256   6.951 -0.5948  0.1679 -0.4240
   40RES   H26116719   6.877   2.835   6.978 -0.5396 -1.0077 -0.9376
   40RES   H26216720   6.970   2.772   7.117 -0.4311 -0.4582 -0.6045
   40RES   H26316721   6.792   2.800   7.282  3.4247  1.2669  0.9757
   40RES   H26416722   6.618   2.955   7.253  0.5319 -2.0020  1.9230
   40RES   H26516723   6.593   2.813   7.151  1.3589 -0.1371 -1.5039
   40RES   H26616724   6.708   3.065   7.032 -0.3762 -0.3218 -1.0229
   40RES   H26716725   6.629   2.937   6.955  0.9398 -1.8361  1.9422
   40RES   H26816726   6.471   3.100   7.159 -0.0632  1.5660 -1.3825
   40RES   H26916727   6.410   2.961   7.076  1.5103 -2.1800 -1.3939
   40RES   H27016728   6.480   3.062   6.853 -1.4590  0.1308 -0.8740
   40RES   H27116729   6.328   3.126   6.926 -0.0099  2.3671  0.3432
   40RES   H27216730   6.433   3.316   7.019 -2.8343 -0.6846 -1.6408
   40RES   H27316731   6.590   3.253   7.004 -0.8010  1.9316  0.0927
   40RES   H27416732   6.490   3.317   6.861  1.4041  0.1750 -0.5315
   40RES   C27516733   6.895   2.991   7.233 -0.1134 -0.1363 -0.3385
   40RES   C27616734   6.853   3.063   7.360 -0.2690 -0.1061  0.0315
   40RES   C27716735   6.922   3.198   7.365 -0.1884 -1.0770 -0.6921
   40RES   C27816736   7.075   3.203   7.367  0.1814  0.0161 -1.2143
   40RES   C27916737   7.124   3.348   7.361  0.2972  0.3000  0.1697
   40RES   C28016738   7.276   3.344   7.404 -0.5746 -0.8157 -0.0765
   40RES   C28116739   7.370   3.262   7.317 -0.1515  0.4475  0.1587
   40RES   H28216740   6.878   3.062   7.153  2.2401  0.1249 -0.6297
   40RES   H28316741   7.002   2.970   7.233  0.0168  0.5172 -0.7272
   40RES   H28416742   6.754   3.102   7.339 -1.2341 -1.2870  2.2061
   40RES   H28516743   6.887   3.255   7.279  0.1396 -0.6451 -0.5412
   40RES   H28616744   6.880   3.251   7.450 -1.7823 -1.1149 -1.4443
   40RES   H28716745   7.100   3.155   7.272 -0.8230 -1.3482 -0.7934
   40RES   H28816746   7.117   3.139   7.444 -1.1016  2.2549  1.4208
   40RES   H28916747   7.075   3.411   7.435 -0.6905  3.5853 -3.0875
   40RES   H29016748   7.110   3.398   7.265  2.4380  0.1534 -0.2243
   40RES   H29116749   7.324   3.441   7.406 -0.4349 -0.8540  5.2589
   40RES   H29216750   7.282   3.318   7.509 -2.1851  1.2798  0.5649
   40RES   H29316751   7.349   3.155   7.321 -0.3490  0.4946  0.4309
   40RES   H29416752   7.469   3.272   7.361 -0.5729  2.5871  0.6892
   40RES   H29516753   7.358   3.293   7.213 -1.5123 -0.7417 -0.0605
   40RES   C29616754   6.868   2.980   7.488 -0.2038 -0.5668 -0.9503
   40RES   C29716755   6.736   2.944   7.560  0.2473 -0.4999 -0.3351
   40RES   C29816756   6.673   3.075   7.621  0.2428  0.4459 -0.2495
   40RES   C29916757   6.519   3.074   7.624 -0.4395 -0.3660  0.2213
   40RES   C30016758   6.435   3.031   7.498 -0.1107 -0.0728  0.3244
   40RES   C30116759   6.290   3.072   7.504  0.0126 -0.3938 -0.4228
   40RES   C30216760   6.190   2.980   7.425  0.6920  0.2434 -0.6494
   40RES   H30316761   6.921   2.886   7.467  0.4326 -1.0008  2.3806
   40RES   H30416762   6.935   3.030   7.558 -2.5829  2.3698 -0.6961
   40RES   H30516763   6.664   2.901   7.490  0.3347 -0.9768 -0.1305
   40RES   H30616764   6.706   3.068   7.725 -1.3659  1.0027  0.3164
   40RES   H30716765   6.705   3.170   7.578  1.2045  0.5652  0.7267
   40RES   H30816766   6.480   3.168   7.662  0.2680 -0.2025  0.5597
   40RES   H30916767   6.499   3.002   7.703  1.3101 -0.1974  0.8401
   40RES   H31016768   6.430   2.923   7.482  3.8760  0.2483 -4.2597
   40RES   H31116769   6.490   3.073   7.414 -1.7236 -1.2487 -1.3606
   40RES   H31216770   6.255   3.056   7.606 -1.0138 -0.4516 -0.7783
   40RES   H31316771   6.276   3.179   7.491  1.0147 -0.3864 -1.5532
   40RES   H31416772   6.085   3.007   7.439  1.4169  2.1855  1.3685
   40RES   H31516773   6.215   3.005   7.322 -0.2941 -1.9909 -1.4590
   40RES   H31616774   6.195   2.874   7.447 -2.9090  0.3420  1.0067
   40RES   C31716775   6.770   2.830   7.659  0.1640 -0.3557  0.0516
   40RES   C31816776   6.761   2.692   7.591 -0.1026 -0.4451 -0.3812
   40RES   C31916777   6.883   2.603   7.626 -0.6079 -0.6711  0.0904
   40RES   C32016778   7.035   2.635   7.577  0.1456  0.7797  0.2597
   40RES   C32116779   7.139   2.525   7.616 -0.1700  0.0427 -0.6546
   40RES   C32216780   7.278   2.580   7.658  0.2550 -0.0209 -0.1812
   40RES   C32316781   7.375   2.471   7.709  0.5545  0.1002  0.6575
   40RES   H32416782   6.702   2.829   0.018  0.1781  2.9464  0.1675
   40RES   H32516783   6.861   2.852   7.713 -1.7904  0.9112  2.9581
   40RES   H32616784   6.778   2.702   7.484 -0.1667  0.7445 -0.2852
   40RES   H32716785   6.864   2.505   7.582  2.0390 -1.7789  1.2642
   40RES   H32816786   6.879   2.594   0.008 -0.4055  0.8153  0.2316
   40RES   H32916787   7.063   2.732   7.618  3.0637  1.1586 -2.4217
   40RES   H33016788   7.042   2.651   7.469 -0.5129 -0.6789 -0.0124
   40RES   H33116789   7.149   2.445   7.542  0.3150 -0.7030  0.1963
   40RES   H33216790   7.111   2.464   7.702  0.2191  2.4385  1.2203
   40RES   H33316791   7.268   2.651   0.013 -0.7020 -1.2493  0.7840
   40RES   H33416792   7.333   2.622   7.574  2.4013 -1.0325  0.6707
   40RES   H33516793   7.389   2.391   7.636  1.7217  0.5454  0.3776
   40RES   H33616794   7.342   2.433   0.079  0.0260 -2.5791 -0.5388
   40RES   H33716795   7.472   2.511   0.012  1.5395 -0.9669 -1.0672
   40RES   C33816796   6.625   2.620   7.613 -0.7616  0.3124 -0.2295
   40RES   C33916797   6.572   2.510   7.517 -0.1499  0.3489  0.6221
   40RES   C34016798   6.514   2.565   7.379  0.6583 -0.9031 -0.5159
   40RES   C34116799   6.390   2.657   7.400 -0.5206  0.2030  0.6277
   40RES   C34216800   6.266   2.592   7.331 -0.0296  0.0580  1.0249
   40RES   C34316801   6.278   2.583   7.180  0.5681  0.0110 -0.6508
   40RES   C34416802   6.245   2.717   7.119  0.8022  0.1201  0.4068
   40RES   H34516803   6.553   2.702   7.616 -2.5601 -1.2362 -0.0145
   40RES   H34616804   6.633   2.579   7.714  2.6569 -2.4101 -1.5265
   40RES   H34716805   6.652   2.437   7.503  1.7523  2.4502  0.2920
   40RES   H34816806   6.593   2.630   7.341  0.9239 -1.2846 -0.6104
   40RES   H34916807   6.509   2.481   7.310  3.8716 -1.1108 -0.5574
   40RES   H35016808   6.408   2.752   7.351 -1.2726 -0.9928 -2.0783
   40RES   H35116809   6.377   2.677   7.506  1.2496  0.5370  0.7909
   40RES   H35216810   6.245   2.502   7.388 -2.0347  0.3623  0.7889
   40RES   H35316811   6.188   2.661   7.364  0.3713  1.6726 -1.3373
   40RES   H35416812   6.371   2.536   7.149  0.1895 -1.7645  0.8630
   40RES   H35516813   6.197   2.514   7.156 -1.3589  1.7047  0.7382
   40RES   H35616814   6.147   2.759   7.145  1.5340  2.0520  0.1471
   40RES   H35716815   6.239   2.696   7.012  1.9871 -0.2417  0.4074
   40RES   H35816816   6.317   2.797   7.133  2.7026 -1.2668 -1.2065
   40RES   C35916817   6.470   2.425   7.592  0.3661  0.3831  0.3455
   40RES   C36016818   6.525   2.277   7.631  0.1076  0.4521  0.1204
   40RES   C36116819   6.601   2.284   0.043 -0.6451 -0.3591 -0.1811
   40RES   C36216820   6.683   2.154   0.069 -0.5472 -0.4286 -0.4241
   40RES   C36316821   6.797   2.130   7.691  1.5646  0.6553  0.2600
   40RES   C36416822   6.904   2.026   0.011  0.2629 -0.1708  0.2824
   40RES   C36516823   7.013   2.006   7.626  0.1305 -0.1704  0.5197
   40RES   H36616824   6.385   2.417   7.524  0.6662  1.1762 -0.1313
   40RES   H36716825   6.432   2.463   7.687 -0.7270 -1.6175  0.7346
   40RES   H36816826   6.590   2.235   7.555  1.8824  1.1235  1.2192
   40RES   H36916827   6.675   2.363   0.038 -1.4404  0.2983 -2.0510
   40RES   H37016828   6.533   2.303   0.126  0.3373  0.5032  0.4299
   40RES   H37116829   6.728   2.179   0.166 -0.4676  0.6634 -0.7358
   40RES   H37216830   6.623   2.066   0.091 -1.3305  0.6945  2.1611
   40RES   H37316831   6.750   2.100   7.597 -1.4410  2.0744  1.2485
   40RES   H37416832   6.850   2.221   7.663  1.6579  0.6463  0.4063
   40RES   H37516833   6.949   2.066   0.102  0.5018 -0.8992  0.4867
   40RES   H37616834   6.863   1.934   0.051  0.4571  0.1559  1.2341
   40RES   H37716835   6.982   1.953   7.536  1.7985 -2.1432  1.0911
   40RES   H37816836   7.051   2.099   7.583  1.5076 -1.1984 -0.5058
   40RES   H37916837   7.098   1.959   7.674  1.4752  2.4500  0.7836
   40RES   C38016838   6.413   2.177   7.647 -0.0792  0.7371  0.4573
   40RES   C38116839   6.379   2.087   7.521 -0.2556  0.0501  0.5107
   40RES   C38216840   6.330   2.175   7.399  0.1119  0.1254 -0.5206
   40RES   C38316841   6.233   2.113   7.299 -0.1060  0.9858  0.3997
   40RES   C38416842   6.210   2.209   7.180 -0.2983  0.0120  0.4280
   40RES   C38516843   6.314   2.193   7.060 -0.0514 -0.3452 -0.2198
   40RES   C38616844   6.292   2.301   6.949 -0.3416 -0.1486 -0.4813
   40RES   H38716845   6.419   2.120   0.014 -1.7984 -1.8538 -0.9625
   40RES   H38816846   6.330   2.243   7.672 -1.0900 -0.5684  0.6010
   40RES   H38916847   6.290   2.036   7.558 -0.7085  0.4107 -0.0490
   40RES   H39016848   6.419   2.211   7.346  0.6771  0.8376  0.8988
   40RES   H39116849   6.276   2.264   7.430  3.3983  1.7828  0.7051
   40RES   H39216850   6.271   2.018   7.262  2.0676  1.8235  0.3593
   40RES   H39316851   6.140   2.102   7.354 -0.6260 -1.7412 -0.9471
   40RES   H39416852   6.113   2.187   7.136 -0.6449 -1.5852  1.9126
   40RES   H39516853   6.204   2.312   7.213 -0.0692  0.8159 -1.9942
   40RES   H39616854   6.307   2.093   7.017  1.9389  0.1684 -1.7763
   40RES   H39716855   6.413   2.216   7.098 -0.3333  0.2336  0.1725
   40RES   H39816856   6.362   2.286   6.867  0.7616  1.0909  0.2005
   40RES   H39916857   6.298   2.407   6.973 -2.4382  0.6082 -3.1182
   40RES   H40016858   6.195   2.278   6.906 -1.6466 -2.2620  3.2913
   40RES   C40116859   6.489   1.990   7.476  0.1104  0.4312 -0.4268
   40RES   C40216860   6.513   1.869   7.573 -0.4703 -0.0923 -0.1761
   40RES   C40316861   6.635   1.772   7.536 -0.6541 -0.4075  0.4720
   40RES   C40416862   6.652   1.644   7.611  0.0656  0.9981  0.7464
   40RES   C40516863   6.770   1.557   7.564  0.2281  0.1730 -0.4723
   40RES   C40616864   6.766   1.417   7.640 -0.9407  0.1708 -0.0014
   40RES   C40716865   6.881   1.320   7.608 -0.0883  0.2540  0.3853
   40RES   H40816866   6.584   2.040   7.456 -0.6839  1.5450 -1.4909
   40RES   H40916867   6.470   1.949   7.376  0.5079  1.0722 -0.7648
   40RES   H41016868   6.419   1.815   7.566 -0.5881  0.3375 -2.2423
   40RES   H41116869   6.721   1.838   7.538 -1.8862  1.2867 -0.9318
   40RES   H41216870   6.622   1.745   7.431  0.3443 -0.0589  0.2545
   40RES   H41316871   6.556   1.592   7.613 -0.3775  1.7549 -0.4285
   40RES   H41416872   6.671   1.668   7.716 -1.3451  1.9643  0.8015
   40RES   H41516873   6.779   1.550   7.456  0.4195  0.1259 -0.4534
   40RES   H41616874   6.869   1.591   7.596 -0.4303  0.8348  0.9380
   40RES   H41716875   6.775   1.434   0.020 -0.9999  3.8610 -0.4997
   40RES   H41816876   6.676   1.362   7.610 -1.6772  1.9945 -1.2264
   40RES   H41916877   6.869   1.275   7.510 -0.3381  1.2620 -0.0497
   40RES   H42016878   6.876   1.236   7.678 -0.0843  0.9694  1.2522
   40RES   H42116879   6.983   1.355   7.622  0.1264 -0.3289  0.3102
   40RES   H42216880   6.526   1.899   7.677 -0.2027 -2.3262  0.4554
   41RES     C116881   5.813   4.769   0.769 -0.2027  0.2266 -0.0312
   41RES     C216882   5.939   4.852   0.738  0.2482  1.0131  0.6922
   41RES     C316883   5.985   4.940   0.864 -0.5019  0.2797  0.0705
   41RES     C416884   6.130   4.989   0.860 -1.0727  0.1657  1.0202
   41RES     C516885   6.175   5.070   0.978  0.1638  0.5766 -0.4130
   41RES     C616886   6.315   5.132   0.972  0.3967 -0.8719 -0.1015
   41RES     C716887   6.357   5.181   1.108 -0.3094  0.3570  0.2229
   41RES     H816888   5.775   4.709   0.687 -1.8185  0.2829  0.6667
   41RES     H916889   5.730   4.828   0.807 -1.1641 -1.5628  0.6971
   41RES    H1016890   6.021   4.784   0.712 -0.3909  1.0534 -1.5017
   41RES    H1116891   5.931   5.032   0.883  0.3306  1.0377 -1.1633
   41RES    H1216892   5.961   4.878   0.951 -0.9589  0.5669  0.1491
   41RES    H1316893   6.201   4.907   0.845  2.2010  3.3103 -1.6308
   41RES    H1416894   6.134   5.053   0.772 -0.1983 -0.5134  0.5576
   41RES    H1516895   6.167   5.000   1.061 -0.0670 -1.8617 -2.3997
   41RES    H1616896   6.103   5.147   1.003 -0.7652 -1.0242  2.0073
   41RES    H1716897   6.314   5.212   0.898 -1.0973 -1.1766 -0.4280
   41RES    H1816898   6.383   5.056   0.934  1.5378 -0.6066  1.3821
   41RES    H1916899   6.460   5.218   1.109  0.2103 -1.0564 -0.0572
   41RES    H2016900   6.353   5.104   1.185  3.2282  0.3410  0.4909
   41RES    H2116901   6.300   5.262   1.153 -0.7795  0.6124 -0.8108
   41RES    H2216902   5.835   4.706   0.855  1.5376  2.2171  1.0546
   41RES    C2316903   5.925   4.940   0.602  0.3121  0.8734 -0.1983
   41RES    C2416904   5.805   5.039   0.591 -0.2658  0.2757 -0.5153
   41RES    C2516905   5.744   5.016   0.449 -0.1369 -0.6006 -0.0124
   41RES    C2616906   5.675   4.882   0.427  0.6672 -0.1856 -0.3041
   41RES    C2716907   5.544   4.872   0.517 -0.3386 -0.3488 -0.5381
   41RES    C2816908   5.468   4.736   0.485  0.3484  0.1358  0.0645
   41RES    C2916909   5.529   4.610   0.548 -0.2811  0.0323 -0.7208
   41RES    H3016910   6.014   5.002   0.593  0.7809  0.2785  0.3535
   41RES    H3116911   5.927   4.857   0.531  1.2589  1.6653 -1.1140
   41RES    H3216912   5.735   5.019   0.672  0.0563  1.1711 -0.0181
   41RES    H3316913   5.814   5.028   0.367 -2.1015  0.5655 -1.5630
   41RES    H3416914   5.667   5.093   0.439  2.6513  2.5570  1.7437
   41RES    H3516915   5.750   4.805   0.442 -2.6539 -3.5350 -0.1851
   41RES    H3616916   5.637   4.876   0.325 -0.0585  0.4439 -0.0783
   41RES    H3716917   5.472   4.951   0.495 -0.9151 -0.9293 -0.7693
   41RES    H3816918   5.562   4.876   0.624  1.6894  1.0553 -0.9047
   41RES    H3916919   5.454   4.734   0.377  1.8261 -1.1292 -0.1229
   41RES    H4016920   5.366   4.745   0.521  0.3034  1.6334 -0.4115
   41RES    H4116921   5.525   4.616   0.657 -1.1715 -1.1394 -0.6796
   41RES    H4216922   5.480   4.515   0.526 -2.2460  0.9991 -0.6198
   41RES    H4316923   5.635   4.600   0.527 -0.1197  0.7984 -0.3012
   41RES    C4416924   5.838   5.188   0.615 -0.1973 -0.4195  0.7368
   41RES    C4516925   5.762   5.271   0.723 -0.4982  0.9807 -0.2436
   41RES    C4616926   5.833   5.412   0.762  0.6582  0.1226  0.3266
   41RES    C4716927   5.985   5.392   0.792 -0.1021 -0.1641 -0.0599
   41RES    C4816928   6.050   5.510   0.869  0.4944 -0.3674  0.0444
   41RES    C4916929   6.026   5.646   0.791  0.3899  1.0929  0.3271
   41RES    C5016930   6.042   5.760   0.881  0.4304  0.4447 -0.4995
   41RES    H5116931   5.826   5.247   0.524 -1.7139 -2.1163 -0.2229
   41RES    H5216932   5.942   5.196   0.644 -0.3557 -0.2759  1.2805
   41RES    H5316933   5.767   5.224   0.822  0.0894  0.3790 -0.5572
   41RES    H5416934   5.780   5.471   0.837 -1.6284  0.9500 -1.8679
   41RES    H5516935   5.832   5.479   0.676 -0.4920 -0.3857 -0.0569
   41RES    H5616936   6.010   5.313   0.862 -0.4656 -1.5766 -1.5033
   41RES    H5716937   6.041   5.383   0.698 -1.1691  0.5763 -0.7865
   41RES    H5816938   6.156   5.490   0.882  0.2956 -1.1512  0.4541
   41RES    H5916939   6.003   5.513   0.967  0.5737  0.7864  0.0626
   41RES    H6016940   5.923   5.652   0.757 -0.2635 -1.2197  1.7756
   41RES    H6116941   6.089   5.649   0.702 -1.0429  2.8900 -0.6575
   41RES    H6216942   6.011   5.856   0.840 -0.8474  0.9082  1.4710
   41RES    H6316943   6.145   5.765   0.918  1.3535 -0.6194 -2.8527
   41RES    H6416944   5.973   5.733   0.961 -0.9775  0.7541 -1.5971
   41RES    C6516945   5.620   5.287   0.694  0.5495  0.5944 -0.3408
   41RES    C6616946   5.530   5.310   0.828 -0.4423 -0.7452 -0.4083
   41RES    C6716947   5.508   5.189   0.924 -0.1056  0.5622  0.5026
   41RES    C6816948   5.408   5.084   0.874 -0.7383  0.4513 -0.1102
   41RES    C6916949   5.403   4.953   0.948  0.1780  0.1303  0.3766
   41RES    C7016950   5.363   4.961   1.101 -0.2280 -0.4579 -0.5379
   41RES    C7116951   5.373   4.826   1.179  0.4268 -0.8498 -0.5805
   41RES    H7216952   5.622   5.362   0.614  2.2853 -0.5010 -1.3510
   41RES    H7316953   5.573   5.208   0.636  1.5680 -0.1240 -0.1887
   41RES    H7416954   5.585   5.374   0.898 -0.7546 -1.0079  0.0736
   41RES    H7516955   5.601   5.134   0.941  0.3108  0.1118 -2.9846
   41RES    H7616956   5.476   5.235   1.018 -1.0603  1.1622 -0.1087
   41RES    H7716957   5.310   5.130   0.882 -0.9920 -0.3704  1.8615
   41RES    H7816958   5.436   5.063   0.771 -1.6731  1.8804 -0.6687
   41RES    H7916959   5.328   4.888   0.906 -0.5796  1.4387 -0.3218
   41RES    H8016960   5.499   4.901   0.948 -0.4259 -0.9937 -1.6540
   41RES    H8116961   5.261   4.999   1.108 -0.3240 -1.0085  1.2266
   41RES    H8216962   5.424   5.040   1.144 -0.7938  0.8115 -1.9881
   41RES    H8316963   5.355   4.848   1.285 -0.4835 -2.8539 -0.2982
   41RES    H8416964   5.297   4.753   1.152 -0.3404 -0.5318  0.6805
   41RES    H8516965   5.467   4.775   1.160  1.5691  0.5524  1.1240
   41RES    C8616966   5.402   5.382   0.800 -0.3643  0.3159  0.7495
   41RES    C8716967   5.424   5.521   0.745 -0.1968  0.2553 -0.8274
   41RES    C8816968   5.280   5.576   0.717  0.3956  0.0338  0.6236
   41RES    C8916969   5.193   5.489   0.622  0.0292 -0.1362  0.6607
   41RES    C9016970   5.085   5.569   0.541  0.2528 -0.6201  0.1533
   41RES    C9116971   4.977   5.480   0.471 -0.2333  0.1873 -0.4207
   41RES    C9216972   5.020   5.387   0.357  0.7942 -0.5686  0.1027
   41RES    H9316973   5.345   5.311   0.740  0.8464 -0.7465  0.8310
   41RES    H9416974   5.335   5.395   0.885  1.3291  0.5968  2.0786
   41RES    H9516975   5.485   5.510   0.656  0.8598  0.4379 -0.1370
   41RES    H9616976   5.233   5.587   0.815  0.5147 -1.9436  0.9377
   41RES    H9716977   5.278   5.677   0.678 -0.8213 -0.3432 -0.2878
   41RES    H9816978   5.258   5.424   0.564  0.1417  1.0376 -0.5537
   41RES    H9916979   5.123   5.422   0.672  0.2892 -0.5526  0.4737
   41RES   H10016980   5.122   5.637   0.465  0.3361  0.9739  1.5851
   41RES   H10116981   5.028   5.636   0.607 -1.2699 -1.2102 -0.5302
   41RES   H10216982   4.938   5.406   0.541 -0.8392 -1.5095 -2.5135
   41RES   H10316983   4.902   5.552   0.438  0.2708  1.4296  1.0947
   41RES   H10416984   4.933   5.322   0.350  0.1590  0.3516 -0.6709
   41RES   H10516985   5.111   5.331   0.378  1.6480  0.5078 -0.6149
   41RES   H10616986   5.019   5.438   0.260  1.3790  0.7808  0.7949
   41RES   C10716987   5.501   5.616   0.842 -0.2575  0.5996 -0.1603
   41RES   C10816988   5.525   5.753   0.790  0.2227 -0.2590 -0.1146
   41RES   C10916989   5.622   5.830   0.891  0.0449  0.2794  0.9438
   41RES   C11016990   5.558   5.870   1.026 -0.0052 -0.6931 -0.3545
   41RES   C11116991   5.641   5.981   1.099 -0.5897  0.1287  0.0655
   41RES   C11216992   5.643   6.126   1.048 -0.2524 -0.0754 -0.7853
   41RES   C11316993   5.693   6.222   1.152 -0.1661  0.0611  0.4946
   41RES   H11416994   5.601   5.582   0.869 -0.3394  0.2048 -0.3636
   41RES   H11516995   5.439   5.628   0.931  1.1308  1.0048  0.7691
   41RES   H11616996   5.426   5.799   0.780  1.0597  1.8882  1.0039
   41RES   H11716997   5.653   5.926   0.848 -1.7229  0.2634 -0.4613
   41RES   H11816998   5.709   5.771   0.918  1.0583  1.2958 -0.0094
   41RES   H11916999   5.456   5.897   0.998  0.7518  2.2753 -0.3883
   41RES   H12017000   5.542   5.780   1.086  0.9137 -0.0062  0.9492
   41RES   H12117001   5.747   5.959   1.105 -1.0479 -1.7418  1.7459
   41RES   H12217002   5.616   5.996   1.204  1.3746 -0.0930  0.5739
   41RES   H12317003   5.700   6.128   0.956 -0.9911  1.9488 -1.2194
   41RES   H12417004   5.545   6.163   1.017 -1.4904 -4.0234 -1.9005
   41RES   H12517005   5.780   6.183   1.205 -0.5306 -0.4209  0.7326
   41RES   H12617006   5.721   6.322   1.117  0.6079  0.6612  2.7086
   41RES   H12717007   5.609   6.233   1.220 -1.2933  2.2319 -1.1812
   41RES   C12817008   5.585   5.756   0.647  0.4933 -0.1724  0.4990
   41RES   C12917009   5.595   5.896   0.577  0.0898 -0.7892  0.0992
   41RES   C13017010   5.460   5.971   0.572  0.0156  0.1215  0.2001
   41RES   C13117011   5.348   5.908   0.483 -0.9471 -0.6424  0.3875
   41RES   C13217012   5.209   5.949   0.531 -0.4969 -0.6178  0.8017
   41RES   C13317013   5.188   6.096   0.545 -0.1626  0.4398  0.0911
   41RES   C13417014   5.034   6.121   0.535  0.4801 -0.2226 -0.3796
   41RES   H13517015   5.685   5.713   0.659 -0.8727 -3.4114  0.7538
   41RES   H13617016   5.536   5.693   0.573  0.5619  1.3056 -0.8169
   41RES   H13717017   5.663   5.956   0.636 -0.2827  1.0184 -1.2709
   41RES   H13817018   5.478   6.074   0.539 -2.0101  0.3468 -0.2564
   41RES   H13917019   5.421   5.981   0.674 -2.3347 -0.0616 -0.6427
   41RES   H14017020   5.356   5.800   0.488 -1.1399 -0.5787  2.1055
   41RES   H14117021   5.366   5.928   0.377  0.8978 -1.5262  0.5169
   41RES   H14217022   5.182   5.899   0.624 -0.3042 -1.5432  0.3637
   41RES   H14317023   5.135   5.914   0.458 -0.6707  0.1239  0.6194
   41RES   H14417024   5.244   6.156   0.473  0.6480 -0.2762  0.1149
   41RES   H14517025   5.224   6.124   0.644 -3.1658  0.5056  1.2095
   41RES   H14617026   4.970   6.049   0.588  1.2993  0.2673  1.3311
   41RES   H14717027   4.994   6.129   0.434 -2.2252  1.6019  0.7890
   41RES   H14817028   5.020   6.221   0.577 -2.7872 -1.3782  1.4847
   41RES   C14917029   5.664   5.879   0.439  0.0504 -0.0236  0.0702
   41RES   C15017030   5.743   6.001   0.391 -0.2582  0.2195 -0.6497
   41RES   C15117031   5.782   6.005   0.237 -0.4502 -0.1086  0.3196
   41RES   C15217032   5.670   6.041   0.142 -0.1714 -0.0923  0.0974
   41RES   C15317033   5.720   6.073   7.726 -0.0425  1.2090  0.8011
   41RES   C15417034   5.613   6.096   7.625 -0.6581 -0.7001 -0.0186
   41RES   C15517035   5.671   6.111   7.484  0.2744  0.6417 -0.4436
   41RES   H15617036   5.730   5.793   0.445  1.3033  0.7968 -1.5576
   41RES   H15717037   5.599   5.853   0.356  1.1768 -1.7995 -0.2760
   41RES   H15817038   5.687   6.090   0.419 -0.2670  0.2654 -0.8102
   41RES   H15917039   5.872   6.063   0.216 -0.2810 -0.3053  0.4984
   41RES   H16017040   5.808   5.903   0.208  0.0917  0.9214 -3.0453
   41RES   H16117041   5.619   6.128   0.184  0.2636  0.4486 -0.4908
   41RES   H16217042   5.598   5.960   0.132 -1.2830  0.7281  1.1870
   41RES   H16317043   5.771   5.985   7.688 -0.6959  1.2699 -0.2202
   41RES   H16417044   5.783   6.162   0.006  2.1843 -0.3374  0.6100
   41RES   H16517045   5.549   6.185   7.633  0.0112  0.0418 -2.5258
   41RES   H16617046   5.544   6.012   7.636 -0.2557 -1.0021  0.2059
   41RES   H16717047   5.712   6.021   7.439 -2.0511  0.2080 -1.7454
   41RES   H16817048   5.754   6.182   7.481  1.5284 -0.7202  1.3573
   41RES   H16917049   5.594   6.149   7.417 -0.5014 -3.4382 -2.0050
   41RES   C17017050   5.876   5.999   0.469 -0.7983 -0.1125 -0.5636
   41RES   C17117051   5.959   6.130   0.486  0.3661 -0.1573  0.4887
   41RES   C17217052   5.889   6.223   0.593  0.7353 -0.4679 -0.7265
   41RES   C17317053   5.927   6.371   0.598  0.1711 -0.4580 -0.6907
   41RES   C17417054   5.825   6.451   0.683  0.7424  0.1128  0.2253
   41RES   C17517055   5.698   6.488   0.608 -0.8479 -0.3675 -0.8166
   41RES   C17617056   5.589   6.554   0.707  0.7605  0.4265  0.5476
   41RES   H17717057   5.937   5.918   0.428  0.2237  0.1896  0.3224
   41RES   H17817058   5.846   5.961   0.567  1.5228 -2.5723 -0.7544
   41RES   H17917059   5.962   6.186   0.393  0.6415  0.4155  0.8378
   41RES   H18017060   5.907   6.193   0.696  3.5510  2.9124 -0.1350
   41RES   H18117061   5.780   6.218   0.589  0.7009 -0.6810  0.2689
   41RES   H18217062   5.930   6.410   0.496 -0.8728 -2.4710 -1.5344
   41RES   H18317063   6.030   6.391   0.627 -0.1571  0.0668  0.1241
   41RES   H18417064   5.879   6.539   0.717 -0.7455  1.3553 -0.5612
   41RES   H18517065   5.808   6.398   0.776 -0.3305  0.2564  0.1183
   41RES   H18617066   5.648   6.398   0.571 -0.7241  1.0239 -4.5918
   41RES   H18717067   5.724   6.546   0.519 -1.2562  0.2393 -0.5499
   41RES   H18817068   5.560   6.479   0.780  1.4279 -2.4553 -2.0766
   41RES   H18917069   5.505   6.589   0.648  0.3594 -1.9164 -0.2993
   41RES   H19017070   5.628   6.642   0.759  0.3466  0.5364  0.6758
   41RES   C19117071   6.098   6.106   0.545  0.1100 -0.3104  0.3823
   41RES   C19217072   6.212   6.058   0.457  0.8004 -0.1110 -0.0033
   41RES   C19317073   6.243   6.141   0.335 -0.5926 -0.1981  0.2606
   41RES   C19417074   6.229   6.059   0.203 -0.3604  0.6690  0.1748
   41RES   C19517075   6.247   6.140   0.080 -0.0247 -0.6168 -0.0574
   41RES   C19617076   6.131   6.225   0.025  0.1093  0.1246  0.7654
   41RES   C19717077   6.170   6.303   7.613 -0.4609  0.3369  0.1592
   41RES   H19817078   6.074   6.029   0.619 -0.0522 -0.6377 -0.0062
   41RES   H19917079   6.144   6.185   0.604  0.6905 -0.2530 -0.1386
   41RES   H20017080   6.171   5.963   0.423  1.2607  0.3475 -1.8855
   41RES   H20117081   6.336   6.198   0.337 -1.9804  2.1077  0.9825
   41RES   H20217082   6.170   6.220   0.315  0.6331  0.9039  0.0878
   41RES   H20317083   6.134   6.006   0.209 -0.1785  0.4875  1.4041
   41RES   H20417084   6.297   5.974   0.209  0.5958  1.4097 -0.0720
   41RES   H20517085   6.335   6.201   0.100 -1.4649  2.2176 -2.0213
   41RES   H20617086   6.275   6.070   0.002  2.2420 -0.3262  0.4762
   41RES   H20717087   6.109   6.304   0.097 -0.0866  1.8588 -1.1500
   41RES   H20817088   6.041   6.163   0.018 -0.0584  0.2413  1.8508
   41RES   H20917089   6.174   6.238   7.525  0.5374  1.0538 -0.3357
   41RES   H21017090   6.270   6.345   7.620  0.9664 -3.0644  1.4248
   41RES   H21117091   6.109   6.390   7.588 -2.5106 -1.3528 -0.8929
   41RES   C21217092   6.331   6.031   0.548 -0.0066 -0.1726  0.1800
   41RES   C21317093   6.447   5.939   0.495  0.0291 -0.8621  0.2032
   41RES   C21417094   6.567   5.943   0.595  0.0446  0.2594 -0.4178
   41RES   C21517095   6.607   6.081   0.628 -0.5683  0.0209  0.1449
   41RES   C21617096   6.753   6.093   0.685 -0.3588 -0.0753 -0.6044
   41RES   C21717097   6.808   6.235   0.701  0.4650 -0.6722 -0.3206
   41RES   C21817098   6.730   6.311   0.811  0.2539 -0.2102  1.1652
   41RES   H21917099   6.294   5.999   0.646  0.5119  0.1783  0.4890
   41RES   H22017100   6.363   6.129   0.583 -0.7479 -0.3910  1.4935
   41RES   H22117101   6.477   5.989   0.403  0.3000  0.8272  1.2067
   41RES   H22217102   6.560   5.872   0.677 -1.6447  2.1273  1.0886
   41RES   H22317103   6.651   5.898   0.542  1.6353  1.6352  0.8882
   41RES   H22417104   6.543   6.136   0.696 -1.9236  0.6399 -1.5874
   41RES   H22517105   6.606   6.140   0.537  3.4588  0.6891  0.4631
   41RES   H22617106   6.754   6.035   0.778 -2.2448 -0.1907 -0.6281
   41RES   H22717107   6.830   6.049   0.621  1.2191  1.8221 -0.0518
   41RES   H22817108   6.915   6.229   0.724  0.1130 -2.8509  0.8622
   41RES   H22917109   6.812   6.285   0.605 -2.4972  0.1910 -0.0330
   41RES   H23017110   6.622   6.324   0.804  0.0291 -1.4067  2.3040
   41RES   H23117111   6.766   6.414   0.811  3.5446 -1.2866  0.3533
   41RES   H23217112   6.761   6.270   0.907  2.1394 -0.4461  0.4635
   41RES   C23317113   6.391   5.801   0.467  0.1465  0.1470  0.3623
   41RES   C23417114   6.496   5.692   0.435 -0.0173  0.5349  0.1986
   41RES   C23517115   6.439   5.545   0.448 -0.9015 -0.1484 -0.0926
   41RES   C23617116   6.342   5.497   0.337 -0.2277  0.0597 -0.2432
   41RES   C23717117   6.254   5.378   0.380 -0.3757 -0.0857 -0.5162
   41RES   C23817118   6.186   5.321   0.265  0.0875 -0.1009 -0.1863
   41RES   C23917119   6.080   5.217   0.313  0.6802 -0.2007  0.3303
   41RES   H24017120   6.319   5.807   0.385  1.4057 -2.7060 -1.0165
   41RES   H24117121   6.339   5.766   0.556 -1.8122  1.0009 -0.3992
   41RES   H24217122   6.566   5.694   0.519  0.4612  1.5610 -0.2152
   41RES   H24317123   6.393   5.548   0.547  1.1030  1.4828  0.8168
   41RES   H24417124   6.520   5.473   0.444 -1.7409 -1.2507  1.8120
   41RES   H24517125   6.390   5.469   0.244  3.7465  1.8475  1.1243
   41RES   H24617126   6.280   5.581   0.308 -0.5880 -1.4273 -4.0959
   41RES   H24717127   6.175   5.421   0.443 -0.4835 -1.6731  0.4492
   41RES   H24817128   6.316   5.299   0.422  2.3380  0.0565 -4.0641
   41RES   H24917129   6.135   5.403   0.215 -1.2363  0.0173  1.3274
   41RES   H25017130   6.265   5.282   0.201 -0.4515 -0.2805 -0.7499
   41RES   H25117131   6.123   5.126   0.354 -0.4215  0.1889  2.4460
   41RES   H25217132   6.008   5.269   0.376  0.8117  1.2383 -0.6803
   41RES   H25317133   6.018   5.185   0.230  0.1988  0.2005  0.5320
   41RES   C25417134   6.570   5.714   0.294 -0.3669 -0.4691  0.2816
   41RES   C25517135   6.689   5.621   0.271  1.0942 -0.3658 -0.0795
   41RES   C25617136   6.809   5.655   0.365 -0.0764  0.1005  0.3710
   41RES   C25717137   6.895   5.774   0.313  0.1029 -0.1733  0.6078
   41RES   C25817138   7.012   5.799   0.400  0.2873 -0.1458  0.2308
   41RES   C25917139   7.067   5.944   0.387  0.0524  0.0780  0.4401
   41RES   C26017140   7.182   5.990   0.475 -0.1165  0.4877  0.1766
   41RES   H26117141   6.592   5.820   0.299 -3.2803  0.1342  1.0917
   41RES   H26217142   6.497   5.698   0.215  0.9649  1.2166 -1.3417
   41RES   H26317143   6.668   5.516   0.292  0.8314 -0.3557 -0.2912
   41RES   H26417144   6.873   5.567   0.363 -0.6453 -0.3272  1.1017
   41RES   H26517145   6.776   5.667   0.468  0.8763 -0.1839  0.7108
   41RES   H26617146   6.933   5.775   0.210  0.5791 -1.1755  0.7650
   41RES   H26717147   6.833   5.863   0.313  0.1446 -0.1471  1.5745
   41RES   H26817148   7.098   5.737   0.374 -0.7449 -0.2878 -3.1123
   41RES   H26917149   6.998   5.786   0.507  0.6243 -2.8468 -0.0381
   41RES   H27017150   7.089   5.969   0.284  1.7288  0.0049  0.7696
   41RES   H27117151   6.984   6.009   0.417  0.6885  0.6939  0.8802
   41RES   H27217152   7.156   5.994   0.580  0.2655  0.1769  0.2866
   41RES   H27317153   7.269   5.925   0.464 -2.0180 -1.9259 -1.3714
   41RES   H27417154   7.201   6.089   0.436 -1.7613  1.0261  0.6875
   41RES   C27517155   6.729   5.606   0.123 -0.0597 -0.2137 -0.0889
   41RES   C27617156   6.826   5.484   0.083 -0.5308 -1.2175 -0.3947
   41RES   C27717157   6.897   5.497   7.673  0.4045  0.0074 -0.7668
   41RES   C27817158   7.008   5.604   7.677  0.1660  0.0080  0.1906
   41RES   C27917159   7.042   5.657   7.535  0.6748 -0.3849 -0.3301
   41RES   C28017160   7.162   5.746   7.534 -0.0403  0.4674 -0.8789
   41RES   C28117161   7.184   5.788   7.390  0.2600 -0.7091  0.6420
   41RES   H28217162   6.767   5.698   0.081 -1.3104 -0.0036 -0.7752
   41RES   H28317163   6.636   5.586   0.069  0.6216 -2.7533 -0.3869
   41RES   H28417164   6.906   5.481   0.158 -0.5901  2.5583 -0.0784
   41RES   H28517165   6.935   5.402   7.633  2.0155  0.4610 -0.3662
   41RES   H28617166   6.823   5.543   7.607  0.4834 -1.6143 -2.0253
   41RES   H28717167   7.096   5.575   0.008  2.0693 -1.0862 -3.0615
   41RES   H28817168   6.976   5.693   0.002 -0.7727  0.4739 -1.1572
   41RES   H28917169   6.957   5.699   7.481  0.3539 -0.6648 -0.0400
   41RES   H29017170   7.054   5.564   7.479 -1.5998 -1.9908  1.7269
   41RES   H29117171   7.152   5.839   7.590 -0.2419  1.0745 -1.9001
   41RES   H29217172   7.241   5.694   7.588 -2.2647 -1.5381  0.5343
   41RES   H29317173   7.288   5.822   7.389  0.5434 -1.5697  0.0469
   41RES   H29417174   7.103   5.856   7.365  1.3156 -0.0518 -1.1258
   41RES   H29517175   7.175   5.699   7.328 -1.4221  1.1897 -1.9236
   41RES   C29617176   6.759   5.353   0.095 -0.1904 -0.2179  0.6659
   41RES   C29717177   6.828   5.219   0.124 -0.0247  0.2137 -0.2219
   41RES   C29817178   6.746   5.093   0.085  0.5321  0.4605  0.0948
   41RES   C29917179   6.766   5.040   7.673  0.3374 -0.4005  0.3133
   41RES   C30017180   6.677   4.918   7.647  0.2769 -0.2384 -0.3056
   41RES   C30117181   6.704   4.854   7.505  0.8126  0.6750 -0.9734
   41RES   C30217182   6.626   4.731   7.470  0.7524 -0.2348  0.2723
   41RES   H30317183   6.675   5.348   0.165  0.9829 -0.7291  2.0567
   41RES   H30417184   6.727   5.333   7.720 -1.0769 -1.2298  1.1333
   41RES   H30517185   6.916   5.210   0.060  0.5745  2.1356  0.3129
   41RES   H30617186   6.784   5.012   0.146  0.4322  0.6283  0.3845
   41RES   H30717187   6.639   5.112   0.099 -0.1582 -1.4339 -2.3318
   41RES   H30817188   6.866   4.998   7.669 -0.7821 -3.2555  0.7845
   41RES   H30917189   6.745   5.108   7.590 -1.5831 -0.8583  0.3921
   41RES   H31017190   6.573   4.951   7.653  0.9303  1.8809 -0.2857
   41RES   H31117191   6.707   4.843   7.719 -2.8158  0.9214  2.2827
   41RES   H31217192   6.693   4.929   7.427 -1.1258 -0.5425 -1.9052
   41RES   H31317193   6.809   4.826   7.499  0.3628 -0.7786 -2.4778
   41RES   H31417194   6.649   4.660   7.549 -1.4683 -0.9084  0.3724
   41RES   H31517195   6.518   4.743   7.479  0.6816 -1.3366  1.0610
   41RES   H31617196   6.646   4.677   7.377  1.3431 -0.1375  0.3468
   41RES   C31717197   6.885   5.205   0.264  0.1470  0.2737  0.0272
   41RES   C31817198   6.788   5.236   0.382 -0.6273 -0.6626  0.4140
   41RES   C31917199   6.657   5.150   0.381  0.5136 -0.4425 -0.1891
   41RES   C32017200   6.688   5.004   0.406  0.0594  0.3487  0.2503
   41RES   C32117201   6.554   4.930   0.430 -0.6355 -0.1542  0.4511
   41RES   C32217202   6.467   4.908   0.308 -0.0836 -0.3387  0.1479
   41RES   C32317203   6.332   4.849   0.334 -0.0533  0.7302 -0.1730
   41RES   H32417204   6.967   5.274   0.286  0.2167  0.7246 -1.5961
   41RES   H32517205   6.929   5.106   0.272  2.7992  1.3447 -0.5945
   41RES   H32617206   6.760   5.341   0.367 -0.2119 -0.5432  0.4686
   41RES   H32717207   6.602   5.161   0.288 -0.8442  0.2225  0.6664
   41RES   H32817208   6.581   5.192   0.448 -1.5992  2.0565 -3.9767
   41RES   H32917209   6.737   4.993   0.504 -1.9667  0.9509  1.3530
   41RES   H33017210   6.749   4.963   0.326  0.2731 -0.6478  0.9080
   41RES   H33117211   6.504   4.975   0.515  1.3690 -0.1541  1.6483
   41RES   H33217212   6.587   4.833   0.466  0.4259  0.6522  1.6910
   41RES   H33317213   6.516   4.848   0.232 -1.1354 -1.0198  0.0002
   41RES   H33417214   6.450   5.012   0.279  2.5747  0.0115 -0.3405
   41RES   H33517215   6.291   4.848   0.233  1.1877  0.6255 -0.6810
   41RES   H33617216   6.273   4.914   0.400 -0.0963  0.4083  0.1041
   41RES   H33717217   6.347   4.748   0.372  0.0950 -0.0081 -2.1925
   41RES   C33817218   6.871   5.248   0.515 -0.0460  0.3536  0.0452
   41RES   C33917219   6.788   5.277   0.643 -0.2067  0.3264 -0.0696
   41RES   C34017220   6.733   5.419   0.642 -0.0487 -0.3673  0.0471
   41RES   C34117221   6.611   5.433   0.737  0.3367 -0.8161  0.0435
   41RES   C34217222   6.601   5.570   0.825  0.0095  0.2796  0.5749
   41RES   C34317223   6.458   5.590   0.890 -0.3148  0.5096  0.3419
   41RES   C34417224   6.451   5.715   0.967 -0.0272  0.3273 -0.3439
   41RES   H34517225   6.938   5.332   0.501 -0.4614  0.3192 -2.4182
   41RES   H34617226   6.929   5.156   0.520  1.2915  0.9640 -3.0472
   41RES   H34717227   6.706   5.206   0.646  0.4852 -0.4483  0.7321
   41RES   H34817228   6.800   5.496   0.679 -2.0190  1.3860  0.0550
   41RES   H34917229   6.703   5.443   0.540  3.3595  2.1875 -0.4344
   41RES   H35017230   6.606   5.351   0.809  0.3175 -0.7822  0.0800
   41RES   H35117231   6.526   5.438   0.670  0.3169  3.0965  0.2304
   41RES   H35217232   6.676   5.580   0.903 -1.1664  1.3623  1.5885
   41RES   H35317233   6.605   5.655   0.756  3.4592  0.6808  1.2115
   41RES   H35417234   6.377   5.602   0.818  0.7781 -1.1770 -1.1870
   41RES   H35517235   6.427   5.509   0.955 -0.8523  1.3772  1.1802
   41RES   H35617236   6.541   5.772   0.990  0.2955  0.5924 -2.2114
   41RES   H35717237   6.380   5.709   1.049  1.2744  0.9105  0.8427
   41RES   H35817238   6.397   5.793   0.913 -0.3296 -0.0694 -0.6168
   41RES   C35917239   6.889   5.255   0.759 -0.4521  0.7305  0.1384
   41RES   C36017240   6.903   5.114   0.819  0.1636 -0.0713  0.3369
   41RES   C36117241   7.043   5.096   0.891  0.0917 -0.3542 -0.1373
   41RES   C36217242   7.079   5.205   1.004 -0.4909  0.0989 -0.1863
   41RES   C36317243   7.231   5.225   1.046 -0.1558  0.0673 -0.1892
   41RES   C36417244   7.260   5.350   1.139 -0.1950 -0.3784 -0.0205
   41RES   C36517245   7.410   5.361   1.176 -0.0039  0.5901 -1.2567
   41RES   H36617246   6.872   5.314   0.849  2.5497  0.0099  1.2216
   41RES   H36717247   6.985   5.295   0.726  1.6074 -3.2663  0.9898
   41RES   H36817248   6.915   5.043   0.737  1.3159  0.6319 -0.1263
   41RES   H36917249   7.047   4.995   0.932  2.1487  0.9479  3.0994
   41RES   H37017250   7.128   5.114   0.826  0.8888  1.0003  1.2312
   41RES   H37117251   7.045   5.305   0.977 -1.1923 -0.5199 -1.6841
   41RES   H37217252   7.031   5.175   1.097  0.2665 -1.5402 -0.3046
   41RES   H37317253   7.258   5.130   1.091 -0.1115  0.3778  0.4459
   41RES   H37417254   7.289   5.238   0.955 -1.5306  1.1889 -0.9458
   41RES   H37517255   7.243   5.448   1.096 -3.8158  0.0297  2.1447
   41RES   H37617256   7.209   5.353   1.235 -0.8987  1.4251 -0.4312
   41RES   H37717257   7.487   5.372   1.099 -0.0632  1.1509 -1.2340
   41RES   H37817258   7.416   5.448   1.240 -0.6320 -1.5740  1.8618
   41RES   H37917259   7.448   5.283   1.241  0.4791  0.5564 -1.5762
   41RES   C38017260   6.781   5.089   0.915  0.4250  0.5107  0.4686
   41RES   C38117261   6.733   4.948   0.927  0.1166  0.5005  0.1387
   41RES   C38217262   6.679   4.925   1.073  0.8315  0.2653  0.9941
   41RES   C38317263   6.793   4.926   1.175 -0.7438 -0.1575  0.7264
   41RES   C38417264   6.748   4.934   1.325  0.2931  0.9083 -0.1478
   41RES   C38517265   6.859   4.920   1.435 -0.1475 -0.2029  0.0347
   41RES   C38617266   6.959   5.031   1.426 -0.0364  0.2033 -0.1061
   41RES   H38717267   6.793   5.139   1.011 -1.3430  2.1225 -0.1113
   41RES   H38817268   6.695   5.138   0.870  0.8738  0.0047 -0.9694
   41RES   H38917269   6.820   4.884   0.916 -0.4514 -0.2647  0.0977
   41RES   H39017270   6.631   4.827   1.077 -1.0707  1.1424  0.3327
   41RES   H39117271   6.612   5.007   1.098  1.6765  1.2762 -0.0307
   41RES   H39217272   6.845   4.832   1.155 -0.6917  0.1888 -0.8752
   41RES   H39317273   6.861   5.010   1.162  1.4541 -2.2054 -1.5205
   41RES   H39417274   6.687   5.024   1.339 -0.3105  0.5537 -0.4630
   41RES   H39517275   6.677   4.853   1.344  3.0180 -1.2128  1.3018
   41RES   H39617276   6.900   4.820   1.450 -1.4118 -1.1540 -2.5242
   41RES   H39717277   6.807   4.933   1.530 -1.2034  1.4281 -0.7453
   41RES   H39817278   6.925   5.134   1.414  1.0614  0.4551 -1.1237
   41RES   H39917279   7.016   5.014   1.335  0.6469 -2.9182  0.8518
   41RES   H40017280   7.034   5.036   1.506  0.0886  0.2695 -0.2261
   41RES   C40117281   6.633   4.899   0.820  0.2212 -0.5077  0.0346
   41RES   C40217282   6.589   4.752   0.832  0.0017  0.4074 -0.0532
   41RES   C40317283   6.483   4.729   0.728 -0.6833  0.0765 -0.2843
   41RES   C40417284   6.377   4.616   0.746 -0.2926  0.0879  0.7235
   41RES   C40517285   6.288   4.586   0.624 -0.3461 -0.7569  0.0614
   41RES   C40617286   6.184   4.469   0.655  0.3997 -0.2563  0.0408
   41RES   C40717287   6.080   4.457   0.546  0.0304  0.1955 -0.2021
   41RES   H40817288   6.686   4.924   0.728  0.6572 -1.6464 -0.0275
   41RES   H40917289   6.545   4.964   0.820  1.3529  1.1107 -2.6417
   41RES   H41017290   6.542   4.736   0.928  0.4224  2.6317  0.5554
   41RES   H41117291   6.530   4.716   0.631  0.0449 -1.3490  0.2341
   41RES   H41217292   6.429   4.822   0.708 -0.0426  0.1425 -1.7136
   41RES   H41317293   6.300   4.640   0.818  0.5198  0.2217  1.5614
   41RES   H41417294   6.430   4.523   0.767  1.3960  1.1753  1.4211
   41RES   H41517295   6.229   4.671   0.591 -0.5621 -0.4402  1.2095
   41RES   H41617296   6.348   4.553   0.540 -0.3515 -0.0575 -0.2210
   41RES   H41717297   6.232   4.372   0.661 -0.0445 -0.5994 -1.7964
   41RES   H41817298   6.127   4.487   0.746 -0.9279 -1.1728 -0.6052
   41RES   H41917299   6.014   4.371   0.562 -0.2381  0.4667  0.1646
   41RES   H42017300   6.126   4.445   0.448 -1.9757 -1.2025 -1.0057
   41RES   H42117301   6.016   4.546   0.549  0.2229  0.2878  2.1140
   41RES   H42217302   6.677   4.687   0.836  1.1881  2.0195  0.9551
   42RES     C117303   1.713   3.869   4.269  0.0490  0.0195 -0.0332
   42RES     C217304   1.693   3.928   4.131 -0.1763 -0.4309  0.3634
   42RES     C317305   1.807   3.869   4.039  0.4381  0.0281  0.0470
   42RES     C417306   1.780   3.725   3.986  0.1979  0.2235 -0.0246
   42RES     C517307   1.892   3.663   3.898  0.4566  0.1583  0.1525
   42RES     C617308   1.858   3.523   3.834 -0.9103 -0.8709 -0.5795
   42RES     C717309   1.769   3.533   3.718 -0.0632 -0.2542 -0.1096
   42RES     H817310   1.806   3.902   4.317  0.7414 -0.7449 -0.8174
   42RES     H917311   1.723   3.760   4.263 -0.0894  0.0743 -1.3613
   42RES    H1017312   1.593   3.905   4.094 -0.6237  2.4793 -0.3382
   42RES    H1117313   1.811   3.934   3.951 -1.3128 -0.3184 -0.3036
   42RES    H1217314   1.902   3.880   4.092  0.2021  2.5858  0.0211
   42RES    H1317315   1.746   3.659   4.065 -0.8679  2.4278  1.4170
   42RES    H1417316   1.688   3.728   3.928  0.4894  3.2279 -0.4178
   42RES    H1517317   1.981   3.637   3.955  0.6011 -0.8850 -0.5243
   42RES    H1617318   1.908   3.742   3.824 -0.9327  2.0449  1.8170
   42RES    H1717319   1.808   3.470   3.915 -1.0091  0.9899  0.5985
   42RES    H1817320   1.955   3.477   3.814 -0.5247  0.0628 -0.8859
   42RES    H1917321   1.812   3.579   3.629 -3.1501 -2.6085 -2.9527
   42RES    H2017322   1.667   3.571   3.716  0.7423  1.8833 -0.8831
   42RES    H2117323   1.755   3.429   3.686  2.8819 -0.5620 -0.5784
   42RES    H2217324   1.628   3.894   4.332 -1.6039 -0.9211 -1.8153
   42RES    C2317325   1.690   4.079   4.138  0.1058  0.2371  0.4992
   42RES    C2417326   1.666   4.162   4.009 -0.5168  0.4024  0.3835
   42RES    C2517327   1.689   4.315   4.023  0.0597 -0.5082  0.8896
   42RES    C2617328   1.816   4.378   4.084 -0.2089  0.6475  0.2155
   42RES    C2717329   1.840   4.531   4.036  0.0792  0.3577 -0.7770
   42RES    C2817330   1.765   4.628   4.127 -0.1681 -0.0051  0.1545
   42RES    C2917331   1.858   4.664   4.248 -0.0303 -0.8642 -0.2575
   42RES    H3017332   1.607   4.101   4.205 -0.3901  1.2372 -0.4140
   42RES    H3117333   1.771   4.119   4.198  0.8271  1.8910 -1.5255
   42RES    H3217334   1.753   4.127   3.953  0.3051  0.9874  1.2605
   42RES    H3317335   1.608   4.367   4.074 -0.6634  0.2089 -0.9638
   42RES    H3417336   1.698   4.340   3.917  0.4853 -0.1328  1.0144
   42RES    H3517337   1.909   4.327   4.059 -1.4940 -1.9527  0.5925
   42RES    H3617338   1.811   4.368   4.192  1.2325  0.0721  0.2455
   42RES    H3717339   1.821   4.546   3.930 -1.1694 -0.8453 -0.7443
   42RES    H3817340   1.945   4.559   4.034  0.1389  0.0908 -1.3043
   42RES    H3917341   1.661   4.606   4.151 -0.2832 -0.0132 -0.3475
   42RES    H4017342   1.778   4.726   4.080  0.1357  0.2106  0.6798
   42RES    H4117343   1.954   4.707   4.217  0.8279 -1.2064  1.8504
   42RES    H4217344   1.815   4.752   4.294 -1.2067 -2.3981  1.6234
   42RES    H4317345   1.874   4.581   4.317  1.9285 -0.0033  0.3725
   42RES    C4417346   1.533   4.131   3.943 -0.6202 -0.7701 -0.0193
   42RES    C4517347   1.540   4.033   3.815  1.0731 -0.0677 -0.6045
   42RES    C4617348   1.414   3.952   3.780 -0.1403  0.0384 -0.6941
   42RES    C4717349   1.385   3.833   3.878 -0.7162  0.4808 -0.5588
   42RES    C4817350   1.240   3.825   3.934  0.0617 -0.2672  0.6756
   42RES    C4917351   1.204   3.930   4.039  0.1347  0.0131  0.2852
   42RES    C5017352   1.054   3.923   4.057 -0.0324 -0.6134  0.2311
   42RES    H5117353   1.475   4.222   3.929 -0.9072 -0.7171  1.4988
   42RES    H5217354   1.471   4.072   4.011  1.6169 -1.4494  1.4919
   42RES    H5317355   1.610   3.951   3.831  0.4033 -1.1949 -3.1538
   42RES    H5417356   1.422   3.918   3.676 -0.1505 -1.6782 -0.1467
   42RES    H5517357   1.330   4.021   3.778  0.2917  0.5737 -0.4043
   42RES    H5617358   1.413   3.742   3.825  2.3902  1.5940 -0.9182
   42RES    H5717359   1.460   3.835   3.957  0.7108 -2.1113 -1.7794
   42RES    H5817360   1.229   3.726   3.979 -0.8507 -1.6055 -2.3737
   42RES    H5917361   1.168   3.836   3.853 -1.9216 -2.2008  2.0898
   42RES    H6017362   1.224   4.033   4.009  2.1140  0.1291  1.9309
   42RES    H6117363   1.260   3.899   4.127  2.0691  0.4143 -0.7680
   42RES    H6217364   0.994   3.929   3.966 -0.9249  2.0221  0.9309
   42RES    H6317365   1.029   4.001   4.129  2.5561 -0.7251  1.2732
   42RES    H6417366   1.035   3.823   4.094  0.2608 -0.8196 -0.1702
   42RES    C6517367   1.583   4.127   3.700  0.2904 -0.1726  0.7538
   42RES    C6617368   1.671   4.051   3.596 -0.7079  0.0565  0.2580
   42RES    C6717369   1.824   4.057   3.638  0.1043  0.9024  0.6606
   42RES    C6817370   1.887   4.192   3.612 -0.0782 -0.3255 -0.0261
   42RES    C6917371   2.016   4.208   3.681  0.0978 -0.4188 -0.0605
   42RES    C7017372   2.068   4.354   3.671  0.0851 -0.9179 -0.2632
   42RES    C7117373   2.088   4.405   3.530  0.2564 -0.0045 -0.1844
   42RES    H7217374   1.489   4.158   3.654  2.0670  2.9196 -0.9533
   42RES    H7317375   1.630   4.223   3.719 -1.4424  1.2958 -2.0310
   42RES    H7417376   1.649   3.944   3.606 -0.6727 -0.0776 -1.1043
   42RES    H7517377   1.822   4.017   3.739 -0.1370 -1.7888 -0.3675
   42RES    H7617378   1.879   3.989   3.573  1.6670  0.8903  1.9650
   42RES    H7717379   1.900   4.209   3.506  1.5974  0.8527  0.3434
   42RES    H7817380   1.819   4.269   3.650 -0.5666  1.0311 -3.4705
   42RES    H7917381   2.007   4.185   3.787 -0.1141 -3.0073 -0.6179
   42RES    H8017382   2.079   4.126   3.647 -0.8411 -1.8456  1.6205
   42RES    H8117383   2.168   4.363   3.712 -1.2842  0.7065  2.9970
   42RES    H8217384   1.999   4.422   3.722  0.5206 -2.0302  1.8793
   42RES    H8317385   2.168   4.356   3.476 -0.0194  0.7737 -1.3070
   42RES    H8417386   1.997   4.393   3.472  1.8555  2.1045 -3.2741
   42RES    H8517387   2.104   4.513   3.529  1.8327 -0.2209  0.1529
   42RES    C8617388   1.647   4.104   3.457 -0.7682  0.4788 -0.0576
   42RES    C8717389   1.717   4.036   3.341 -0.1867  0.2176  0.7948
   42RES    C8817390   1.659   3.895   3.314  0.7716 -0.3900  0.2113
   42RES    C8917391   1.761   3.806   3.233  0.8250  0.2225  0.1220
   42RES    C9017392   1.698   3.665   3.216  1.2652  0.0886 -0.1669
   42RES    C9117393   1.779   3.571   3.121 -0.1553  0.6435  0.6401
   42RES    C9217394   1.926   3.532   3.163 -0.2284 -0.1784 -0.4224
   42RES    H9317395   1.548   4.086   3.417 -0.7214  0.8129 -0.3213
   42RES    H9417396   1.650   4.213   3.461  0.4440  0.4588 -0.0091
   42RES    H9517397   1.821   4.016   3.367  0.1246  0.7776  0.0031
   42RES    H9617398   1.631   3.843   3.406 -0.4434 -0.2638 -0.0796
   42RES    H9717399   1.562   3.915   3.268  2.0302  2.7389 -1.2585
   42RES    H9817400   1.776   3.857   3.137 -1.1293  1.2465  0.3229
   42RES    H9917401   1.857   3.809   3.283  1.2083 -1.4493 -0.5050
   42RES   H10017402   1.595   3.682   3.186  0.8176  0.2444  1.4586
   42RES   H10117403   1.685   3.622   3.315  0.9224 -1.5782 -0.9237
   42RES   H10217404   1.731   3.473   3.119 -0.7975  0.9602  0.6004
   42RES   H10317405   1.793   3.620   3.025 -0.3280  0.4323  0.5061
   42RES   H10417406   1.969   3.455   3.099 -0.7746 -0.0579 -0.9389
   42RES   H10517407   1.937   3.502   3.268  1.2643 -1.4620 -0.9371
   42RES   H10617408   2.003   3.609   3.168  2.0362 -2.3941  0.2492
   42RES   C10717409   1.722   4.116   3.205 -0.1676 -0.1421  0.2912
   42RES   C10817410   1.816   4.242   3.204  0.4766  0.4335  0.3347
   42RES   C10917411   1.964   4.194   3.205  0.4185  0.0800 -0.2650
   42RES   C11017412   2.007   4.130   3.075 -0.0253 -0.0500 -0.5966
   42RES   C11117413   2.153   4.081   3.089 -0.6511 -0.4192 -0.1394
   42RES   C11217414   2.213   4.036   2.952 -0.2749 -0.4775 -0.3323
   42RES   C11317415   2.146   3.903   2.908 -0.4814  0.0017 -0.1448
   42RES   H11417416   1.620   4.153   3.210 -0.0289 -0.0593  2.7820
   42RES   H11517417   1.739   4.060   3.113  3.3890  0.9967  0.1890
   42RES   H11617418   1.811   4.293   3.300 -2.1272 -1.0633  1.0674
   42RES   H11717419   1.996   4.130   3.287  2.2599 -0.8577 -1.6725
   42RES   H11817420   2.025   4.283   3.221 -0.7620  0.7702  0.5178
   42RES   H11917421   1.942   4.054   3.032 -1.9609 -0.9971  3.7321
   42RES   H12017422   2.014   4.218   3.010 -0.4970  1.1387  0.9429
   42RES   H12117423   2.162   3.998   3.159  0.5739 -1.5555 -1.6090
   42RES   H12217424   2.222   4.156   3.129 -0.0224 -0.0531 -1.8594
   42RES   H12317425   2.188   4.112   2.878 -3.4839 -0.6075  0.5125
   42RES   H12417426   2.318   4.011   2.963  0.2203  1.6808 -0.0348
   42RES   H12517427   2.195   3.855   2.824  1.8751  0.0284  1.1690
   42RES   H12617428   2.151   3.832   2.991  2.7530 -0.0039 -0.2948
   42RES   H12717429   2.039   3.918   2.891 -0.4298  2.1812  1.2780
   42RES   C12817430   1.767   4.346   3.098 -0.6207  0.2103  0.7317
   42RES   C12917431   1.852   4.474   3.089 -0.1722  0.7016 -0.5238
   42RES   C13017432   1.863   4.564   3.213  0.2988 -0.2434 -1.0737
   42RES   C13117433   1.724   4.591   3.274  0.5674 -0.2293  0.0366
   42RES   C13217434   1.725   4.689   3.396  0.3981 -0.1041 -0.0019
   42RES   C13317435   1.598   4.675   3.481  0.9596  0.2581 -0.3564
   42RES   C13417436   1.607   4.545   3.572  0.1101 -0.2106 -0.0489
   42RES   H13517437   1.771   4.297   3.002 -1.1470 -0.7369  1.1862
   42RES   H13617438   1.664   4.379   3.118 -0.6239  0.0276  1.0224
   42RES   H13717439   1.956   4.444   3.072 -0.4131 -1.5334  1.6594
   42RES   H13817440   1.908   4.662   3.194 -1.0816  0.8348  1.0071
   42RES   H13917441   1.934   4.521   3.284 -1.5636 -1.9661 -0.2139
   42RES   H14017442   1.680   4.497   3.305 -0.3428 -0.6456 -2.3634
   42RES   H14117443   1.652   4.643   3.209  1.0443 -1.7787 -1.7813
   42RES   H14217444   1.740   4.786   3.348  1.9669 -1.2295 -1.8417
   42RES   H14317445   1.811   4.673   3.461 -0.6492  2.4557  2.0993
   42RES   H14417446   1.504   4.671   3.426  0.3048  2.7460  0.5371
   42RES   H14517447   1.583   4.746   3.562 -1.2524 -2.6221  1.8878
   42RES   H14617448   1.684   4.477   3.537  1.7499  0.9126  1.3330
   42RES   H14717449   1.514   4.489   3.579 -0.0676  0.3458  2.7912
   42RES   H14817450   1.636   4.577   3.672 -1.5026 -0.4980  0.5288
   42RES   C14917451   1.807   4.560   2.973  0.5533 -1.1266 -0.6847
   42RES   C15017452   1.805   4.511   2.829  0.0584  0.3166  0.2040
   42RES   C15117453   1.952   4.486   2.795  0.1158  0.2508  0.3265
   42RES   C15217454   1.977   4.409   2.665 -0.3607 -0.2590  0.1488
   42RES   C15317455   1.983   4.259   2.682 -0.3365 -0.0506  0.5177
   42RES   C15417456   2.009   4.198   2.542 -0.2246 -0.0797 -0.0734
   42RES   C15517457   2.051   4.054   2.551 -0.0617  0.9443 -1.2462
   42RES   H15617458   1.705   4.592   2.993  1.5403  0.9929  1.1342
   42RES   H15717459   1.859   4.656   2.979 -0.9236 -0.3736  0.4782
   42RES   H15817460   1.754   4.414   2.823  2.0706 -0.6035 -4.0185
   42RES   H15917461   1.998   4.584   2.798  0.1577  0.2067  1.0429
   42RES   H16017462   2.008   4.443   2.877 -1.7633  2.5309  2.8864
   42RES   H16117463   2.070   4.450   2.626 -1.1653  0.8774 -0.5984
   42RES   H16217464   1.902   4.426   2.588 -0.5979 -2.2466 -0.1013
   42RES   H16317465   1.901   4.218   2.740  1.6567 -1.1893  2.6357
   42RES   H16417466   2.073   4.246   2.743 -0.0334 -1.7922 -0.2723
   42RES   H16517467   2.088   4.253   2.490  1.6084 -0.5439  2.1123
   42RES   H16617468   1.915   4.214   2.489 -0.2838  0.4421  0.1818
   42RES   H16717469   2.118   4.043   2.637 -2.4224 -3.2534  0.1924
   42RES   H16817470   2.117   4.034   2.467 -0.9413  0.5419 -1.8381
   42RES   H16917471   1.966   3.988   2.569  1.0406  0.0318  0.7431
   42RES   C17017472   1.734   4.611   2.728  0.8112 -0.2044  0.1462
   42RES   C17117473   1.585   4.650   2.757  0.2160  0.2616 -0.2221
   42RES   C17217474   1.527   4.735   2.642  0.4417 -0.1493 -0.2527
   42RES   C17317475   1.586   4.873   2.641  0.0810  0.2964  0.9070
   42RES   C17417476   1.509   4.969   2.540  0.5027  0.2642 -0.4596
   42RES   C17517477   1.368   5.012   2.595  0.1290 -0.6179 -0.1807
   42RES   C17617478   1.291   5.101   2.497 -0.0878 -0.8006  0.0947
   42RES   H17717479   1.757   4.575   2.628  0.1451  1.5561 -0.6609
   42RES   H17817480   1.785   4.707   2.728  0.5253 -0.0285 -2.2631
   42RES   H17917481   1.577   4.718   2.842 -0.1444 -0.3680  0.2537
   42RES   H18017482   1.421   4.746   2.666  0.9012 -0.7004  2.2408
   42RES   H18117483   1.536   4.681   2.548  1.0347 -0.1881 -0.1764
   42RES   H18217484   1.690   4.859   2.611 -1.5336 -1.3023 -4.4612
   42RES   H18317485   1.579   4.924   2.737 -0.6385  0.6277  0.6843
   42RES   H18417486   1.484   4.922   2.445  0.9864 -1.9275  0.4803
   42RES   H18517487   1.564   5.062   2.525 -1.6763  1.7105  0.1999
   42RES   H18617488   1.378   5.052   2.696 -0.9924  1.5833 -0.8975
   42RES   H18717489   1.306   4.923   2.598 -1.9285  0.8453  2.5220
   42RES   H18817490   1.366   5.172   2.462 -0.1933 -0.6581  0.1588
   42RES   H18917491   1.206   5.155   2.539  0.7539  0.2837  0.4398
   42RES   H19017492   1.249   5.061   2.404  0.6143 -2.7646  0.5845
   42RES   C19117493   1.512   4.516   2.789 -0.0727 -0.1253 -0.4318
   42RES   C19217494   1.363   4.519   2.832 -0.2101 -0.3276 -0.5173
   42RES   C19317495   1.297   4.385   2.810  0.1747 -0.0451 -0.3520
   42RES   C19417496   1.361   4.253   2.857 -0.1992 -0.8178  0.6414
   42RES   C19517497   1.270   4.141   2.901 -0.5522 -0.1228 -0.2538
   42RES   C19617498   1.353   4.019   2.947  0.2324  0.1377 -0.5296
   42RES   C19717499   1.394   3.936   2.827  0.0479  0.4254  0.1901
   42RES   H19817500   1.557   4.456   2.869  0.8506 -0.5114 -1.2322
   42RES   H19917501   1.526   4.442   2.710 -1.4756 -0.1771 -0.6320
   42RES   H20017502   1.307   4.588   2.770 -1.1519 -1.6461 -1.1630
   42RES   H20117503   1.280   4.378   2.702 -1.2109 -2.6695 -0.0133
   42RES   H20217504   1.196   4.388   2.849 -1.0940 -0.0713 -3.4346
   42RES   H20317505   1.423   4.280   2.943  2.1400 -0.1373 -1.2013
   42RES   H20417506   1.441   4.218   2.791  1.0762  0.7547  1.3118
   42RES   H20517507   1.210   4.179   2.984  0.7565 -0.1760  0.7441
   42RES   H20617508   1.188   4.111   2.835 -2.0219 -1.1131  1.9519
   42RES   H20717509   1.290   3.960   3.014  0.3456  1.0319  0.3639
   42RES   H20817510   1.435   4.067   3.001 -0.4188  1.4526 -0.7103
   42RES   H20917511   1.446   3.999   2.754  1.1642 -1.3477 -0.5688
   42RES   H21017512   1.315   3.884   2.772  2.2220 -1.2915 -1.4284
   42RES   H21117513   1.471   3.862   2.849 -1.8576 -1.8715 -0.5782
   42RES   C21217514   1.363   4.569   2.983  1.0145  0.1474 -0.1615
   42RES   C21317515   1.231   4.635   3.030 -0.1011  0.0453  1.0953
   42RES   C21417516   1.211   4.623   3.188  0.0590  0.0209 -0.0710
   42RES   C21517517   1.196   4.475   3.234 -0.1706 -0.7613  0.6039
   42RES   C21617518   1.129   4.451   3.369 -0.2854 -0.0845  0.4438
   42RES   C21717519   1.150   4.303   3.415 -0.4846 -0.4897  0.1011
   42RES   C21817520   1.105   4.295   3.565  0.6646  0.3477 -0.5146
   42RES   H21917521   1.434   4.651   2.990 -0.3885  1.3462  0.0657
   42RES   H22017522   1.399   4.486   3.044 -3.0524 -2.2662 -0.8583
   42RES   H22117523   1.153   4.575   2.982 -0.8708 -0.3942  2.8202
   42RES   H22217524   1.295   4.672   3.237 -1.2060 -0.2800  2.4416
   42RES   H22317525   1.120   4.674   3.219  0.4228  0.5772  0.0893
   42RES   H22417526   1.295   4.430   3.231  0.9395  1.5710  0.8980
   42RES   H22517527   1.144   4.416   3.159  0.1957 -0.3052 -0.0110
   42RES   H22617528   1.181   4.521   3.434 -2.0243  0.8856  0.8325
   42RES   H22717529   1.026   4.487   3.367  0.2990  1.5989 -0.2556
   42RES   H22817530   1.105   4.234   3.344  1.4000  0.0162 -1.6515
   42RES   H22917531   1.254   4.270   3.416 -0.3893 -0.1847  0.3751
   42RES   H23017532   1.147   4.370   3.632  0.6668  1.3678 -1.6462
   42RES   H23117533   1.133   4.197   3.602 -2.0203 -0.7380 -1.2378
   42RES   H23217534   0.997   4.293   3.576  0.5641 -1.4293 -1.5179
   42RES   C23317535   1.215   4.787   2.984 -0.2851  0.3409  1.3418
   42RES   C23417536   1.090   4.860   3.025 -0.2769  0.2966  0.6079
   42RES   C23517537   1.071   4.995   2.951  0.4943  0.6933  0.7918
   42RES   C23617538   1.167   5.107   2.996 -0.2085  0.0106  0.1761
   42RES   C23717539   1.140   5.244   2.928 -0.1633  0.1524 -0.2959
   42RES   C23817540   1.038   5.337   2.997  0.2219  0.3363 -0.3434
   42RES   C23917541   0.993   5.452   2.912 -0.2161  0.2272  0.6270
   42RES   H24017542   1.203   4.788   2.875 -0.8117  2.5150  1.3906
   42RES   H24117543   1.302   4.842   3.021  0.1466  0.2152  0.5289
   42RES   H24217544   1.098   4.876   3.133  2.4446 -0.3563  0.5520
   42RES   H24317545   0.971   5.038   2.954 -0.6664 -1.9139  0.2145
   42RES   H24417546   1.113   4.976   2.852  0.5218 -1.1755  1.1488
   42RES   H24517547   1.270   5.076   2.975  0.9735  1.8989  3.0033
   42RES   H24617548   1.172   5.128   3.102  1.4634  1.7673 -0.2158
   42RES   H24717549   1.109   5.235   2.824  0.9249  0.1672 -0.6253
   42RES   H24817550   1.234   5.297   2.913 -0.6424  0.8514 -0.8534
   42RES   H24917551   0.953   5.273   3.020 -0.5723  1.0836 -1.1810
   42RES   H25017552   1.075   5.372   3.094 -0.7846  2.1732 -0.6035
   42RES   H25117553   0.937   5.516   2.979 -0.7940  0.5732 -0.1796
   42RES   H25217554   1.081   5.504   2.874 -0.8397  0.0522 -1.0942
   42RES   H25317555   0.930   5.428   2.826  0.6248 -2.1483  0.6277
   42RES   C25417556   0.960   4.780   3.017  0.5711 -0.5260 -0.1710
   42RES   C25517557   0.830   4.834   3.095 -0.3471 -0.2193 -0.0924
   42RES   C25617558   0.816   4.768   3.238  0.7099 -0.2037 -0.3010
   42RES   C25717559   0.702   4.823   3.335  0.4048 -0.5043 -0.5308
   42RES   C25817560   0.724   4.769   3.477  0.8808 -0.0035  0.2682
   42RES   C25917561   0.614   4.817   3.570  0.0284 -0.1844 -0.4993
   42RES   C26017562   0.587   4.967   3.599  0.1421 -0.5647 -0.4218
   42RES   H26117563   0.960   4.679   3.057 -1.6528 -0.1587  0.8575
   42RES   H26217564   0.935   4.774   2.911 -0.9531  1.8030  0.0042
   42RES   H26317565   0.850   4.940   3.114 -2.4793  0.1286  0.3667
   42RES   H26417566   0.917   4.778   3.277  0.4999 -0.6689  0.3722
   42RES   H26517567   0.803   4.661   3.221 -0.5633 -0.5831  2.6597
   42RES   H26617568   0.702   4.931   3.323  2.1601 -0.0263  2.8893
   42RES   H26717569   0.602   4.789   3.307 -0.0360 -0.4528  0.9266
   42RES   H26817570   0.818   4.809   3.515 -0.0056 -0.1236  2.6821
   42RES   H26917571   0.727   4.660   3.473  0.1298 -0.0978  1.6771
   42RES   H27017572   0.516   4.775   3.549  0.5083 -1.7921  0.4403
   42RES   H27117573   0.628   4.776   3.670 -1.2371 -0.8552 -0.5816
   42RES   H27217574   0.668   5.028   3.558 -0.5796 -1.6073 -3.5685
   42RES   H27317575   0.495   4.993   3.548  0.2183 -1.0261 -0.8058
   42RES   H27417576   0.580   4.984   3.706  1.4526 -0.8893 -0.2748
   42RES   C27517577   0.703   4.823   3.016 -0.3636  0.7966 -0.0596
   42RES   C27617578   0.690   4.933   2.907  0.9418 -0.5849 -0.2692
   42RES   C27717579   0.656   5.068   2.973 -0.3491  0.1181  0.4807
   42RES   C27817580   0.668   5.192   2.887  0.1282  0.5364 -0.0892
   42RES   C27917581   0.627   5.324   2.961  0.2740  0.2966  0.0414
   42RES   C28017582   0.614   5.452   2.871 -0.4188 -0.2545  0.2164
   42RES   C28117583   0.487   5.469   2.794  0.6596 -0.2423 -0.4427
   42RES   H28217584   0.616   4.828   3.082 -1.7452 -0.9312 -1.6906
   42RES   H28317585   0.696   4.719   2.985 -1.2610  0.1522  2.1994
   42RES   H28417586   0.787   4.951   2.862  0.5078  0.8627 -0.6612
   42RES   H28517587   0.556   5.055   3.016 -1.0028  0.0977 -1.0175
   42RES   H28617588   0.722   5.085   3.058  0.6090  1.8769 -0.5796
   42RES   H28717589   0.595   5.165   2.810  1.7460 -0.8535 -1.1893
   42RES   H28817590   0.766   5.203   2.839 -0.8566  0.2096 -2.2608
   42RES   H28917591   0.687   5.328   3.052  0.6477 -1.9774 -0.0586
   42RES   H29017592   0.521   5.309   2.986 -0.4573  1.4965 -2.2348
   42RES   H29117593   0.607   5.542   2.932 -0.6644  0.3351 -0.6680
   42RES   H29217594   0.701   5.481   2.812 -0.6985  3.0073  1.2826
   42RES   H29317595   0.401   5.476   2.860  0.7357  0.5447 -0.4130
   42RES   H29417596   0.473   5.375   2.741 -0.8273 -1.1422  1.5028
   42RES   H29517597   0.493   5.555   2.727 -0.0487 -0.8325 -1.2789
   42RES   C29617598   0.588   4.895   2.795  0.4389 -0.1299  0.2203
   42RES   C29717599   0.622   4.779   2.701 -0.3937 -0.1464  0.6154
   42RES   C29817600   0.760   4.798   2.622 -0.0040 -0.5010  0.3291
   42RES   C29917601   0.819   4.674   2.564 -0.2561  0.1735  0.3027
   42RES   C30017602   0.972   4.683   2.528 -0.3858  0.2279 -0.6627
   42RES   C30117603   1.041   4.562   2.459 -0.4129  0.5095  1.0161
   42RES   C30217604   1.193   4.573   2.455  0.3930 -0.6397  0.6245
   42RES   H30317605   0.497   4.882   2.854  1.8141  0.3449  2.5563
   42RES   H30417606   0.566   4.979   2.729  0.0218  0.5470  1.2048
   42RES   H30517607   0.639   4.692   2.764  2.3997  0.3118  0.5689
   42RES   H30617608   0.723   4.853   2.536  2.0335 -0.2031 -0.3869
   42RES   H30717609   0.835   4.847   2.684 -3.3810  0.8434  3.5349
   42RES   H30817610   0.770   4.627   2.479 -0.4370 -2.5604  1.8396
   42RES   H30917611   0.824   4.591   2.635  1.4719  1.0302  1.1995
   42RES   H31017612   1.031   4.706   2.617 -1.4072 -0.7587  0.2845
   42RES   H31117613   0.988   4.767   2.461  3.5666 -0.1090 -0.2572
   42RES   H31217614   1.035   4.470   2.516  0.0146  1.0633  1.9682
   42RES   H31317615   1.004   4.543   2.358  0.9667 -0.6921  0.7162
   42RES   H31417616   1.210   4.653   2.383 -0.3125 -1.2694 -0.2702
   42RES   H31517617   1.221   4.618   2.550 -2.1201  1.0235  0.6154
   42RES   H31617618   1.248   4.482   2.428 -2.2272 -2.2669  0.5561
   42RES   C31717619   0.518   4.746   2.601  0.2578 -0.2736  0.0983
   42RES   C31817620   0.394   4.669   2.662 -0.7366  0.3434 -0.0403
   42RES   C31917621   0.278   4.655   2.558 -0.6061 -0.1611 -0.3812
   42RES   C32017622   0.218   4.790   2.525  0.2701  0.3695  0.1411
   42RES   C32117623   0.130   4.860   2.637 -0.1028  0.1322 -0.2709
   42RES   C32217624   0.088   5.000   2.596  0.2005  0.1794 -0.0491
   42RES   C32317625   7.722   5.005   2.475  1.3236 -0.0631 -0.4330
   42RES   H32417626   0.556   4.691   2.515  0.6915  1.3180 -0.7564
   42RES   H32517627   0.496   4.839   2.548 -1.3528 -0.8545 -0.2928
   42RES   H32617628   0.355   4.724   2.748 -2.6608 -1.8790  0.5589
   42RES   H32717629   0.197   4.588   2.587 -1.3874  0.3057 -1.4647
   42RES   H32817630   0.316   4.607   2.468 -0.2477 -0.2249 -0.1989
   42RES   H32917631   0.150   4.775   2.441 -1.2724  1.6804  1.1269
   42RES   H33017632   0.287   4.857   2.474 -0.4684  0.9179 -0.1445
   42RES   H33117633   0.193   4.888   2.722  1.4832  0.9575 -1.6777
   42RES   H33217634   0.052   4.794   2.674  0.1559 -1.0286 -1.7541
   42RES   H33317635   0.173   5.067   2.595  0.2869  0.0659 -0.3917
   42RES   H33417636   0.027   5.047   2.674 -2.4492 -1.8869 -0.7890
   42RES   H33517637   7.698   5.109   2.451  0.8245 -0.5879 -2.3353
   42RES   H33617638   7.627   4.954   2.490  0.4397  2.4718  3.2191
   42RES   H33717639   0.046   4.970   2.384  0.0666 -1.3259 -0.6685
   42RES   C33817640   0.443   4.529   2.714  0.2959 -0.6440 -0.6836
   42RES   C33917641   0.446   4.517   2.864  0.0618  0.2421  0.2111
   42RES   C34017642   0.537   4.404   2.918 -0.3194 -0.0333  0.4694
   42RES   C34117643   0.683   4.398   2.864 -0.0056 -0.4108 -0.0553
   42RES   C34217644   0.770   4.302   2.947 -0.4357  0.9738 -0.5942
   42RES   C34317645   0.810   4.363   3.082 -1.2383  0.2038 -0.5152
   42RES   C34417646   0.906   4.267   3.149 -0.1838  0.2940 -0.2278
   42RES   H34517647   0.544   4.506   2.680 -0.0801 -1.4833 -1.2558
   42RES   H34617648   0.377   4.454   2.671 -1.9682  0.6452  0.4819
   42RES   H34717649   0.473   4.615   2.904  0.9350 -0.1979  0.6990
   42RES   H34817650   0.540   4.418   3.026  1.0915  1.4877  0.2535
   42RES   H34917651   0.492   4.305   2.910 -0.9635  0.2192  0.9499
   42RES   H35017652   0.736   4.492   2.846  0.7393 -1.0992 -1.4789
   42RES   H35117653   0.687   4.357   2.763  0.9219  1.6636 -0.8970
   42RES   H35217654   0.717   4.208   2.960  0.6118  0.6702  1.7284
   42RES   H35317655   0.867   4.283   2.901 -0.3920 -0.4100  0.0562
   42RES   H35417656   0.854   4.463   3.084  0.3652 -0.5094  1.7056
   42RES   H35517657   0.722   4.362   3.147  0.1735 -0.1690  1.4389
   42RES   H35617658   0.999   4.262   3.092  2.6423  0.8240  4.1080
   42RES   H35717659   0.859   4.169   3.150  1.2978 -0.4166  1.7161
   42RES   H35817660   0.925   4.287   3.254 -0.1821 -0.3760 -0.0991
   42RES   C35917661   0.300   4.511   2.916  0.5040 -1.1384 -0.1792
   42RES   C36017662   0.279   4.550   3.069  0.2004  0.2073  0.2104
   42RES   C36117663   0.292   4.705   3.105 -0.1442  0.1650  0.1748
   42RES   C36217664   0.163   4.794   3.098 -0.3787 -0.5381 -0.2439
   42RES   C36317665   0.174   4.933   3.163 -0.8484 -0.0801  0.3679
   42RES   C36417666   0.279   5.028   3.096 -0.3513 -0.7176  0.2021
   42RES   C36517667   0.215   5.122   2.990 -0.5715  0.5170 -0.1747
   42RES   H36617668   0.269   4.412   2.884  0.7539 -1.5201  0.7360
   42RES   H36717669   0.240   4.586   2.864  1.6113  0.2608  0.4894
   42RES   H36817670   0.372   4.513   3.111 -1.0578 -1.3303  1.7304
   42RES   H36917671   0.328   4.709   3.208  0.1665 -3.1880  0.2468
   42RES   H37017672   0.380   4.752   3.060 -0.4986 -0.6180 -1.3788
   42RES   H37117673   0.134   4.815   2.995  0.7715 -1.3614 -0.7407
   42RES   H37217674   0.073   4.757   3.148 -0.6307 -0.3903 -0.5843
   42RES   H37317675   0.073   4.971   3.179 -1.1400  0.3764 -2.2774
   42RES   H37417676   0.208   4.910   3.264 -0.4442  2.2008  0.7777
   42RES   H37517677   0.315   5.088   3.179  0.9108  1.4010 -1.8375
   42RES   H37617678   0.357   4.959   3.064  0.3174 -0.6241  1.5969
   42RES   H37717679   0.140   5.182   3.042 -0.6648  0.9114 -0.7602
   42RES   H37817680   0.283   5.191   2.940  1.3164 -2.5121 -1.9442
   42RES   H37917681   0.172   5.064   2.908 -2.0257 -0.2367  1.1031
   42RES   C38017682   0.149   4.494   3.140  0.2070 -0.1037  0.3663
   42RES   C38117683   0.157   4.341   3.134 -0.3636  0.1745 -0.9433
   42RES   C38217684   0.218   4.283   3.264  0.1189  0.1728 -0.2480
   42RES   C38317685   0.371   4.257   3.248  0.6258 -1.1815 -0.6282
   42RES   C38417686   0.432   4.190   3.371 -0.1962  0.9447 -0.5458
   42RES   C38517687   0.583   4.170   3.351  1.0585  0.1521  0.2319
   42RES   C38617688   0.665   4.126   3.479 -0.4464  0.0460  0.1325
   42RES   H38717689   0.132   4.529   3.242 -3.5532  2.2633 -0.9821
   42RES   H38817690   0.061   4.536   3.092 -0.0399 -0.1344  0.7908
   42RES   H38917691   0.212   4.304   3.048  0.8069  1.7697 -0.9033
   42RES   H39017692   0.174   4.184   3.275  1.2857 -0.3670 -0.3875
   42RES   H39117693   0.193   4.344   3.351 -1.1212 -3.1924  1.8235
   42RES   H39217694   0.399   4.203   3.158 -1.4095 -1.8669 -0.8824
   42RES   H39317695   0.419   4.355   3.240 -0.1004 -0.6163  1.6525
   42RES   H39417696   0.409   4.248   3.461  3.5080  0.8546  0.5101
   42RES   H39517697   0.384   4.095   3.392 -1.7587  1.8934  0.3748
   42RES   H39617698   0.622   4.267   3.321 -2.6499  1.5085 -0.3853
   42RES   H39717699   0.604   4.099   3.271 -2.3762 -1.0551  0.3117
   42RES   H39817700   0.635   4.035   3.532  2.1503 -0.1370  1.3683
   42RES   H39917701   0.652   4.205   3.553  1.6946  0.8215 -0.2741
   42RES   H40017702   0.768   4.126   3.445 -1.3831  0.3691 -2.8045
   42RES   C40117703   0.014   4.286   3.126  0.1100 -0.0442 -0.2089
   42RES   C40217704   7.671   4.309   2.991  0.3166 -0.0479 -0.3111
   42RES   C40317705   7.555   4.215   2.951 -0.3023 -0.4352 -0.4657
   42RES   C40417706   7.509   4.221   2.804 -0.0096  0.4345  0.5586
   42RES   C40517707   7.431   4.097   2.756  0.3904 -0.1834  0.2852
   42RES   C40617708   7.418   4.099   2.602  0.2267  0.0739  0.1503
   42RES   C40717709   7.381   3.964   2.542  0.1135  0.3902  0.1335
   42RES   H40817710   7.687   4.319   3.215 -1.2338  2.8416 -2.0171
   42RES   H40917711   0.028   4.178   3.135 -1.6263 -0.1490  1.5822
   42RES   H41017712   0.023   4.300   2.916 -1.3564 -3.7681 -1.7893
   42RES   H41117713   7.471   4.232   3.018 -0.7037 -1.5199 -0.6839
   42RES   H41217714   7.595   4.117   2.974  1.4519  0.6780  1.3997
   42RES   H41317715   7.600   4.233   2.746  0.2330  0.8256  1.0184
   42RES   H41417716   7.441   4.304   2.780  0.6548  0.9064  0.3004
   42RES   H41517717   7.479   4.006   2.792  1.8328 -1.3272 -4.2059
   42RES   H41617718   7.336   4.083   2.807  0.6159  1.2105  1.1098
   42RES   H41717719   7.334   4.161   2.573 -1.2964 -0.9409  2.2500
   42RES   H41817720   7.507   4.136   2.551 -1.1030  2.0323 -0.7699
   42RES   H41917721   7.467   3.898   2.550  0.3283  0.7066  0.4817
   42RES   H42017722   7.354   3.957   2.437 -0.4910  0.0402  0.3081
   42RES   H42117723   7.302   3.915   2.600 -1.9550  0.5491 -2.4818
   42RES   H42217724   7.629   4.409   2.980  0.9197  0.5470  2.4508
   43RES     C117725   5.930   7.707   1.132  0.7250 -0.1775 -0.1785
   43RES     C217726   5.861   7.653   1.252 -0.0684 -0.1251  0.5736
   43RES     C317727   5.807   7.519   1.216 -0.4560  0.2094 -0.5025
   43RES     C417728   5.757   7.429   1.331  0.8225  0.0147 -0.2267
   43RES     C517729   5.856   7.428   1.444  0.0328 -0.5889  0.3471
   43RES     C617730   5.820   7.315   1.544  0.2499 -0.0691 -0.5180
   43RES     C717731   5.919   7.308   1.651 -0.2155  0.0238 -0.4266
   43RES     H817732   5.867   7.710   1.043  1.0896 -0.5978 -0.4582
   43RES     H917733   6.021   7.649   1.114 -0.2057 -0.8000 -3.2274
   43RES    H1017734   5.946   7.631   1.316  0.2373  0.5005  0.3879
   43RES    H1117735   5.725   7.537   1.146 -1.8555  0.9349  1.2941
   43RES    H1217736   5.876   7.467   1.149 -0.7304  0.6941 -1.1614
   43RES    H1317737   5.660   7.463   1.368  0.8479  1.1816 -1.1870
   43RES    H1417738   5.747   7.327   1.294  0.1694  0.1411 -0.4174
   43RES    H1517739   5.859   7.521   1.501 -1.4679 -0.4085  0.1408
   43RES    H1617740   5.955   7.408   1.403 -0.7327 -0.0495 -1.7881
   43RES    H1717741   5.803   7.214   1.507 -0.6825  0.3848 -1.3565
   43RES    H1817742   5.722   7.344   1.583  0.6743  1.0827 -0.2885
   43RES    H1917743   5.943   7.404   1.698 -0.7081 -0.0834  0.0414
   43RES    H2017744   6.015   7.276   1.611 -0.8859  0.0325 -2.1123
   43RES    H2117745   5.889   7.239   1.729 -0.4174 -0.6618 -1.1056
   43RES    H2217746   5.966   0.081   1.153 -1.0586  0.2020  1.1255
   43RES    C2317747   5.743   0.020   1.313 -0.7349  0.8354 -0.3958
   43RES    C2417748   5.779   0.165   1.360  0.3437  0.2274  0.1014
   43RES    C2517749   5.922   0.181   1.427 -0.1352 -0.0020  0.4433
   43RES    C2617750   5.929   0.120   1.567  0.3939  0.1049 -0.3358
   43RES    C2717751   6.074   0.081   1.613  0.7862  1.2843  0.1492
   43RES    C2817752   6.080   0.032   1.752  0.1097  0.7859  0.1118
   43RES    C2917753   6.220   7.716   1.798  0.7456 -0.2841  0.5263
   43RES    H3017754   5.659   0.023   1.243 -1.5073 -2.3937  0.3391
   43RES    H3117755   5.705   7.685   1.394  4.4199 -1.5547  0.4548
   43RES    H3217756   5.779   0.220   1.265 -0.0070 -0.2875 -0.1930
   43RES    H3317757   5.947   0.287   1.429  0.2613 -0.0973  0.5395
   43RES    H3417758   5.999   0.136   1.364 -0.1475 -1.7073  1.6308
   43RES    H3517759   5.865   0.032   1.575  0.5004  0.0287 -0.3343
   43RES    H3617760   5.897   0.192   1.642 -0.9038 -1.1511  0.3311
   43RES    H3717761   6.144   0.163   1.624  1.4208  0.9117 -1.0172
   43RES    H3817762   6.126   0.011   1.547 -1.3022 -0.1407 -0.0413
   43RES    H3917763   6.013   7.673   1.756  0.5078  0.5238  1.5639
   43RES    H4017764   6.034   0.096   1.827 -1.5013 -0.6899  0.4126
   43RES    H4117765   6.228   7.714   1.907  0.4530  0.5615  0.5670
   43RES    H4217766   6.242   7.615   1.764  3.2587  0.4559 -0.1767
   43RES    H4317767   6.296   0.056   1.756  0.5658  1.1583  2.3968
   43RES    C4417768   5.665   0.222   1.454 -0.0066  0.1658  0.5134
   43RES    C4517769   5.674   0.378   1.491 -0.3864  0.0157  0.3885
   43RES    C4617770   5.639   0.469   1.373  0.6876 -0.4025  0.3518
   43RES    C4717771   5.695   0.612   1.392  0.1643  0.1409  0.0216
   43RES    C4817772   5.646   0.722   1.300  0.4656  0.4703  0.4372
   43RES    C4917773   5.724   0.854   1.316 -0.9919  0.3940 -0.1011
   43RES    C5017774   5.875   0.833   1.297  0.4887 -0.1275 -0.0169
   43RES    H5117775   5.670   0.169   1.549 -0.1498 -0.9531 -0.0870
   43RES    H5217776   5.574   0.186   1.406 -2.7268  2.3672  3.8632
   43RES    H5317777   5.776   0.399   1.522  0.2209  0.4746 -1.8288
   43RES    H5417778   5.531   0.472   1.363  0.6960 -3.0825 -1.0194
   43RES    H5517779   5.678   0.432   1.278  2.6340 -1.3226  1.4800
   43RES    H5617780   5.696   0.645   1.496 -2.9649  1.1854 -0.2170
   43RES    H5717781   5.798   0.593   1.364  0.0171  0.6811 -0.9240
   43RES    H5817782   5.542   0.748   1.319 -0.8197 -2.3372 -2.3533
   43RES    H5917783   5.653   0.694   1.195 -0.1559  0.7053  0.3317
   43RES    H6017784   5.705   0.899   1.413 -0.9006  0.1991  0.0048
   43RES    H6117785   5.678   0.919   1.241 -0.2875 -0.3176 -1.1636
   43RES    H6217786   5.898   0.787   1.201 -0.4259 -0.5065 -0.0669
   43RES    H6317787   5.921   0.778   1.378  0.7672 -1.1098 -0.8342
   43RES    H6417788   5.924   0.930   1.290 -1.9974  1.1294 -0.9796
   43RES    C6517789   5.577   0.408   1.611 -0.9755  0.1236  0.0414
   43RES    C6617790   5.595   0.337   1.745 -0.2140 -0.4733  1.0442
   43RES    C6717791   5.472   0.251   1.791  0.0827  0.4776  0.6569
   43RES    C6817792   5.343   0.333   1.824  0.3449  0.4652  0.3243
   43RES    C6917793   5.239   0.254   1.912 -0.2879 -0.2760  0.2425
   43RES    C7017794   5.112   0.333   1.926  1.4318  0.9650  0.1650
   43RES    C7117795   5.014   0.283   2.037 -0.2768 -0.1271  1.0037
   43RES    H7217796   5.572   0.516   1.624  1.1799  0.6600 -3.1632
   43RES    H7317797   5.479   0.383   1.571 -0.4527 -2.7935  0.4613
   43RES    H7417798   5.671   0.261   1.728 -0.6905 -0.9064  0.8252
   43RES    H7517799   5.444   0.197   1.701 -2.0359 -0.1164  1.6470
   43RES    H7617800   5.492   0.178   1.870 -1.2802 -1.0243 -0.3617
   43RES    H7717801   5.365   0.429   1.870 -1.0406 -0.4764  3.0735
   43RES    H7817802   5.288   0.358   1.732 -1.4184  0.0621  1.2367
   43RES    H7917803   5.227   0.158   1.862 -0.7501  1.0215 -2.2282
   43RES    H8017804   5.278   0.239   2.013 -1.4737  0.8204  0.8807
   43RES    H8117805   5.067   0.349   1.829  1.0121 -1.9939 -0.1765
   43RES    H8217806   5.129   0.432   1.968  1.8738  0.3247  1.5280
   43RES    H8317807   4.995   0.177   2.020 -1.7912  0.3813 -0.6476
   43RES    H8417808   5.066   0.283   2.133 -1.8173 -1.5238  1.8671
   43RES    H8517809   4.916   0.330   2.041 -0.5662 -0.5389 -1.0052
   43RES    C8617810   5.638   0.442   1.852  0.0829 -0.4421  0.1460
   43RES    C8717811   5.688   0.376   1.986 -0.0142 -0.4646 -0.2216
   43RES    C8817812   5.827   0.326   1.976 -0.8647  0.5487  0.2334
   43RES    C8917813   5.941   0.435   1.979 -0.0461 -0.5343  0.0911
   43RES    C9017814   6.083   0.380   1.967  0.2584  0.3867  0.5672
   43RES    C9117815   6.194   0.482   1.963  0.1100 -0.8607  0.5619
   43RES    C9217816   6.333   0.422   1.979  0.8930  0.1405 -0.2623
   43RES    H9317817   5.713   0.511   1.813 -0.7461  0.7082  0.5618
   43RES    H9417818   5.558   0.515   1.866 -1.0937 -1.2494 -1.9972
   43RES    H9517819   5.621   0.294   2.010 -1.8874  0.6612 -1.4898
   43RES    H9617820   5.853   0.266   2.064 -0.4631 -1.2845 -1.0996
   43RES    H9717821   5.841   0.251   1.898 -0.7383  1.2958 -0.4569
   43RES    H9817822   5.933   0.499   1.891  0.8162 -1.7307 -0.8721
   43RES    H9917823   5.939   0.492   2.072  1.5912 -0.9398  0.4008
   43RES   H10017824   6.091   0.309   1.885  2.8040 -1.2960  2.2058
   43RES   H10117825   6.100   0.324   2.059 -1.1109  1.8776  1.7679
   43RES   H10217826   6.179   0.545   1.875  0.4414 -1.6005 -0.0254
   43RES   H10317827   6.188   0.560   2.039 -2.8379  0.0961 -0.5856
   43RES   H10417828   6.358   0.373   1.885 -2.1518 -1.0517 -0.5204
   43RES   H10517829   6.349   0.355   2.064  0.1615 -0.9618 -0.9807
   43RES   H10617830   6.399   0.508   1.985 -2.9302  3.1184  0.8860
   43RES   C10717831   5.681   0.479   2.101 -0.3088 -0.4069  0.0072
   43RES   C10817832   5.535   0.502   2.157  0.7065 -0.3060 -0.3748
   43RES   C10917833   5.494   0.388   2.244  0.1482  0.3536  0.5863
   43RES   C11017834   5.344   0.376   2.275 -0.3697 -0.3665  0.4135
   43RES   C11117835   5.299   0.244   2.336  0.8139 -0.6938 -0.4684
   43RES   C11217836   5.363   0.196   2.474 -0.7087 -0.4005  0.4526
   43RES   C11317837   5.294   0.082   2.546 -0.5991  0.5638 -0.1269
   43RES   H11417838   5.719   0.574   2.064  1.6088 -1.2935 -0.3665
   43RES   H11517839   5.750   0.453   2.182 -0.4354  0.5625  0.4254
   43RES   H11617840   5.474   0.496   2.067  0.2028  0.9563 -0.1213
   43RES   H11717841   5.550   0.391   2.337  3.3989 -2.9088 -1.1313
   43RES   H11817842   5.522   0.294   2.196 -0.7370 -0.3218  1.3582
   43RES   H11917843   5.314   0.462   2.334  1.1518 -0.3742  1.2170
   43RES   H12017844   5.282   0.388   2.186 -2.7925 -0.3664  2.0917
   43RES   H12117845   5.299   0.167   2.258  3.2618 -0.4999 -0.7064
   43RES   H12217846   5.191   0.257   2.341  0.6998 -1.0751 -1.6880
   43RES   H12317847   5.467   0.168   2.458 -0.4114  1.6801 -1.6534
   43RES   H12417848   5.357   0.282   2.542  1.6805 -0.2653  0.5484
   43RES   H12517849   5.186   0.091   2.544 -0.6738  0.5183  2.1605
   43RES   H12617850   5.314   7.717   2.490 -1.4922 -0.4405  1.1900
   43RES   H12717851   5.317   0.057   2.650  0.4093  0.2876 -0.4103
   43RES   C12817852   5.524   0.638   2.229 -0.7056 -0.3208  0.6352
   43RES   C12917853   5.464   0.761   2.156 -0.5197  0.2125 -0.2551
   43RES   C13017854   5.458   0.893   2.246 -0.1557 -0.8489  0.1975
   43RES   C13117855   5.594   0.966   2.264 -0.0012 -0.6109  0.1000
   43RES   C13217856   5.596   1.080   2.374 -0.2641 -0.0741 -0.3552
   43RES   C13317857   5.738   1.126   2.408 -0.0572 -0.0637 -0.6270
   43RES   C13417858   5.787   1.222   2.299 -0.1431 -0.6621 -0.7681
   43RES   H13517859   5.460   0.613   2.313  0.6596  0.6059  1.9921
   43RES   H13617860   5.618   0.678   2.269  0.1328 -0.6753 -0.9136
   43RES   H13717861   5.531   0.787   2.074 -0.5867 -1.4359 -0.8570
   43RES   H13817862   5.428   0.862   2.347  2.5469 -0.1598  1.2729
   43RES   H13917863   5.395   0.973   2.208 -0.8124 -2.1216 -1.4234
   43RES   H14017864   5.622   1.019   2.174 -0.3958  2.5399  1.7586
   43RES   H14117865   5.677   0.902   2.291 -0.2608 -0.8752  0.2823
   43RES   H14217866   5.555   1.040   2.466 -1.2312  1.0618 -0.2845
   43RES   H14317867   5.533   1.159   2.335 -1.1126 -1.2755 -1.4830
   43RES   H14417868   5.800   1.037   2.420  0.9490  0.8913  1.5315
   43RES   H14517869   5.739   1.175   2.505 -0.4872  1.4978 -1.4023
   43RES   H14617870   5.713   1.302   2.292  0.9507  0.4319 -0.0745
   43RES   H14717871   5.787   1.168   2.205  0.6261 -0.1159 -1.0843
   43RES   H14817872   5.883   1.271   2.316 -1.0434  0.9810 -0.2399
   43RES   C14917873   5.319   0.721   2.118  0.0197 -0.6934 -0.3680
   43RES   C15017874   5.266   0.800   2.002  0.3167 -0.4166 -0.1317
   43RES   C15117875   5.110   0.799   2.001  0.2709  0.1184 -0.2155
   43RES   C15217876   5.052   0.882   2.108  0.4711 -0.6387  0.2245
   43RES   C15317877   4.894   0.884   2.101  0.1634 -0.2340  0.3129
   43RES   C15417878   4.840   0.744   2.118 -0.3232  0.8068  0.3047
   43RES   C15517879   4.690   0.742   2.149 -0.4996 -0.6065 -0.8632
   43RES   H15617880   5.304   0.615   2.100 -2.4554 -0.4162 -0.0469
   43RES   H15717881   5.260   0.740   2.207 -0.5687 -1.4172 -0.6067
   43RES   H15817882   5.307   0.901   1.995 -1.5066  0.3995  0.7231
   43RES   H15917883   5.066   0.846   1.913 -0.0241 -0.9398 -0.6357
   43RES   H16017884   5.081   0.695   2.010 -0.7055  0.2602 -1.5908
   43RES   H16117885   5.103   0.979   2.102 -2.7343  1.0446 -1.0027
   43RES   H16217886   5.078   0.844   2.206  1.2465 -0.9603 -0.1022
   43RES   H16317887   4.852   0.917   2.006 -0.0741 -2.7228 -0.4969
   43RES   H16417888   4.853   0.945   2.181  1.4216 -0.9280  1.5087
   43RES   H16517889   4.895   0.697   2.200  1.4868  0.1082 -1.2706
   43RES   H16617890   4.859   0.683   2.030  1.4368 -0.9549  1.8568
   43RES   H16717891   4.643   0.644   2.155  0.1042 -0.7870  1.0624
   43RES   H16817892   4.641   0.810   2.079 -0.4130  2.1887  1.7247
   43RES   H16917893   4.677   0.795   2.243 -0.2275 -0.8849 -0.6710
   43RES   C17017894   5.326   0.743   1.873 -0.0628  0.0359 -0.9908
   43RES   C17117895   5.300   0.800   1.727  0.6642 -0.0096  0.7104
   43RES   C17217896   5.384   0.912   1.672 -0.2609  0.2655 -0.3696
   43RES   C17317897   5.415   1.030   1.764 -0.8553  0.0630 -0.2120
   43RES   C17417898   5.489   1.140   1.674 -0.0979 -0.3095  0.4263
   43RES   C17517899   5.547   1.270   1.742  0.0012 -0.5491  0.3377
   43RES   C17617900   5.642   1.255   1.864  0.3125 -0.3113  0.2970
   43RES   H17717901   5.275   0.647   1.882  1.6228 -0.6131  2.8207
   43RES   H17817902   5.434   0.726   1.877 -0.4054 -2.3489 -1.1456
   43RES   H17917903   5.202   0.847   1.742  0.1171  0.0763 -2.7582
   43RES   H18017904   5.345   0.932   1.572 -0.5862  1.2999 -0.0407
   43RES   H18117905   5.479   0.865   1.648  0.3226  0.9500  0.5641
   43RES   H18217906   5.483   1.009   1.847  0.4375  0.7498 -1.0767
   43RES   H18317907   5.327   1.074   1.812 -0.2199 -0.2657  1.2969
   43RES   H18417908   5.415   1.170   1.601 -0.5846  0.4120  1.2059
   43RES   H18517909   5.572   1.094   1.620  1.8399  2.4350  0.9417
   43RES   H18617910   5.467   1.340   1.767  2.5597  2.7746 -0.3108
   43RES   H18717911   5.601   1.331   1.668 -0.4648  0.2439  0.6445
   43RES   H18817912   5.646   1.347   1.923 -2.2509 -0.1760  0.3300
   43RES   H18917913   5.737   1.220   1.825  0.9997  3.6037 -1.8673
   43RES   H19017914   5.590   1.181   1.924 -2.6406  1.9839  0.7243
   43RES   C19117915   5.281   0.678   1.633 -0.0870  0.5748 -0.2094
   43RES   C19217916   5.164   0.687   1.527  0.5651 -0.4950 -0.4423
   43RES   C19317917   5.179   0.600   1.413  0.7049  0.8274 -0.1173
   43RES   C19417918   5.178   0.447   1.443  0.8237  0.2384  0.4335
   43RES   C19517919   5.210   0.367   1.313  0.5243  0.2057 -0.1975
   43RES   C19617920   5.221   0.209   1.325 -0.2670 -0.9156  1.0680
   43RES   C19717921   5.089   0.142   1.343  0.0802 -0.0834 -0.5461
   43RES   H19817922   5.257   0.586   1.687  0.6772 -0.0866 -0.9694
   43RES   H19917923   5.372   0.659   1.576 -0.7678 -0.6952 -0.9059
   43RES   H20017924   5.162   0.789   1.488 -1.0420 -1.5422 -3.2286
   43RES   H20117925   5.269   0.614   1.355  0.8148  0.5607 -0.0142
   43RES   H20217926   5.098   0.617   1.342  1.1833  0.4481 -0.7465
   43RES   H20317927   5.085   0.408   1.483  1.5158 -1.1109  0.7910
   43RES   H20417928   5.252   0.422   1.520  0.2508 -0.0426  0.8931
   43RES   H20517929   5.142   0.398   1.233 -0.3421  0.5350  0.6513
   43RES   H20617930   5.309   0.400   1.280  0.3499  2.0722  1.0506
   43RES   H20717931   5.291   0.184   1.405  1.3811 -0.0646 -0.0693
   43RES   H20817932   5.278   0.169   1.241  1.6234  1.8390  0.9558
   43RES   H20917933   5.068   0.156   1.449  2.1808  1.3396 -0.2894
   43RES   H21017934   5.089   0.036   1.319  2.5090  0.3953 -2.9020
   43RES   H21117935   5.014   0.177   1.272  0.4363 -0.7913 -1.2782
   43RES   C21217936   5.030   0.658   1.606  0.6675  0.4705 -0.0198
   43RES   C21317937   4.914   0.748   1.566 -0.2504  0.5103  0.1180
   43RES   C21417938   4.781   0.679   1.595  0.0779  0.2810 -0.0804
   43RES   C21517939   4.738   0.548   1.513 -0.1533  0.1164  0.5145
   43RES   C21617940   4.616   0.474   1.554  0.2510 -0.0306  0.0815
   43RES   C21717941   4.623   0.430   1.694 -0.1737  0.5149 -0.4668
   43RES   C21817942   4.503   0.351   1.740 -0.2438 -0.3440  0.1317
   43RES   H21917943   5.049   0.658   1.713  0.3413  2.9365  0.0672
   43RES   H22017944   4.998   0.555   1.589 -0.7115  0.4767  2.2875
   43RES   H22117945   4.912   0.762   1.457  0.1553  1.7091  0.2606
   43RES   H22217946   4.777   0.644   1.698 -0.0923  0.5037 -0.0096
   43RES   H22317947   4.702   0.750   1.569 -0.4760 -0.1632  0.3627
   43RES   H22417948   4.814   0.470   1.516 -0.0189  0.2809  1.8395
   43RES   H22517949   4.727   0.577   1.409 -1.3679 -0.1845  0.5561
   43RES   H22617950   4.523   0.526   1.528  0.1462  0.1586  0.8106
   43RES   H22717951   4.604   0.383   1.496 -1.7152  1.5733 -2.1694
   43RES   H22817952   4.714   0.373   1.711 -0.8466 -0.9418 -1.6483
   43RES   H22917953   4.625   0.512   1.766  0.4533  2.1434 -2.2685
   43RES   H23017954   4.509   0.326   1.846 -1.6476 -2.1544 -0.1950
   43RES   H23117955   4.486   0.251   1.702 -0.5979 -0.0515 -0.4851
   43RES   H23217956   4.412   0.411   1.738  0.1077  0.2573  1.5090
   43RES   C23317957   4.929   0.879   1.646  0.0530 -0.1590  0.1570
   43RES   C23417958   4.836   1.005   1.610 -0.0885 -0.0234 -0.1794
   43RES   C23517959   4.782   1.077   1.732 -0.6244  0.5386 -0.2176
   43RES   C23617960   4.653   1.159   1.703  0.2691 -0.1381  0.0946
   43RES   C23717961   4.588   1.224   1.827  0.2659  0.6821  0.1179
   43RES   C23817962   4.463   1.295   1.790  0.2396 -0.2120 -0.2444
   43RES   C23917963   4.403   1.360   1.911  0.0476  0.1934 -0.4664
   43RES   H24017964   5.030   0.920   1.648 -0.2321  0.5436  0.1761
   43RES   H24117965   4.914   0.859   1.752 -1.0573  0.5775  0.1483
   43RES   H24217966   4.743   0.974   1.561  0.7759  1.2764 -2.6905
   43RES   H24317967   4.857   1.141   1.777  1.1007 -1.9455  0.5632
   43RES   H24417968   4.764   1.000   1.808  1.8492  1.5739  1.4607
   43RES   H24517969   4.577   1.107   1.645 -0.7189  0.2617  1.0112
   43RES   H24617970   4.688   1.241   1.640 -0.0711  0.3329  0.5199
   43RES   H24717971   4.667   1.274   1.884 -1.0309  0.5777  2.0388
   43RES   H24817972   4.568   1.143   1.896  0.3153 -0.8104 -1.5929
   43RES   H24917973   4.485   1.376   1.720 -2.6816 -0.5496 -1.6174
   43RES   H25017974   4.388   1.232   1.744  1.0990 -0.1757 -1.7336
   43RES   H25117975   4.297   1.379   1.896  0.1333 -0.2691 -1.6996
   43RES   H25217976   4.416   1.297   1.999  1.0671  0.3959 -0.4616
   43RES   H25317977   4.443   1.460   1.930  1.1001 -0.6397  1.8083
   43RES   C25417978   4.909   1.105   1.522 -0.3035 -0.5145  0.3521
   43RES   C25517979   4.956   1.053   1.377 -0.7317  0.1510  0.0874
   43RES   C25617980   5.051   1.166   1.318 -1.1934  0.5078 -0.6802
   43RES   C25717981   5.195   1.174   1.370 -0.3590  0.3942 -1.0892
   43RES   C25817982   5.260   1.301   1.342 -0.1250 -0.7990  0.2159
   43RES   C25917983   5.230   1.402   1.451  0.3716  0.4656 -0.1259
   43RES   C26017984   5.295   1.541   1.430  0.0741  0.6843 -0.6443
   43RES   H26117985   4.997   1.131   1.580 -2.7636  1.7324  3.2337
   43RES   H26217986   4.853   1.195   1.498 -2.6957 -1.8621  0.6644
   43RES   H26317987   5.022   0.967   1.393 -0.0806  0.6655  0.2211
   43RES   H26417988   4.991   1.257   1.309 -0.4184  0.9836 -0.9704
   43RES   H26517989   5.056   1.141   1.212 -0.8805 -0.4938 -0.4356
   43RES   H26617990   5.185   1.149   1.476  1.3445 -1.8186 -1.4255
   43RES   H26717991   5.247   1.090   1.323 -0.2841  0.4343 -1.0782
   43RES   H26817992   5.229   1.340   1.244 -1.2929 -1.1103  0.4507
   43RES   H26917993   5.367   1.286   1.331 -0.5662 -2.5250 -2.2330
   43RES   H27017994   5.123   1.417   1.468  0.9677  2.1613  2.4462
   43RES   H27117995   5.271   1.354   1.540  0.3226  1.4334  0.4277
   43RES   H27217996   5.250   1.579   1.338  0.5495  2.8700  0.0051
   43RES   H27317997   5.259   1.610   1.506  0.3470  0.3465 -0.2127
   43RES   H27417998   5.403   1.543   1.417  0.2590  0.1542  0.7681
   43RES   C27517999   4.837   1.028   1.284 -0.7155  0.2947 -0.6222
   43RES   C27618000   4.860   0.958   1.141  0.1447 -0.9792 -0.5770
   43RES   C27718001   4.747   0.990   1.043 -0.7244  0.5807  0.0041
   43RES   C27818002   4.763   1.138   0.999  0.1319  0.1866  0.7743
   43RES   C27918003   4.646   1.224   0.937 -0.3755  0.3207  0.2750
   43RES   C28018004   4.681   1.359   0.865  0.4091  0.3017  0.7082
   43RES   C28118005   4.546   1.416   0.809  0.3884  0.1256  0.5918
   43RES   H28218006   4.782   1.122   1.273 -0.6495  0.1744 -1.9554
   43RES   H28318007   4.774   0.956   1.336  0.3913 -0.7344 -0.6905
   43RES   H28418008   4.952   1.003   1.103 -0.7008 -0.9307 -2.6687
   43RES   H28518009   4.755   0.924   0.956  0.5649  0.3532  0.2800
   43RES   H28618010   4.647   0.977   1.083 -1.4126 -1.5143 -2.2056
   43RES   H28718011   4.848   1.137   0.931 -0.0271 -0.0400  0.5793
   43RES   H28818012   4.793   1.199   1.084  1.5971 -0.3598  0.6677
   43RES   H28918013   4.580   1.246   1.021  1.3799 -4.7970  3.2516
   43RES   H29018014   4.591   1.156   0.872  0.0735 -2.4947  2.6985
   43RES   H29118015   4.725   1.423   0.941 -2.7709  2.4200  0.8681
   43RES   H29218016   4.754   1.340   0.786 -0.0240 -0.1336  0.4112
   43RES   H29318017   4.501   1.354   0.732  2.4348  1.1881 -1.5224
   43RES   H29418018   4.553   1.513   0.760 -0.4138  0.3259  0.8664
   43RES   H29518019   4.474   1.442   0.887 -2.0766 -1.5092 -1.0729
   43RES   C29618020   4.890   0.802   1.165  0.4541  0.2451  0.3038
   43RES   C29718021   4.939   0.728   1.040  0.2421 -0.9606 -0.1490
   43RES   C29818022   4.913   0.576   1.036 -0.4181 -0.2504 -0.0003
   43RES   C29918023   4.760   0.544   1.072 -0.9485 -0.2575  0.1689
   43RES   C30018024   4.743   0.392   1.077  0.4890 -0.0967  0.2010
   43RES   C30118025   4.609   0.355   1.143  0.4300 -0.1271 -0.4854
   43RES   C30218026   4.566   0.218   1.100  0.7163  0.4298  0.5794
   43RES   H30318027   4.956   0.789   1.251 -1.5870  1.4805  2.0901
   43RES   H30418028   4.793   0.766   1.197  0.3777  0.2224  0.0474
   43RES   H30518029   4.886   0.761   0.950 -1.4419  0.2319  1.2656
   43RES   H30618030   4.945   0.539   0.938  2.5414 -2.6903  1.8167
   43RES   H30718031   4.977   0.523   1.107 -1.9629 -1.8426  0.2156
   43RES   H30818032   4.690   0.594   1.004  0.0870  1.3957  0.2934
   43RES   H30918033   4.728   0.581   1.169  0.9056  2.0222 -0.0519
   43RES   H31018034   4.823   0.337   1.124  0.2249  0.3900  1.2380
   43RES   H31118035   4.741   0.361   0.973 -0.9215  1.7886 -0.3687
   43RES   H31218036   4.621   0.360   1.251  0.6775  0.4050 -0.5394
   43RES   H31318037   4.535   0.422   1.100  2.4050  1.3233 -1.7465
   43RES   H31418038   4.481   0.181   1.158  0.8836 -0.4036  0.2999
   43RES   H31518039   4.562   0.192   0.994 -1.0274  1.9806  0.2228
   43RES   H31618040   4.636   0.155   1.154 -2.6137 -1.2026  3.2109
   43RES   C31718041   5.084   0.763   1.008 -0.0959 -0.1757 -0.5537
   43RES   C31818042   5.107   0.824   0.864 -0.4414  0.1519  0.2719
   43RES   C31918043   5.252   0.876   0.851 -0.3903  0.3899 -0.1400
   43RES   C32018044   5.369   0.782   0.897 -0.0098  0.1860 -0.4396
   43RES   C32118045   5.520   0.832   0.881  0.5995 -0.0930  0.1136
   43RES   C32218046   5.606   0.708   0.913 -0.1101  0.9355  1.3872
   43RES   C32318047   5.753   0.739   0.936  0.1263 -0.2675 -0.0851
   43RES   H32418048   5.147   0.675   1.021  3.0095  2.1552  0.8599
   43RES   H32518049   5.127   0.830   1.083  0.8284 -1.3457 -0.0248
   43RES   H32618050   5.041   0.909   0.848 -0.2135  0.0966 -1.0936
   43RES   H32718051   5.261   0.961   0.919 -0.5463  1.8039 -1.8393
   43RES   H32818052   5.280   0.920   0.755 -0.8178 -1.4362 -1.1182
   43RES   H32918053   5.359   0.689   0.841 -0.1456 -0.4269  0.5897
   43RES   H33018054   5.346   0.758   1.000  0.1736  0.3080 -0.3700
   43RES   H33118055   5.540   0.919   0.944 -0.5702  0.5472 -0.3706
   43RES   H33218056   5.516   0.860   0.775 -1.0925 -0.3035  0.1133
   43RES   H33318057   5.602   0.638   0.830  1.2579  0.2221  1.9085
   43RES   H33418058   5.565   0.651   0.997 -1.2582 -2.2953 -1.2816
   43RES   H33518059   5.799   0.646   0.970  2.8773  1.3287  0.7259
   43RES   H33618060   5.754   0.820   1.010 -0.8769  0.8331 -1.2362
   43RES   H33718061   5.802   0.752   0.839  0.7512 -0.2983  0.2245
   43RES   C33818062   5.065   0.721   0.748  0.3306 -0.4530 -0.1630
   43RES   C33918063   5.050   0.795   0.610 -0.1387 -0.1574 -0.3599
   43RES   C34018064   4.919   0.876   0.603  0.0912  0.1968  0.2710
   43RES   C34118065   4.794   0.791   0.616 -0.1222 -0.2735 -0.4718
   43RES   C34218066   4.676   0.889   0.610  0.0546 -0.4588  0.0778
   43RES   C34318067   4.538   0.823   0.637  0.0709 -0.0257  0.4340
   43RES   C34418068   4.511   0.756   0.778  0.5097 -0.1467  0.1495
   43RES   H34518069   4.978   0.660   0.772  0.3895 -0.7684 -0.7501
   43RES   H34618070   5.151   0.655   0.739  1.1432  0.4416  0.9584
   43RES   H34718071   5.127   0.872   0.603 -0.9046  0.5473 -1.1601
   43RES   H34818072   4.918   0.963   0.670  1.0432  1.5629 -1.4467
   43RES   H34918073   4.910   0.924   0.506 -0.8706 -0.8341 -0.1589
   43RES   H35018074   4.787   0.745   0.714  1.2910 -0.0229 -0.2518
   43RES   H35118075   4.792   0.704   0.550  2.1758  0.3380 -1.3887
   43RES   H35218076   4.696   0.973   0.677  0.1424 -0.6913  0.3439
   43RES   H35318077   4.672   0.925   0.508 -1.5959 -0.3939  0.1521
   43RES   H35418078   4.458   0.891   0.607 -1.3980 -1.7897  0.2541
   43RES   H35518079   4.537   0.738   0.569 -0.5693  1.0785 -0.9598
   43RES   H35618080   4.478   0.833   0.847 -0.4117 -0.6049  0.2282
   43RES   H35718081   4.603   0.717   0.822  1.0200  0.6904 -0.1731
   43RES   H35818082   4.430   0.684   0.790  0.3505  0.2332  1.4983
   43RES   C35918083   5.055   0.714   0.477 -0.6253 -0.0895 -0.1597
   43RES   C36018084   5.195   0.680   0.413  0.1217 -0.2575 -0.3479
   43RES   C36118085   5.278   0.804   0.381  0.0221 -0.4889 -0.2923
   43RES   C36218086   5.226   0.890   0.267 -0.9430  0.6533 -0.9861
   43RES   C36318087   5.339   0.995   0.228 -0.3839 -0.3600 -0.2234
   43RES   C36418088   5.313   1.063   0.091 -0.2343  0.0627 -0.1823
   43RES   C36518089   5.445   1.114   0.032  0.7725  0.2575  0.0207
   43RES   H36618090   4.993   0.754   0.397  0.8771 -0.9042 -1.7540
   43RES   H36718091   5.000   0.625   0.509 -2.0406  0.9506  0.3609
   43RES   H36818092   5.177   0.624   0.321  0.8016  0.3692 -0.8631
   43RES   H36918093   5.282   0.861   0.474 -0.4816 -0.4147 -0.3178
   43RES   H37018094   5.376   0.773   0.344 -0.2977 -0.2946 -1.3269
   43RES   H37118095   5.207   0.828   0.179 -3.5715  0.1060 -0.0927
   43RES   H37218096   5.139   0.948   0.297 -0.0242  1.4606  0.1677
   43RES   H37318097   5.344   1.071   0.305 -0.1842 -1.1505  0.5549
   43RES   H37418098   5.438   0.949   0.226 -0.4974 -0.5932 -1.0811
   43RES   H37518099   5.267   0.998   0.016  1.7666 -3.4727  1.5309
   43RES   H37618100   5.253   1.151   0.115 -0.9779 -1.1380  2.5900
   43RES   H37718101   5.489   1.176   0.110 -0.8559  1.9082 -0.3391
   43RES   H37818102   5.515   1.037   7.726 -0.9132 -0.5113 -1.8816
   43RES   H37918103   5.433   1.182   7.674 -1.7377  0.7835  0.7680
   43RES   C38018104   5.283   0.587   0.506 -0.1107 -0.0076  0.8720
   43RES   C38118105   5.370   0.481   0.436  0.8566  0.0825  0.2144
   43RES   C38218106   5.477   0.431   0.531 -0.0755  0.2743 -0.3232
   43RES   C38318107   5.584   0.333   0.470  0.4791  0.2692  0.3055
   43RES   C38418108   5.702   0.310   0.569 -0.5557  0.0848 -0.3754
   43RES   C38518109   5.819   0.235   0.510 -0.1203 -0.3927 -0.5681
   43RES   C38618110   5.935   0.220   0.611  0.0660 -0.7548 -0.5761
   43RES   H38718111   5.341   0.655   0.569 -0.4610  2.3886 -1.2983
   43RES   H38818112   5.222   0.531   0.577  1.4163  1.2486  3.2652
   43RES   H38918113   5.415   0.522   0.346  0.4169  0.2204  0.0526
   43RES   H39018114   5.437   0.386   0.621 -0.2953  1.4950  0.1979
   43RES   H39118115   5.528   0.519   0.571  1.5287 -0.4051 -0.8487
   43RES   H39218116   5.545   0.238   0.434  0.7777  1.0293 -2.1188
   43RES   H39318117   5.620   0.376   0.376 -1.8209 -0.7635 -1.0879
   43RES   H39418118   5.732   0.406   0.612  0.1200 -0.5061  0.5028
   43RES   H39518119   5.666   0.242   0.646  2.5144 -0.0056  1.0968
   43RES   H39618120   5.846   0.271   0.411  1.6546  1.0576  0.4227
   43RES   H39718121   5.782   0.136   0.483 -0.5483 -1.0662  2.2745
   43RES   H39818122   6.013   0.296   0.603 -1.3487  0.5953 -1.8865
   43RES   H39918123   5.978   0.122   0.593 -1.4728 -1.5745  0.1348
   43RES   H40018124   5.890   0.209   0.710 -1.4152  1.8604 -0.8992
   43RES   C40118125   5.280   0.375   0.378  0.1077  0.4109  0.5690
   43RES   C40218126   5.211   0.283   0.485  0.2212 -0.3807  0.2126
   43RES   C40318127   5.136   0.170   0.405  0.0790  0.0431 -0.5411
   43RES   C40418128   5.052   0.077   0.493 -0.2880  0.1732 -0.0185
   43RES   C40518129   4.938   0.005   0.416 -0.2650  0.1758  0.1621
   43RES   C40618130   4.848   7.644   0.499 -0.1500 -0.7572  0.5623
   43RES   C40718131   4.748   7.570   0.405 -0.2012 -0.2919 -0.2760
   43RES   H40818132   5.336   0.321   0.301  0.1885  0.5500  0.5304
   43RES   H40918133   5.210   0.411   0.303 -0.2619 -0.0118  0.7085
   43RES   H41018134   5.134   0.343   0.533  2.6944  0.2304  3.5833
   43RES   H41118135   5.200   0.102   0.349  0.3527  0.0556 -0.2470
   43RES   H41218136   5.072   0.221   0.333  1.7629  1.7575 -0.8883
   43RES   H41318137   5.000   0.119   0.580  2.6495 -0.3171  2.0556
   43RES   H41418138   5.118   0.005   0.542 -2.0932 -0.2810  1.8118
   43RES   H41518139   4.881   0.080   0.360  2.8364  1.3475 -1.5391
   43RES   H41618140   4.993   7.678   0.339  0.6007 -0.3742  1.1549
   43RES   H41718141   4.907   7.562   0.540  1.0075 -0.3606 -0.2671
   43RES   H41818142   4.792   7.699   0.574 -1.5895 -1.5250  0.0786
   43RES   H41918143   4.728   7.478   0.459  1.0297 -0.4679 -0.1104
   43RES   H42018144   4.784   7.545   0.306 -0.2797 -0.2872 -0.3057
   43RES   H42118145   4.659   7.630   0.388  0.4721  0.7601 -0.1564
   43RES   H42218146   5.282   0.255   0.563  1.3589 -0.0513 -0.6870
   44RES     C118147   6.375   3.561   4.860 -0.8287 -0.6730 -0.3824
   44RES     C218148   6.289   3.689   4.891 -0.5472  0.7327  0.7148
   44RES     C318149   6.361   3.816   4.842 -0.6319 -0.2300  0.4326
   44RES     C418150   6.404   3.815   4.688 -0.3777 -0.2411 -0.0056
   44RES     C518151   6.446   3.960   4.651 -0.7046 -0.2766  0.1361
   44RES     C618152   6.497   3.963   4.509  0.8020 -0.1452  0.4287
   44RES     C718153   6.597   4.080   4.480  0.0434 -0.1595  0.3030
   44RES     H818154   6.473   3.564   4.908 -0.4337 -0.5006 -1.1898
   44RES     H918155   6.404   3.555   4.755 -0.2552  0.7322 -0.3161
   44RES    H1018156   6.199   3.685   4.830  0.3455  0.0530 -0.5835
   44RES    H1118157   6.283   3.893   4.848  1.4294  1.8806  0.7873
   44RES    H1218158   6.440   3.839   4.913 -1.5801 -0.7553  1.6534
   44RES    H1318159   6.492   3.751   4.673 -2.0159 -2.6197  0.2707
   44RES    H1418160   6.337   3.777   4.611 -0.9822  0.0117  0.3909
   44RES    H1518161   6.519   4.001   4.722  1.2096  0.3404 -2.1229
   44RES    H1618162   6.353   4.015   4.655 -0.0626  0.8313  0.1055
   44RES    H1718163   6.407   3.971   4.448  2.3587  0.5202 -1.8602
   44RES    H1818164   6.535   3.865   4.482 -2.1810 -1.5933  1.3383
   44RES    H1918165   6.682   4.090   4.548  0.7585 -1.7859 -0.3238
   44RES    H2018166   6.545   4.175   4.493 -2.4105 -1.5288  0.8146
   44RES    H2118167   6.631   4.071   4.377 -0.1280  0.7007  0.1659
   44RES    H2218168   6.334   3.461   4.860 -0.1593 -0.9537 -0.5471
   44RES    C2318169   6.245   3.686   5.040 -0.2189  0.9394 -0.9792
   44RES    C2418170   6.163   3.569   5.100  0.9049  0.1113  0.5434
   44RES    C2518171   6.034   3.545   5.017  0.4553  0.3634  0.0367
   44RES    C2618172   5.927   3.652   5.030 -0.2419  0.0715  0.2344
   44RES    C2718173   5.785   3.605   4.981 -0.1226 -0.2814 -0.4437
   44RES    C2818174   5.679   3.715   4.978 -0.4517  0.1326 -0.2338
   44RES    C2918175   5.542   3.666   4.918 -0.5523 -0.1521  0.2319
   44RES    H3018176   6.334   3.694   5.103 -0.8293 -3.5102  0.5632
   44RES    H3118177   6.190   3.778   5.062 -0.6531  0.6177 -0.7208
   44RES    H3218178   6.224   3.479   5.086 -0.2198 -0.5752  0.0089
   44RES    H3318179   5.984   3.455   5.052  1.3955 -0.5385 -0.9385
   44RES    H3418180   6.043   3.527   4.910  1.1920 -2.5860  0.5673
   44RES    H3518181   5.957   3.749   4.991 -2.6328  0.7434 -0.0133
   44RES    H3618182   5.921   3.673   5.136 -0.3475 -0.6560  0.3778
   44RES    H3718183   5.749   3.527   5.049  0.5731 -1.1760 -1.0838
   44RES    H3818184   5.794   3.557   4.884  0.9102  0.9909 -0.9911
   44RES    H3918185   5.706   3.815   4.943 -0.0383  0.0153 -0.2486
   44RES    H4018186   5.648   3.739   5.080 -0.4030  0.9817 -0.4150
   44RES    H4118187   5.504   3.571   4.956  0.3815  0.0602  1.7469
   44RES    H4218188   5.474   3.741   4.958 -1.9312 -0.0956 -2.1673
   44RES    H4318189   5.519   3.675   4.812  0.3345 -0.7482 -0.0171
   44RES    C4418190   6.143   3.590   5.254  1.1347  0.6796  0.1806
   44RES    C4518191   6.052   3.493   5.334  0.1453 -0.7114  0.5273
   44RES    C4618192   6.113   3.347   5.326 -0.2394 -0.3657  0.1003
   44RES    C4718193   6.062   3.243   5.221  0.1618 -0.6630  0.0132
   44RES    C4818194   6.112   3.093   5.230 -0.0927  1.1224 -0.4459
   44RES    C4918195   6.043   3.011   5.126  0.9195  0.2714  0.1565
   44RES    C5018196   6.062   2.856   5.148  0.3917  0.0184 -0.4315
   44RES    H5118197   6.105   3.691   5.272  2.3271  1.0568  0.6800
   44RES    H5218198   6.241   3.584   5.302  1.1921  1.7897  0.2102
   44RES    H5318199   5.958   3.469   5.284 -0.3209  1.4009  0.3231
   44RES    H5418200   6.095   3.303   5.424  2.5521 -2.3291 -0.2006
   44RES    H5518201   6.221   3.343   5.314 -0.2133  1.8350 -0.6394
   44RES    H5618202   5.953   3.245   5.210  0.1645 -0.0873  0.0567
   44RES    H5718203   6.102   3.273   5.124  0.8484 -1.2046  0.1283
   44RES    H5818204   6.096   3.058   5.332 -1.7068  2.0503 -0.3537
   44RES    H5918205   6.218   3.091   5.208  0.2249  1.2610  0.9935
   44RES    H6018206   6.069   3.037   5.024 -0.1705 -1.0267 -0.4685
   44RES    H6118207   5.937   3.035   5.123  1.1448  1.3304  0.3963
   44RES    H6218208   6.034   2.774   5.081  0.7364 -0.4130 -0.0457
   44RES    H6318209   6.012   2.830   5.241  0.3093  0.6222 -0.3063
   44RES    H6418210   6.169   2.838   5.152  0.4569  0.0374 -1.7996
   44RES    C6518211   6.021   3.543   5.477  0.4423  0.0172 -0.5595
   44RES    C6618212   5.886   3.492   5.540 -0.4434 -0.3144 -0.1514
   44RES    C6718213   5.762   3.579   5.513 -0.0501 -0.6304 -0.6910
   44RES    C6818214   5.749   3.701   5.602 -0.2575 -0.3233  0.4209
   44RES    C6918215   5.642   3.800   5.554  0.2636  0.1199  0.0497
   44RES    C7018216   5.675   3.865   5.414  0.1904  0.5324 -0.0568
   44RES    C7118217   5.569   3.977   5.393  0.2248 -0.0736 -0.1414
   44RES    H7218218   6.103   3.531   5.547 -1.1938  2.8892  1.9755
   44RES    H7318219   6.007   3.651   5.477  2.0532  0.2462  0.0737
   44RES    H7418220   5.860   3.403   5.484  0.2879  0.3284 -1.5306
   44RES    H7518221   5.769   3.605   5.407  1.0074  1.5401 -0.1020
   44RES    H7618222   5.670   3.525   5.537 -0.8860  1.7357  1.6747
   44RES    H7718223   5.743   3.681   5.709 -1.9713  0.4532  0.4741
   44RES    H7818224   5.846   3.750   5.593 -0.5455  0.1083 -0.3796
   44RES    H7918225   5.545   3.751   5.546  0.2413  0.2885 -0.7924
   44RES    H8018226   5.622   3.882   5.623 -0.5724 -0.5299  0.5886
   44RES    H8118227   5.650   3.788   5.341  1.3842 -0.3538  0.4581
   44RES    H8218228   5.780   3.893   5.402  0.0172  1.1409 -0.1851
   44RES    H8318229   5.577   4.058   5.466 -2.7940  0.9476 -0.8472
   44RES    H8418230   5.565   4.011   5.289  0.4703 -1.0065 -0.4567
   44RES    H8518231   5.475   3.931   5.425 -0.0553  0.6553  0.1021
   44RES    C8618232   5.913   3.461   5.687 -0.1318 -0.8785 -0.0823
   44RES    C8718233   6.003   3.344   5.727  0.2942 -0.6569  0.7199
   44RES    C8818234   6.018   3.347   5.879 -0.7916  0.1582  0.2866
   44RES    C8918235   6.092   3.459   5.944  0.7784 -0.5205  0.7109
   44RES    C9018236   6.093   3.458   6.093 -0.5112  0.3669  0.3316
   44RES    C9118237   6.167   3.588   6.141  0.4210  0.2118  0.9136
   44RES    C9218238   6.157   3.615   6.290 -0.4401  0.2511  0.2742
   44RES    H9318239   5.966   3.545   5.730 -1.5798 -0.0292  0.0855
   44RES    H9418240   5.818   3.449   5.740  1.1507 -0.7563  2.2877
   44RES    H9518241   6.101   3.356   5.682 -0.6139  0.6197 -0.9958
   44RES    H9618242   5.915   3.342   5.915 -0.3582  2.7983  2.0623
   44RES    H9718243   6.067   3.260   5.922  0.0067  1.3176  1.7431
   44RES    H9818244   6.196   3.470   5.911 -0.1377  0.9862 -1.8050
   44RES    H9918245   6.054   3.559   5.922 -1.1483 -1.0544  1.4965
   44RES   H10018246   6.156   3.371   6.108 -0.2136  0.8758  2.2255
   44RES   H10118247   6.001   3.453   6.152 -0.7299 -0.5208 -0.0878
   44RES   H10218248   6.270   3.578   6.107 -0.2622 -1.3343 -0.8173
   44RES   H10318249   6.132   3.676   6.085 -0.6700 -0.6279  0.2374
   44RES   H10418250   6.225   3.693   6.324 -2.4508  3.3996 -2.6866
   44RES   H10518251   6.177   3.524   6.346  0.4024  0.1140 -0.2494
   44RES   H10618252   6.057   3.651   6.315 -0.6656 -0.8558  1.0003
   44RES   C10718253   5.936   3.207   5.691  0.6331  0.2960  0.4999
   44RES   C10818254   5.994   3.074   5.746  0.6298 -0.2402 -0.1762
   44RES   C10918255   5.912   2.945   5.714 -0.1209 -0.2986  0.1991
   44RES   C11018256   5.905   2.910   5.564  0.4097  0.2708  0.5179
   44RES   C11118257   5.817   2.785   5.550  0.9580 -0.2630  0.5260
   44RES   C11218258   5.772   2.746   5.404  0.5779 -0.4415 -0.3332
   44RES   C11318259   5.686   2.626   5.404  0.8679  0.2195 -0.9146
   44RES   H11418260   5.924   3.205   5.583 -1.3984 -0.7129  0.7121
   44RES   H11518261   5.834   3.220   5.727 -0.1421 -1.0313 -1.1636
   44RES   H11618262   5.986   3.084   5.854  1.5230  1.6627 -0.2626
   44RES   H11718263   5.809   2.974   5.736 -0.1441  1.3743 -1.9448
   44RES   H11818264   5.949   2.863   5.775 -2.5328  0.2417  2.4597
   44RES   H11918265   5.866   2.997   5.512 -1.2731 -1.2040 -0.7490
   44RES   H12018266   6.003   2.886   5.521  0.0549  0.6950 -0.5325
   44RES   H12118267   5.731   2.790   5.617 -1.4085  0.7078 -2.4233
   44RES   H12218268   5.880   2.706   5.590 -0.6064 -0.4317  2.6901
   44RES   H12318269   5.734   2.829   5.346  1.3438  0.7867  0.8835
   44RES   H12418270   5.868   2.718   5.359 -0.9931 -1.2712 -3.2739
   44RES   H12518271   5.591   2.650   5.452  1.3916  1.7569 -0.6133
   44RES   H12618272   5.660   2.597   5.302  0.3757  2.7973 -1.5469
   44RES   H12718273   5.729   2.542   5.459  0.9941  0.1717 -1.0859
   44RES   C12818274   6.143   3.071   5.709  0.0075  0.2318  1.1312
   44RES   C12918275   6.231   2.942   5.748  0.6782 -0.0561  0.5548
   44RES   C13018276   6.220   2.895   5.892  0.1873  0.1652  0.1601
   44RES   C13118277   6.231   2.744   5.909 -0.5759  0.4011  0.5751
   44RES   C13218278   6.227   2.709   6.054 -0.3767 -0.0437  0.0375
   44RES   C13318279   6.316   2.587   6.088 -0.3031 -1.0663 -0.0183
   44RES   C13418280   6.271   2.457   6.023 -0.2729  0.3610 -0.1836
   44RES   H13518281   6.143   3.088   5.601  1.9421 -1.3651  0.8525
   44RES   H13618282   6.201   3.151   5.754  2.2783 -1.1706  0.7477
   44RES   H13718283   6.181   2.864   5.690  0.0525  2.6478 -2.7513
   44RES   H13818284   6.121   2.921   5.931 -0.0007  0.6294 -0.6090
   44RES   H13918285   6.294   2.952   5.948 -0.8060  0.9472  0.6984
   44RES   H14018286   6.332   2.715   5.878 -0.3010  0.5849  1.2845
   44RES   H14118287   6.167   2.685   5.844 -1.0554 -0.1414  1.5327
   44RES   H14218288   6.125   2.685   6.082 -0.5891 -0.9882 -1.4779
   44RES   H14318289   6.270   2.791   6.111 -0.1120 -0.0789 -0.1069
   44RES   H14418290   6.298   2.579   6.195 -1.8986  0.9314 -0.1106
   44RES   H14518291   6.421   2.599   6.060 -0.5349 -0.8141 -0.8191
   44RES   H14618292   6.277   2.471   5.915  0.7205 -0.5252 -0.2466
   44RES   H14718293   6.169   2.417   6.026 -1.3570  2.9554 -1.1164
   44RES   H14818294   6.340   2.374   6.039  0.7702  1.3418  0.5240
   44RES   C14918295   6.381   2.965   5.708 -0.3551  0.8690 -0.5155
   44RES   C15018296   6.411   3.001   5.567 -0.3758  0.0402 -0.0122
   44RES   C15118297   6.366   2.904   5.461  0.4439  0.2366  0.5451
   44RES   C15218298   6.410   2.751   5.498 -0.4525  0.0249 -0.6684
   44RES   C15318299   6.339   2.645   5.415 -0.0779  0.2354 -0.1167
   44RES   C15418300   6.187   2.631   5.450 -0.1871  0.3808 -0.3572
   44RES   C15518301   6.148   2.513   5.541 -0.4970  0.2435  0.7430
   44RES   H15618302   6.413   3.042   5.779  1.1582 -0.7055  0.5622
   44RES   H15718303   6.441   2.884   5.749  0.1448  0.6285 -1.7184
   44RES   H15818304   6.349   3.089   5.551  0.0182  0.4928  0.9126
   44RES   H15918305   6.259   2.915   5.444  0.3623  0.1765  1.0162
   44RES   H16018306   6.407   2.925   5.362 -1.8620  0.3359 -0.4250
   44RES   H16118307   6.398   2.724   5.603  0.6827  2.8426  0.2324
   44RES   H16218308   6.516   2.747   5.474  0.0613  0.7007  1.4172
   44RES   H16318309   6.391   2.557   5.453  2.3512  1.5227 -0.4195
   44RES   H16418310   6.349   2.651   5.307  0.0995  0.6115 -0.0770
   44RES   H16518311   6.131   2.603   5.361  0.6730  0.4153 -0.9154
   44RES   H16618312   6.145   2.725   5.485 -0.4372  0.5572 -1.1329
   44RES   H16718313   6.162   2.536   5.647  1.0223 -0.2709  0.6710
   44RES   H16818314   6.215   2.431   5.514 -0.8637  0.9433 -2.5011
   44RES   H16918315   6.044   2.483   5.530 -0.5737 -0.3581  2.8377
   44RES   C17018316   6.558   3.041   5.548  0.0670 -0.3921  0.6812
   44RES   C17118317   6.601   3.175   5.635 -0.0364  0.1386  0.1106
   44RES   C17218318   6.694   3.143   5.750  0.2260  0.4365  0.0116
   44RES   C17318319   6.836   3.083   5.720  0.9870 -0.2622  1.3933
   44RES   C17418320   6.929   3.062   5.840 -0.4271  0.6148 -0.2971
   44RES   C17518321   7.070   2.998   5.794 -0.2820  0.0491  0.9501
   44RES   C17618322   7.142   3.081   5.689 -0.2778  0.5469 -0.4305
   44RES   H17718323   6.569   3.085   5.448 -2.1392  0.3123  0.7385
   44RES   H17818324   6.632   2.961   5.550  0.3665 -0.2317 -2.0489
   44RES   H17918325   6.519   3.201   5.702  0.0683  0.0521  0.2730
   44RES   H18018326   6.642   3.082   5.823 -0.9984  1.7709  0.2846
   44RES   H18118327   6.700   3.237   5.805  0.0023  0.6812 -0.3759
   44RES   H18218328   6.886   3.147   5.647 -1.3939  2.9011  2.4188
   44RES   H18318329   6.815   2.984   5.678 -0.4943 -1.0484  3.8615
   44RES   H18418330   6.876   2.998   5.911  0.4077 -1.9480 -1.9069
   44RES   H18518331   6.944   3.162   5.880  1.6784  0.3587 -0.4348
   44RES   H18618332   7.055   2.897   5.757  1.3015  0.7639 -1.7355
   44RES   H18718333   7.129   2.999   5.886  1.6216 -1.5065 -0.2359
   44RES   H18818334   7.100   3.057   5.592  0.0226 -0.5496 -0.2900
   44RES   H18918335   7.246   3.048   5.687 -0.7582 -1.1106  0.8260
   44RES   H19018336   7.138   3.189   5.708  1.5763  0.5580 -0.0367
   44RES   C19118337   6.642   3.298   5.543  0.1136  0.2828  0.7127
   44RES   C19218338   6.535   3.355   5.458  0.3366  0.1059 -0.3294
   44RES   C19318339   6.436   3.441   5.543  0.2744  0.0999  0.4752
   44RES   C19418340   6.492   3.578   5.590  0.4841  0.2832  0.0819
   44RES   C19518341   6.380   3.660   5.665 -0.3257  0.9035  0.2334
   44RES   C19618342   6.425   3.796   5.715  0.1740 -0.6036 -0.0295
   44RES   C19718343   6.312   3.863   5.793  0.1393  0.1830  0.1164
   44RES   H19818344   6.723   3.259   5.482 -0.7840 -0.5908  0.0612
   44RES   H19918345   6.688   3.371   5.609  1.0128 -1.0195  1.5601
   44RES   H20018346   6.471   3.275   5.421  0.7844 -0.0195 -0.8461
   44RES   H20118347   6.393   3.379   5.621 -0.8491  3.3893  2.5476
   44RES   H20218348   6.360   3.466   5.469 -0.3302 -0.1121  1.0213
   44RES   H20318349   6.518   3.628   5.497  0.4781  0.0617 -0.0381
   44RES   H20418350   6.576   3.565   5.659  0.3716  1.4980  0.4566
   44RES   H20518351   6.296   3.667   5.596  0.8465  1.8016 -1.1426
   44RES   H20618352   6.348   3.598   5.749  0.0265 -0.6407 -0.7628
   44RES   H20718353   6.447   3.862   5.630 -1.7980 -1.7209 -1.4694
   44RES   H20818354   6.519   3.786   5.769 -0.9130  1.4889  2.3428
   44RES   H20918355   6.222   3.892   5.739 -1.9459 -2.4360  1.9858
   44RES   H21018356   6.360   3.946   5.844  1.7832  0.9755 -2.6442
   44RES   H21118357   6.277   3.792   5.869 -2.5027  0.7030 -0.5557
   44RES   C21218358   6.590   3.429   5.333  0.4019  0.3514  0.1862
   44RES   C21318359   6.642   3.333   5.217  0.5570  0.4227 -0.0539
   44RES   C21418360   6.530   3.242   5.158  0.8745  0.0732  0.5921
   44RES   C21518361   6.575   3.128   5.061 -1.0018  0.3787  0.2243
   44RES   C21618362   6.448   3.062   4.996 -0.2999 -0.4086 -0.5820
   44RES   C21718363   6.484   2.941   4.918  0.7332  0.2377  0.9582
   44RES   C21818364   6.347   2.875   4.875 -0.2229 -0.2947  0.2688
   44RES   H21918365   6.679   3.486   5.359  0.3246  0.9273 -0.7718
   44RES   H22018366   6.521   3.498   5.285  1.6803  1.2217 -0.4197
   44RES   H22118367   6.707   3.257   5.259  0.0758 -0.5960 -1.1194
   44RES   H22218368   6.481   3.192   5.242 -0.3134 -0.4642 -0.4027
   44RES   H22318369   6.460   3.309   5.107 -0.0232  0.6794  2.5676
   44RES   H22418370   6.629   3.050   5.115  0.3473  0.2302 -1.2968
   44RES   H22518371   6.626   3.166   4.973 -0.3451 -0.8566  0.0682
   44RES   H22618372   6.371   3.045   5.072 -0.2746 -0.7563 -0.6329
   44RES   H22718373   6.400   3.137   4.932  3.3076  1.9449 -0.6625
   44RES   H22818374   6.541   2.977   4.832 -1.2024  0.1330 -0.3917
   44RES   H22918375   6.550   2.876   4.975 -0.9703 -0.1631  2.4715
   44RES   H23018376   6.284   2.947   4.822  1.7719 -1.3827 -3.8586
   44RES   H23118377   6.295   2.825   4.956  0.8156 -0.7336  0.6812
   44RES   H23218378   6.370   2.802   4.797 -1.4769 -0.3773 -0.0227
   44RES   C23318379   6.721   3.404   5.097  0.0696 -0.3747  0.3700
   44RES   C23418380   6.855   3.474   5.144 -0.2191 -1.3034  0.3986
   44RES   C23518381   6.962   3.391   5.209  0.5526  0.1211 -0.2430
   44RES   C23618382   7.037   3.284   5.122 -0.5385  0.5283 -0.8919
   44RES   C23718383   7.139   3.198   5.204  0.3657  0.1412  0.6904
   44RES   C23818384   7.210   3.081   5.129  0.2834  0.0951  0.4808
   44RES   C23918385   7.314   3.122   5.026 -0.1908 -0.0465  0.1104
   44RES   H24018386   6.658   3.478   5.049  0.8986 -0.0633 -0.2468
   44RES   H24118387   6.744   3.340   5.012 -1.6952 -1.6894  0.8619
   44RES   H24218388   6.828   3.551   5.216  0.1406 -1.5125  0.7600
   44RES   H24318389   6.931   3.346   5.304  0.5480 -1.0004 -0.7803
   44RES   H24418390   7.039   3.459   5.246  1.0050  0.0721 -1.0783
   44RES   H24518391   7.092   3.335   5.042  1.3314 -0.7812 -0.4805
   44RES   H24618392   6.966   3.224   5.066 -0.5357  0.8348 -1.2266
   44RES   H24718393   7.100   3.164   5.300 -2.1595  1.7687  0.2798
   44RES   H24818394   7.214   3.262   5.250 -1.0975  2.8721 -0.5600
   44RES   H24918395   7.254   3.020   5.207  1.2399  1.7547  1.2578
   44RES   H25018396   7.132   3.013   5.094  1.1866 -1.2125  1.0006
   44RES   H25118397   7.408   3.137   5.079  0.3224 -2.0275 -0.1944
   44RES   H25218398   7.330   3.054   4.943  0.9579  0.1911  0.1255
   44RES   H25318399   7.292   3.217   4.977 -0.4398  1.6946  3.4249
   44RES   C25418400   6.912   3.559   5.028 -0.2759  0.0142 -0.3145
   44RES   C25518401   6.834   3.691   5.006 -0.6017 -0.0907 -0.0545
   44RES   C25618402   6.844   3.734   4.852  0.2677 -0.3521  0.3918
   44RES   C25718403   6.983   3.794   4.805  0.0250  0.0002  0.2650
   44RES   C25818404   6.992   3.805   4.650 -0.5514  0.5213 -0.1893
   44RES   C25918405   7.008   3.671   4.573  0.0626  0.9608  0.3188
   44RES   C26018406   6.959   3.694   4.429 -0.3878 -0.0194 -0.4843
   44RES   H26118407   6.905   3.503   4.935  1.3196 -0.7393 -0.0014
   44RES   H26218408   7.020   3.568   5.038 -0.2508 -1.5847  1.0947
   44RES   H26318409   6.731   3.666   5.032 -0.3907 -0.5910  0.2998
   44RES   H26418410   6.787   3.822   4.825  0.5208 -0.5191 -0.7055
   44RES   H26518411   6.792   3.659   4.792  0.7025 -1.9136  1.9030
   44RES   H26618412   7.008   3.889   4.852  0.3154  0.0424  0.0335
   44RES   H26718413   7.061   3.721   4.829 -0.3466 -0.5147 -0.0816
   44RES   H26818414   7.082   3.862   4.624 -0.1798  0.2661  0.5356
   44RES   H26918415   6.909   3.869   4.620 -1.2188  0.4813  1.5181
   44RES   H27018416   7.106   3.624   4.571  0.5900  2.0713 -0.3146
   44RES   H27118417   6.938   3.599   4.616  0.5461 -0.4294 -1.1438
   44RES   H27218418   6.987   3.600   4.380 -0.2299  0.0823 -0.5898
   44RES   H27318419   6.853   3.715   4.417 -0.2898  1.4766  1.0625
   44RES   H27418420   7.012   3.776   4.380  0.1305  0.5753  1.0330
   44RES   C27518421   6.885   3.810   5.089 -0.0055  0.2490  0.0189
   44RES   C27618422   6.794   3.847   5.217 -0.8824 -1.3614  0.4086
   44RES   C27718423   6.676   3.947   5.188 -0.6578  0.3942 -0.2155
   44RES   C27818424   6.551   3.911   5.276 -0.1803 -0.7876  0.0247
   44RES   C27918425   6.432   4.014   5.261  0.9609 -0.0464  0.0940
   44RES   C28018426   6.322   3.964   5.356  0.3524  0.4536  0.0876
   44RES   C28118427   6.205   4.065   5.376 -0.0349 -0.0696 -0.3233
   44RES   H28218428   6.887   3.902   5.031 -1.6915  0.5467  0.4123
   44RES   H28318429   6.991   3.793   5.110  0.0514 -1.0166 -1.2273
   44RES   H28418430   6.758   3.751   5.254 -0.6494 -1.4032  0.5362
   44RES   H28518431   6.701   4.051   5.209 -0.9258  0.2356  0.8904
   44RES   H28618432   6.653   3.933   5.082 -3.4041  2.0227  0.1389
   44RES   H28718433   6.589   3.908   5.378 -0.8748 -0.4446  0.2984
   44RES   H28818434   6.521   3.808   5.257 -0.4897 -0.7212  0.1683
   44RES   H28918435   6.401   4.021   5.156  0.5476  0.7296  0.2647
   44RES   H29018436   6.470   4.112   5.290  0.2472  0.5619 -1.0038
   44RES   H29118437   6.277   3.869   5.330 -0.0202  0.5101  0.5226
   44RES   H29218438   6.372   3.947   5.452  0.1617 -0.0265  0.1015
   44RES   H29318439   6.143   4.062   5.287  0.2688 -1.1829 -0.4988
   44RES   H29418440   6.244   4.167   5.382  1.4486 -0.3217 -4.3117
   44RES   H29518441   6.133   4.046   5.456 -0.5010  2.1592 -0.1885
   44RES   C29618442   6.887   3.907   5.332 -0.5872  0.0958 -0.5080
   44RES   C29718443   6.986   3.812   5.408  0.4549 -0.5130 -0.4371
   44RES   C29818444   6.910   3.728   5.517 -0.5373 -0.0214 -0.1446
   44RES   C29918445   7.005   3.618   5.561 -0.2904 -0.1041 -0.4848
   44RES   C30018446   6.940   3.499   5.636 -0.1092  0.7199  0.6491
   44RES   C30118447   6.859   3.518   5.767 -0.1533  0.4254 -0.1637
   44RES   C30218448   6.953   3.550   5.890  0.0847 -0.7176  0.4481
   44RES   H30318449   6.949   3.980   5.281 -0.9208 -0.3090 -1.5118
   44RES   H30418450   6.827   3.957   5.407  0.1314 -3.5232  2.6120
   44RES   H30518451   7.012   3.735   5.335 -3.2804 -2.6258  0.3035
   44RES   H30618452   6.883   3.793   5.601 -1.2944 -0.8685  0.2732
   44RES   H30718453   6.822   3.680   5.475 -0.3588  0.0437 -0.5913
   44RES   H30818454   7.087   3.657   5.621  0.9468 -3.1627 -0.0539
   44RES   H30918455   7.060   3.577   5.475 -0.4579 -0.1572 -0.5685
   44RES   H31018456   7.024   3.435   5.663 -1.0407 -1.3295 -1.1733
   44RES   H31118457   6.884   3.439   5.564  2.4148 -0.7183 -0.1846
   44RES   H31218458   6.782   3.595   5.757 -1.3180 -0.6166  0.6672
   44RES   H31318459   6.807   3.427   5.798  1.5418 -1.2320 -2.0988
   44RES   H31418460   7.006   3.645   5.883 -1.3855  0.2405  2.0542
   44RES   H31518461   6.892   3.560   5.980 -2.1827  1.0593 -1.2348
   44RES   H31618462   7.025   3.473   5.918 -0.4655 -1.8570 -1.2095
   44RES   C31718463   7.101   3.899   5.447 -0.2885 -0.7020 -0.7526
   44RES   C31818464   7.220   3.898   5.351 -0.4273 -0.6335 -0.0281
   44RES   C31918465   7.290   4.032   5.338 -0.0855  0.1322 -0.4952
   44RES   C32018466   7.224   4.139   5.246 -0.2268 -0.2748 -0.0224
   44RES   C32118467   7.293   4.280   5.272  0.3149  0.8369  0.4815
   44RES   C32218468   7.228   4.397   5.194  0.1677  0.7209  0.4448
   44RES   C32318469   7.308   4.524   5.184 -0.2616 -0.4960  0.2415
   44RES   H32418470   7.130   3.879   5.551 -2.9149 -0.8341 -0.0011
   44RES   H32518471   7.059   3.997   5.468 -1.2430 -1.4417  0.9641
   44RES   H32618472   7.173   3.874   5.255 -0.5295  2.2047 -0.7098
   44RES   H32718473   7.397   4.021   5.320 -0.0121 -0.0250  0.0233
   44RES   H32818474   7.300   4.076   5.437  0.0589 -0.8739 -0.0502
   44RES   H32918475   7.120   4.152   5.274 -0.1801 -0.5100  0.2680
   44RES   H33018476   7.227   4.119   5.139  2.0027 -1.1192  0.1683
   44RES   H33118477   7.399   4.276   5.244  0.5386 -0.5712  1.4720
   44RES   H33218478   7.292   4.305   5.378 -1.4267  1.1593  0.3937
   44RES   H33318479   7.130   4.424   5.234  0.1861  2.2237 -0.4931
   44RES   H33418480   7.205   4.376   5.090  1.5457 -0.0177  0.2809
   44RES   H33518481   7.333   4.572   5.278  0.5815 -1.2964  0.4328
   44RES   H33618482   7.264   4.599   5.118 -0.7652 -0.3084  0.7856
   44RES   H33718483   7.404   4.500   5.139  0.5105  1.5541  0.7336
   44RES   C33818484   7.325   3.788   5.394  0.0489 -0.3104  0.0719
   44RES   C33918485   7.435   3.750   5.292  0.3481  0.2161 -0.3590
   44RES   C34018486   7.380   3.655   5.184 -0.7085 -0.2755 -1.1211
   44RES   C34118487   7.458   3.655   5.052  0.8959 -0.4037 -0.3140
   44RES   C34218488   7.369   3.583   4.947  0.1995 -0.2790  0.0736
   44RES   C34318489   7.440   3.533   4.818 -0.0176  0.7061 -0.4003
   44RES   C34418490   7.546   3.424   4.846  0.3361  0.1821  0.9309
   44RES   H34518491   7.283   3.694   5.429 -1.4884 -0.6421 -2.5427
   44RES   H34618492   7.385   3.818   5.480 -0.8375 -0.7826  0.8600
   44RES   H34718493   7.466   3.837   5.233  0.3734  1.2725  1.1716
   44RES   H34818494   7.399   3.554   5.219 -0.9418 -0.4924 -1.6133
   44RES   H34918495   7.271   3.662   5.183 -0.8439 -1.5796  1.2039
   44RES   H35018496   7.550   3.598   5.064  0.5573 -1.4280 -2.4153
   44RES   H35118497   7.489   3.756   5.025 -0.1658  0.0347  0.0578
   44RES   H35218498   7.329   3.493   4.994 -0.2224 -0.3988 -0.5140
   44RES   H35318499   7.291   3.650   4.911  3.2393  3.1204 -0.4824
   44RES   H35418500   7.369   3.500   4.742  0.0943  2.2874 -1.2115
   44RES   H35518501   7.480   3.625   4.776  0.1126  0.9017  0.1412
   44RES   H35618502   7.508   3.334   4.895  1.1522 -0.3610  0.5745
   44RES   H35718503   7.625   3.469   4.906 -1.4844  1.2505  2.5402
   44RES   H35818504   7.592   3.375   4.760 -1.7740 -1.4548  0.6990
   44RES   C35918505   7.571   3.705   5.352  0.1947 -0.1926 -0.5187
   44RES   C36018506   7.659   3.820   5.415 -0.2138  0.4632 -0.3305
   44RES   C36118507   7.711   3.762   5.551 -0.0035 -0.0020  0.1527
   44RES   C36218508   0.097   3.662   5.535  0.1020  0.5555 -0.9377
   44RES   C36318509   0.133   3.612   5.683 -0.1593 -0.1358  0.4973
   44RES   C36418510   0.258   3.518   5.681 -0.7029  0.0226 -0.1601
   44RES   C36518511   0.254   3.379   5.618  0.4793  0.7503 -0.0787
   44RES   H36618512   7.631   3.664   5.271 -0.6144  0.5656 -1.5158
   44RES   H36718513   7.555   3.623   5.423 -0.6194  1.4089  1.2171
   44RES   H36818514   7.594   3.899   5.454  0.3767  1.9460 -2.2273
   44RES   H36918515   0.024   3.837   5.620 -0.8379  1.6493 -1.1109
   44RES   H37018516   7.626   3.721   5.605  0.9100 -0.6284  1.1331
   44RES   H37118517   0.064   3.579   5.472  1.5403  0.0615 -1.0480
   44RES   H37218518   0.187   3.713   5.502  0.0022  0.5597 -1.2013
   44RES   H37318519   0.159   3.700   5.743  0.9302  0.4354 -0.7837
   44RES   H37418520   0.054   3.568   5.744 -0.0100 -0.5802  0.3707
   44RES   H37518521   0.322   3.562   5.605 -2.0350 -1.4553 -2.2095
   44RES   H37618522   0.313   3.513   5.775  0.2309  0.4102 -0.6858
   44RES   H37718523   0.198   3.299   5.667  1.3572 -0.1686 -0.5470
   44RES   H37818524   0.195   3.377   5.526  0.7716  1.1624 -0.2742
   44RES   H37918525   0.350   3.336   5.591 -0.3169 -1.4911  0.4793
   44RES   C38018526   0.030   3.879   5.310  0.8385  0.1846  0.2208
   44RES   C38118527   0.083   4.022   5.333 -0.2403  0.3703  0.4041
   44RES   C38218528   0.217   4.010   5.409  0.0076  1.0001  0.2710
   44RES   C38318529   0.340   3.984   5.321  0.3871 -0.9139 -0.1957
   44RES   C38418530   0.465   3.994   5.403 -0.3383 -0.1839  0.2168
   44RES   C38518531   0.592   3.940   5.325 -0.1821 -0.4000  0.2791
   44RES   C38618532   0.590   3.780   5.337 -0.0724  0.2548  0.5546
   44RES   H38718533   0.115   3.812   5.296  1.0831  0.8620 -1.7459
   44RES   H38818534   7.697   3.883   5.219 -1.1550 -0.6892  1.4545
   44RES   H38918535   0.008   4.076   5.390  0.3203  0.7293  0.8012
   44RES   H39018536   0.216   3.926   5.478  0.1664 -1.0152 -2.1117
   44RES   H39118537   0.231   4.096   5.475 -0.5056 -1.3688  3.6363
   44RES   H39218538   0.327   3.894   5.260 -1.9951 -1.7901  1.5273
   44RES   H39318539   0.343   4.060   5.242 -2.6422  0.1215  0.5951
   44RES   H39418540   0.493   4.098   5.416 -1.9282  0.2860 -0.0359
   44RES   H39518541   0.464   3.947   5.501 -1.1352  2.8053  1.6929
   44RES   H39618542   0.682   3.988   5.363 -0.5777 -0.2691  1.0515
   44RES   H39718543   0.586   3.973   5.221 -1.2693  0.2408  0.5405
   44RES   H39818544   0.569   3.754   5.441 -1.2188  1.2509  0.5834
   44RES   H39918545   0.685   3.742   5.300  0.9686  2.0287  1.3465
   44RES   H40018546   0.502   3.744   5.284  2.1420 -0.2188 -2.9643
   44RES   C40118547   0.097   4.094   5.195  0.5159  0.6737 -0.1890
   44RES   C40218548   7.685   4.135   5.123  0.2075  0.4175 -0.3052
   44RES   C40318549   7.697   4.167   4.974 -0.0832 -0.1966  0.4519
   44RES   C40418550   7.575   4.227   4.909  0.0385  0.0693  0.6963
   44RES   C40518551   7.450   4.142   4.896  0.3036 -1.1008 -0.2199
   44RES   C40618552   7.339   4.217   4.816  0.5963  0.1611 -0.2230
   44RES   C40718553   7.204   4.144   4.805  0.6984  0.1749  0.1080
   44RES   H40818554   0.156   4.030   5.130  0.1301  0.3075 -0.1784
   44RES   H40918555   0.158   4.179   5.226  1.4980  0.3247 -1.1254
   44RES   H41018556   7.645   4.217   5.182  0.0206  1.6601 -2.1125
   44RES   H41118557   7.719   4.081   4.911 -0.3097  0.5123 -0.5996
   44RES   H41218558   0.056   4.234   4.961  1.3523 -1.6063  2.3456
   44RES   H41318559   7.609   4.259   4.810 -1.5666 -2.5681 -0.7568
   44RES   H41418560   7.558   4.320   4.963 -3.3010  0.3604 -0.7612
   44RES   H41518561   7.466   4.049   4.841 -0.9033 -1.5154  0.1090
   44RES   H41618562   7.414   4.126   4.997 -0.5880  1.2307 -0.1314
   44RES   H41718563   7.332   4.306   4.878 -1.8694  0.5157 -0.9323
   44RES   H41818564   7.371   4.240   4.715  1.3139  2.4198  0.4824
   44RES   H41918565   7.214   4.063   4.733  0.4518  0.6252 -0.4419
   44RES   H42018566   7.133   4.212   4.758 -0.7241 -1.9991 -0.9473
   44RES   H42118567   7.167   4.122   4.905  1.1707  2.5091  0.8369
   44RES   H42218568   7.613   4.054   5.136  1.8949 -0.9705  0.6605
   45RES     C118569   1.398   0.001   7.692  0.0880  0.6552 -0.1132
   45RES     C218570   1.469   0.076   7.574 -0.1301  0.3613 -0.8479
   45RES     C318571   1.576   7.702   7.523 -0.1969  0.2827 -0.4576
   45RES     C418572   1.517   7.583   7.438  0.3794 -0.5272  0.3121
   45RES     C518573   1.631   7.499   7.380 -0.2371 -0.3831  0.2674
   45RES     C618574   1.595   7.425   7.254 -0.2364 -0.2688  0.6125
   45RES     C718575   1.486   7.321   7.265 -0.2394 -0.2323  0.3723
   45RES     H818576   1.331   0.067   0.021  0.3659 -1.3797  2.7165
   45RES     H918577   1.466   7.690   0.041  1.6757  1.4224 -1.1398
   45RES    H1018578   1.397   0.089   7.494  0.8769  3.1484 -1.3779
   45RES    H1118579   1.651   0.035   7.472  1.9173 -3.3298 -1.7013
   45RES    H1218580   1.631   7.665   7.609  1.3185 -1.3282 -2.0884
   45RES    H1318581   1.469   7.516   7.510 -1.5741  0.9377  0.3996
   45RES    H1418582   1.449   7.619   7.361  1.2933  1.0389  0.2171
   45RES    H1518583   1.663   7.430   7.459  3.1330 -0.8552 -1.3961
   45RES    H1618584   1.710   7.570   7.354 -1.1288  0.5759  0.1403
   45RES    H1718585   1.686   7.371   7.224  0.6943  1.2585  0.6417
   45RES    H1818586   1.560   7.488   7.172 -0.4835  0.8762  1.5885
   45RES    H1918587   1.396   7.350   7.320 -1.8240 -2.3868 -1.0200
   45RES    H2018588   1.538   7.236   7.311  0.9401  0.5874  0.5838
   45RES    H2118589   1.445   7.295   7.168 -2.9009  0.8413  1.1619
   45RES    H2218590   1.332   7.647   7.661  1.2342 -1.0754  1.8182
   45RES    C2318591   1.516   0.213   7.628  0.1299 -0.8360  0.0643
   45RES    C2418592   1.559   0.320   7.521  0.9463 -0.0834  0.4186
   45RES    C2518593   1.663   0.415   7.584  0.1586  0.0201 -1.0112
   45RES    C2618594   1.815   0.373   7.570 -0.5432 -0.0840 -0.1335
   45RES    C2718595   1.918   0.459   7.638  0.4351  0.1871 -0.0633
   45RES    C2818596   1.912   0.465   0.062  0.2319 -0.7461  0.3477
   45RES    C2918597   2.003   0.580   0.109 -0.7195 -0.7694 -0.2770
   45RES    H3018598   1.445   0.263   7.695  0.9639  0.4623  0.0092
   45RES    H3118599   1.604   0.185   7.686 -0.4033 -1.6532  0.4850
   45RES    H3218600   1.594   0.272   7.430  2.9156  1.0032  0.5874
   45RES    H3318601   1.638   0.420   7.690  1.6469 -0.3524 -0.6239
   45RES    H3418602   1.667   0.518   7.548  0.3114  0.2294 -0.3933
   45RES    H3518603   1.828   0.385   7.462  1.3794 -3.5967 -0.3704
   45RES    H3618604   1.824   0.272   7.608  0.5263  0.0641  0.0137
   45RES    H3718605   1.909   0.561   7.602  0.0593  0.2875  0.3144
   45RES    H3818606   2.012   0.412   7.608  1.0484  1.8760 -0.8173
   45RES    H3918607   1.939   0.373   0.114  2.3138 -1.7160 -2.3759
   45RES    H4018608   1.814   0.498   0.097  0.6461  0.5124  0.3253
   45RES    H4118609   2.018   0.577   0.217  0.2654  0.6909 -0.3504
   45RES    H4218610   2.106   0.576   0.073 -0.4568  0.9176  0.2318
   45RES    H4318611   1.971   0.682   0.090  0.3260 -0.2818  0.5035
   45RES    C4418612   1.425   0.395   7.489  0.0905 -0.3346  0.3968
   45RES    C4518613   1.416   0.495   7.370 -0.2315  0.3804 -0.9749
   45RES    C4618614   1.470   0.425   7.243  0.6776 -0.4437  0.8352
   45RES    C4718615   1.384   0.296   7.203  0.0876 -0.0220  0.5444
   45RES    C4818616   1.444   0.220   7.079  0.0805  0.1741  0.5404
   45RES    C4918617   1.373   0.084   7.055 -0.0128  0.2069  0.2982
   45RES    C5018618   1.450   7.725   6.959  0.1256 -0.3634  0.6995
   45RES    H5118619   1.386   0.446   7.577 -1.1710  2.0629 -1.4795
   45RES    H5218620   1.352   0.319   7.463  1.1204 -1.0886 -0.3349
   45RES    H5318621   1.484   0.579   7.386  0.4849 -0.6090  1.4424
   45RES    H5418622   1.574   0.394   7.253  0.2156 -2.3873 -0.1102
   45RES    H5518623   1.480   0.492   7.158 -1.0973 -2.2663 -0.8758
   45RES    H5618624   1.376   0.222   7.282 -0.5030  0.0954  0.5992
   45RES    H5718625   1.282   0.320   7.173  0.4395  0.4220 -0.3224
   45RES    H5818626   1.551   0.206   7.094  0.1821 -0.9591 -1.0494
   45RES    H5918627   1.434   0.282   6.990  0.0972  2.3329  2.0132
   45RES    H6018628   1.272   0.104   7.020  1.1348  1.8970 -2.2855
   45RES    H6118629   1.364   0.024   7.145  0.6127 -1.4751 -0.7461
   45RES    H6218630   1.555   0.021   6.977  0.2051  1.5614 -1.8908
   45RES    H6318631   1.421   0.025   6.857  2.4055  0.0854  0.1508
   45RES    H6418632   1.437   7.619   6.979  0.6171 -0.7352 -0.8733
   45RES    C6518633   1.283   0.567   7.355  0.0456 -0.1576  0.4797
   45RES    C6618634   1.286   0.706   7.284 -0.2055 -0.1925 -0.4836
   45RES    C6718635   1.379   0.813   7.353 -0.3356 -0.2854  0.4302
   45RES    C6818636   1.487   0.876   7.254  0.4226  0.8117 -0.2340
   45RES    C6918637   1.564   0.999   7.312 -0.4431 -0.2449 -0.3832
   45RES    C7018638   1.693   0.966   7.391 -0.1175 -0.1325 -0.1036
   45RES    C7118639   1.684   0.865   7.514 -0.3838  0.1832  0.0325
   45RES    H7218640   1.222   0.495   7.301  1.6837 -1.5611  0.4492
   45RES    H7318641   1.239   0.589   7.452 -0.1258 -0.9215  0.5818
   45RES    H7418642   1.334   0.690   7.187 -2.2515 -0.7377 -1.4352
   45RES    H7518643   1.318   0.894   7.392  0.8874  1.3873 -1.0958
   45RES    H7618644   1.441   0.777   7.435  0.7839 -0.2193 -0.3761
   45RES    H7718645   1.565   0.804   7.227  1.0654  1.4524 -0.0880
   45RES    H7818646   1.455   0.910   7.156 -1.6311  2.7066  1.0484
   45RES    H7918647   1.605   1.049   7.225  0.1965 -0.2497 -0.0821
   45RES    H8018648   1.493   1.058   7.370  0.0506  0.6860 -0.7287
   45RES    H8118649   1.726   1.065   7.422 -1.4384  0.7611 -1.4987
   45RES    H8218650   1.768   0.920   7.327 -0.0570  1.0372 -0.8891
   45RES    H8318651   1.638   0.776   7.470  0.3886  0.8448 -2.1869
   45RES    H8418652   1.783   0.852   7.556 -0.8868 -0.7645  0.9474
   45RES    H8518653   1.622   0.893   7.599 -0.8471 -0.3162 -0.1380
   45RES    C8618654   1.146   0.767   7.263  0.0538  0.1448  0.7891
   45RES    C8718655   1.140   0.867   7.148  0.3101  0.3704 -0.0146
   45RES    C8818656   1.163   0.814   7.001 -0.2037 -0.6547  0.3530
   45RES    C8918657   1.072   0.699   6.953 -0.0112  0.0801 -0.0930
   45RES    C9018658   1.108   0.638   6.818  0.0999  0.1624  0.4190
   45RES    C9118659   1.035   0.510   6.762  0.2706  0.1341  0.3914
   45RES    C9218660   1.095   0.477   6.629  0.2795 -0.1541 -0.5597
   45RES    H9318661   1.086   0.683   7.227  1.2096 -0.4236  0.1501
   45RES    H9418662   1.100   0.793   7.358  0.8042 -1.1345  1.5273
   45RES    H9518663   1.214   0.946   7.159  0.2896 -0.0014  3.0937
   45RES    H9618664   1.156   0.903   6.937 -1.3396  2.0866  4.0889
   45RES    H9718665   1.263   0.772   7.002 -0.1839 -0.6212  2.1222
   45RES    H9818666   1.068   0.615   7.022 -2.8962  1.8345  1.9854
   45RES    H9918667   0.973   0.741   6.936 -0.6549 -0.6054  1.8120
   45RES   H10018668   1.216   0.622   6.815  0.3401  1.9503 -1.0972
   45RES   H10118669   1.106   0.718   6.744  2.8518 -0.1851 -0.0655
   45RES   H10218670   1.065   0.431   6.832  0.5877  1.0590  1.3126
   45RES   H10318671   0.931   0.542   6.756  0.8042  1.7216 -0.5941
   45RES   H10418672   1.198   0.444   6.639 -0.4779 -1.8818  1.8466
   45RES   H10518673   1.094   0.572   6.574  3.1175 -0.4151 -1.1314
   45RES   H10618674   1.039   0.403   6.573 -0.5150  0.3307 -0.4113
   45RES   C10718675   1.001   0.935   7.157 -0.4694 -0.1268 -0.1062
   45RES   C10818676   0.995   1.039   7.277  0.4328 -0.3842 -0.5427
   45RES   C10918677   1.048   1.182   7.230 -0.4136  0.4532 -0.1456
   45RES   C11018678   1.136   1.252   7.342 -0.3665  0.1335  0.0301
   45RES   C11118679   1.071   1.298   7.467  0.2985 -0.5598 -0.1445
   45RES   C11218680   0.967   1.415   7.445  0.8449 -0.8725 -0.0051
   45RES   C11318681   0.910   1.476   7.569 -0.6590  0.8126  0.4461
   45RES   H11418682   0.913   0.872   7.149 -2.3102  2.3448  0.0313
   45RES   H11518683   0.999   0.995   7.065 -1.8674  1.1584  0.7455
   45RES   H11618684   1.068   1.006   7.351  0.7153  2.7349  0.6422
   45RES   H11718685   0.960   1.244   7.218 -1.2931 -1.1173 -2.1620
   45RES   H11818686   1.102   1.171   7.136 -0.5742  0.8208 -0.2763
   45RES   H11918687   1.219   1.191   7.380 -0.3889 -0.3085 -0.6029
   45RES   H12018688   1.184   1.341   7.301 -0.2700  1.5248  3.0310
   45RES   H12118689   1.154   1.339   7.524  0.8336 -0.1150 -1.2293
   45RES   H12218690   1.024   1.211   7.514  0.1057 -0.7109 -0.6180
   45RES   H12318691   1.017   1.501   7.400  2.2945 -0.3955  2.4464
   45RES   H12418692   0.889   1.381   7.377 -0.2101  2.8151 -0.7192
   45RES   H12518693   0.881   1.389   7.629  0.3820 -1.0369 -1.6548
   45RES   H12618694   0.992   1.523   7.623 -0.4726 -0.2714  1.1365
   45RES   H12718695   0.825   1.542   7.560 -1.7802 -0.4623  1.4175
   45RES   C12818696   0.845   1.035   7.332 -0.4254 -0.6312 -0.1166
   45RES   C12918697   0.802   0.914   7.419 -1.1089  0.6373 -0.8961
   45RES   C13018698   0.645   0.905   7.441  0.0618 -0.6558 -0.0022
   45RES   C13118699   0.571   0.824   7.332 -0.3181  0.4218  0.1288
   45RES   C13218700   0.424   0.811   7.361  0.1748 -0.4112  0.0986
   45RES   C13318701   0.349   0.931   7.300 -0.1939 -0.6045  0.0603
   45RES   C13418702   0.193   0.935   7.325  0.0277 -0.1459 -0.5420
   45RES   H13518703   0.828   1.120   7.398 -1.6908 -1.2264  0.3438
   45RES   H13618704   0.768   1.046   7.256 -0.9844  1.0985  0.6668
   45RES   H13718705   0.829   0.820   7.371  2.3899  1.6401 -1.0482
   45RES   H13818706   0.612   1.006   7.462  0.2328 -0.8678  1.3115
   45RES   H13918707   0.621   0.857   7.535  2.9466  1.7071  2.0260
   45RES   H14018708   0.613   0.724   7.342 -0.8684  0.0057 -1.5089
   45RES   H14118709   0.597   0.854   7.230  0.2216 -1.5677 -0.3587
   45RES   H14218710   0.387   0.816   7.464 -1.3465  1.0598 -0.5098
   45RES   H14318711   0.376   0.722   7.320  1.1967 -0.1720 -1.6722
   45RES   H14418712   0.357   0.927   7.192 -2.0428 -1.8541 -0.0432
   45RES   H14518713   0.396   1.022   7.338  1.2044 -0.7856 -1.1932
   45RES   H14618714   0.169   0.919   7.430 -0.6492 -2.8319 -1.0508
   45RES   H14718715   0.138   0.846   7.293 -0.9009 -0.8884  2.8211
   45RES   H14818716   0.152   1.028   7.287  0.2410  0.1287 -0.1064
   45RES   C14918717   0.877   0.917   7.554 -0.5408  0.9246 -0.1268
   45RES   C15018718   0.858   0.802   7.651  0.7128 -0.4208  0.1331
   45RES   C15118719   0.947   0.815   0.049 -0.8442 -0.6385  0.0257
   45RES   C15218720   0.943   0.948   0.130  0.2292  0.3139  0.1704
   45RES   C15318721   1.030   0.925   0.249  0.3240 -0.1153  0.3413
   45RES   C15418722   1.044   1.046   0.327  0.5024  0.2722 -0.5314
   45RES   C15518723   0.911   1.088   0.389  0.6879  0.0626 -0.6067
   45RES   H15618724   0.980   0.923   7.520 -0.9980  0.6116 -1.5640
   45RES   H15718725   0.845   1.011   7.599 -0.8172  1.4426 -1.3964
   45RES   H15818726   0.755   0.803   7.688  0.4124  1.2518 -0.7379
   45RES   H15918727   0.911   0.748   0.128 -3.3415  1.7469  1.0342
   45RES   H16018728   1.052   0.788   0.039 -0.3853  1.0290  0.2658
   45RES   H16118729   0.840   0.961   0.165  0.0744 -0.3689 -0.0366
   45RES   H16218730   0.970   1.034   0.068 -2.7555  0.0372 -1.6505
   45RES   H16318731   1.130   0.889   0.226 -1.3897 -4.1677 -1.2242
   45RES   H16418732   0.984   0.849   0.312  0.4718 -0.3988  0.1060
   45RES   H16518733   1.085   1.131   0.273 -1.0640  1.5238  0.2025
   45RES   H16618734   1.110   1.028   0.412 -2.4007 -1.7660  1.4134
   45RES   H16718735   0.930   1.170   0.457 -0.9049  1.4270 -1.7672
   45RES   H16818736   0.853   1.015   0.446  0.6802 -0.3435 -1.1275
   45RES   H16918737   0.845   1.124   0.309  1.1997 -1.3784 -1.7052
   45RES   C17018738   0.879   0.669   7.568 -0.0405 -0.4349 -0.6839
   45RES   C17118739   0.862   0.539   7.648 -0.0021 -0.4726 -0.3861
   45RES   C17218740   0.733   0.514   0.005 -0.5351  0.0973  0.0091
   45RES   C17318741   0.608   0.536   7.647  0.0206  0.0530  0.1926
   45RES   C17418742   0.486   0.480   7.711  0.3911  0.4842  0.8134
   45RES   C17518743   0.365   0.474   7.617 -0.1169  0.1582  0.2538
   45RES   C17618744   0.373   0.362   7.519  0.0692  0.1864  0.3193
   45RES   H17718745   0.970   0.676   7.509 -0.7223  0.1744 -1.6728
   45RES   H17818746   0.801   0.642   7.497  0.2881 -1.4422 -0.6784
   45RES   H17918747   0.935   0.548   0.002 -0.0490 -2.4480 -0.1010
   45RES   H18018748   0.721   0.581   0.090  0.9884 -0.8908  1.0179
   45RES   H18118749   0.715   0.410   0.032  0.9722 -0.7316 -2.0391
   45RES   H18218750   0.623   0.496   7.546 -0.9162  1.9218 -0.6977
   45RES   H18318751   0.594   0.642   7.628  0.6758  0.1256  0.0800
   45RES   H18418752   0.460   0.544   0.069 -1.8250  1.7267 -0.7678
   45RES   H18518753   0.509   0.378   0.017  0.8370  0.2366 -0.2486
   45RES   H18618754   0.352   0.560   7.552 -2.2745  0.7080  1.3789
   45RES   H18718755   0.272   0.470   7.674  0.4416  0.0282  1.1749
   45RES   H18818756   0.323   0.276   7.565 -1.1947  1.3141  1.0775
   45RES   H18918757   0.477   0.340   7.497 -0.1807 -1.0479  0.2875
   45RES   H19018758   0.321   0.381   7.426  0.7753  0.0295 -0.1131
   45RES   C19118759   0.903   0.419   7.567 -0.4702 -0.3360 -0.4743
   45RES   C19218760   0.957   0.301   7.663 -0.2230 -0.5029  0.5106
   45RES   C19318761   0.973   0.176   7.582  0.3502  0.2893 -0.1117
   45RES   C19418762   1.059   0.182   7.455 -0.2791  0.2659  0.7362
   45RES   C19518763   1.046   0.066   7.355  0.0935 -0.9262 -0.0012
   45RES   C19618764   1.095   7.665   7.409 -0.3909 -0.0007  0.0460
   45RES   C19718765   1.098   7.549   7.309  0.2520 -0.3873 -0.2995
   45RES   H19818766   0.991   0.442   7.508 -0.0842 -3.4701 -1.2162
   45RES   H19918767   0.826   0.379   7.500 -0.7331 -2.3638  0.9871
   45RES   H20018768   0.887   0.263   0.010  0.6449 -0.6239  1.2898
   45RES   H20118769   0.874   0.142   7.553  1.1790 -1.1070 -1.3915
   45RES   H20218770   1.013   0.093   7.640 -4.6877 -3.3811 -1.5968
   45RES   H20318771   1.164   0.187   7.482  0.0074  0.6269 -0.4013
   45RES   H20418772   1.048   0.275   7.400  0.2024 -0.1383 -0.0570
   45RES   H20518773   0.940   0.058   7.331 -0.2219  1.4522  0.4134
   45RES   H20618774   1.097   0.090   7.261  1.8501  0.3400  1.2315
   45RES   H20718775   1.035   7.637   7.496  1.0312  0.7547  1.2815
   45RES   H20818776   1.192   7.676   7.456  0.1122 -1.7499 -0.5355
   45RES   H20918777   0.999   7.538   7.265 -1.0319  1.6526  1.9163
   45RES   H21018778   1.129   7.454   7.353  0.0743 -0.2123  0.2061
   45RES   H21118779   1.154   7.576   7.220 -1.5560  0.3400 -1.2213
   45RES   C21218780   1.092   0.343   0.009  0.3505 -0.5206 -0.6370
   45RES   C21318781   1.089   0.333   0.161  0.0560  0.4083 -0.2833
   45RES   C21418782   1.080   0.184   0.201 -0.3021 -0.2031 -0.0728
   45RES   C21518783   1.006   0.176   0.335 -0.2295  0.3132 -0.6058
   45RES   C21618784   1.012   0.035   0.398  0.5796 -0.4293 -0.4966
   45RES   C21718785   1.142   0.002   0.464 -0.5199  0.0764 -0.6586
   45RES   C21818786   1.172   7.579   0.471  0.0135  0.1007 -0.0406
   45RES   H21918787   1.134   0.441   7.711 -0.4661 -1.0136 -4.2483
   45RES   H22018788   1.171   0.281   7.694  0.2316 -0.0495 -1.5940
   45RES   H22118789   1.006   0.394   0.199 -0.0131  0.1552 -0.0292
   45RES   H22218790   1.016   0.133   0.129  0.1515  0.3751 -0.9078
   45RES   H22318791   1.179   0.139   0.199  0.2855  1.0756 -2.2153
   45RES   H22418792   0.905   0.212   0.318 -0.9213 -1.2879  0.0187
   45RES   H22518793   1.038   0.254   0.404 -0.5924 -0.8953  0.9496
   45RES   H22618794   0.949   0.033   0.486 -0.1047 -0.1116 -0.9798
   45RES   H22718795   0.974   7.688   0.327 -0.3941  1.3125 -1.8290
   45RES   H22818796   1.225   0.059   0.423  0.4464 -0.6392  0.2835
   45RES   H22918797   1.136   0.043   0.565 -0.8957 -0.4276 -0.4742
   45RES   H23018798   1.107   7.531   0.544 -0.7155 -0.0432 -0.7843
   45RES   H23118799   1.266   7.565   0.526 -0.6600  0.9885  1.3773
   45RES   H23218800   1.171   7.531   0.373  0.1856  1.4016 -0.6963
   45RES   C23318801   1.217   0.389   0.223 -0.2084 -0.5339 -0.6066
   45RES   C23418802   1.226   0.539   0.249 -0.1398 -0.3222  0.6706
   45RES   C23518803   1.128   0.604   0.355  0.5492  0.1661 -0.0255
   45RES   C23618804   1.125   0.524   0.491  0.0690 -0.0287 -0.3077
   45RES   C23718805   1.132   0.607   0.618 -0.2873  0.3462  0.0806
   45RES   C23818806   1.023   0.714   0.632  0.2352  0.0464 -0.2287
   45RES   C23918807   0.875   0.656   0.634  0.1312 -0.5002 -1.0018
   45RES   H24018808   1.303   0.359   0.163  2.4038  0.1696  2.6405
   45RES   H24118809   1.233   0.336   0.317 -0.6190 -0.8013 -0.6850
   45RES   H24218810   1.204   0.584   0.152 -1.0958 -0.1399  0.9708
   45RES   H24318811   1.022   0.603   0.329  0.9635  1.4511 -1.8427
   45RES   H24418812   1.153   0.709   0.373 -1.2159  0.7168 -0.7122
   45RES   H24518813   1.206   0.450   0.497 -1.3602 -1.5182  1.3293
   45RES   H24618814   1.032   0.469   0.498  0.4082 -0.4885  0.7314
   45RES   H24718815   1.233   0.648   0.628  0.1637 -0.7166 -0.0952
   45RES   H24818816   1.132   0.536   0.700 -0.3951 -0.6369 -0.7608
   45RES   H24918817   1.043   0.768   0.724 -0.7343 -0.3243  0.2090
   45RES   H25018818   1.047   0.788   0.556 -1.6122  1.1737  0.2617
   45RES   H25118819   0.850   0.604   0.542  0.0865 -1.8559 -0.2288
   45RES   H25218820   0.853   0.597   0.723 -0.0239  0.4508 -0.3949
   45RES   H25318821   0.803   0.738   0.629  0.6748 -0.0951 -2.2493
   45RES   C25418822   1.372   0.567   0.284  0.7861 -0.0483  0.1708
   45RES   C25518823   1.431   0.709   0.259  0.0470 -0.7267 -0.4522
   45RES   C25618824   1.403   0.763   0.113 -0.8040 -0.4150 -0.6709
   45RES   C25718825   1.433   0.915   0.091 -0.2212 -0.3119 -0.2816
   45RES   C25818826   1.365   0.974   7.694  0.0441 -0.1196 -0.2986
   45RES   C25918827   1.408   1.119   7.669 -0.5313 -0.0974  0.1589
   45RES   C26018828   1.348   1.214   0.049 -0.0281  0.6233 -0.4058
   45RES   H26118829   1.428   0.497   0.222 -1.8126 -1.2605 -0.8651
   45RES   H26218830   1.383   0.546   0.391 -3.1274 -1.5484  0.3363
   45RES   H26318831   1.385   0.783   0.325  0.4224 -1.5473  0.7235
   45RES   H26418832   1.299   0.742   0.086 -1.1476  0.2411  0.1166
   45RES   H26518833   1.460   0.701   0.044  1.2147  0.3903  0.2210
   45RES   H26618834   1.403   0.967   0.182  0.1839  1.0455 -0.9219
   45RES   H26718835   1.540   0.933   0.085 -0.6530  2.0577 -1.0634
   45RES   H26818836   1.256   0.974   7.700  0.1054  0.1518  0.8739
   45RES   H26918837   1.401   0.910   7.613  0.9468  0.0019  0.0041
   45RES   H27018838   1.516   1.130   7.658 -0.4626  1.5810  2.1584
   45RES   H27118839   1.359   1.154   7.578  0.6172  2.6787  0.5611
   45RES   H27218840   1.316   1.312   0.012 -0.6856  0.7771  0.5650
   45RES   H27318841   1.255   1.174   0.090  0.3803  0.1107  0.0166
   45RES   H27418842   1.417   1.235   0.131 -1.4239  0.1310  0.9102
   45RES   C27518843   1.577   0.702   0.300 -0.4809  0.6015  0.3071
   45RES   C27618844   1.640   0.836   0.361 -0.7001 -0.0402  0.0838
   45RES   C27718845   1.783   0.856   0.309  0.4493  0.1237 -0.2615
   45RES   C27818846   1.794   0.915   0.171 -0.5870  0.4536 -0.5007
   45RES   C27918847   1.759   1.070   0.166 -0.2665 -0.3281 -0.5522
   45RES   C28018848   1.825   1.136   0.037 -0.5720  0.4652 -0.2386
   45RES   C28118849   1.801   1.286   0.036 -0.2983  0.2733  0.4875
   45RES   H28218850   1.634   0.676   0.211 -2.3219 -1.1494 -0.3946
   45RES   H28318851   1.595   0.625   0.375 -1.0388 -1.6710 -1.8597
   45RES   H28418852   1.575   0.917   0.328  0.5118  0.1079 -1.9755
   45RES   H28518853   1.835   0.928   0.372 -0.8327 -0.2122  1.2370
   45RES   H28618854   1.831   0.758   0.312  0.6987  0.2699  0.7956
   45RES   H28718855   1.740   0.854   0.098  1.4184  0.6425 -2.2047
   45RES   H28818856   1.896   0.890   0.142 -1.0779 -0.5502 -1.4031
   45RES   H28918857   1.814   1.120   0.246 -0.9395  0.9617 -0.8761
   45RES   H29018858   1.653   1.096   0.164  0.0716  1.0670 -2.4241
   45RES   H29118859   1.933   1.120   0.034 -0.4447  0.9920  1.1304
   45RES   H29218860   1.780   1.101   7.671 -1.9952  0.4461  0.4509
   45RES   H29318861   1.838   1.343   7.677 -1.7061  1.9919  0.9820
   45RES   H29418862   1.828   1.338   0.128 -0.5201  1.7117 -0.2355
   45RES   H29518863   1.692   1.298   0.034 -0.3233  0.5089  2.6431
   45RES   C29618864   1.643   0.833   0.514  0.0063 -0.5211  0.1822
   45RES   C29718865   1.646   0.973   0.580 -0.6783 -0.3901 -0.3471
   45RES   C29818866   1.710   0.951   0.720  0.7154 -0.3425  1.0502
   45RES   C29918867   1.660   0.836   0.803 -0.2516  0.1217  0.0321
   45RES   C30018868   1.704   0.830   0.945 -0.1543 -0.1379 -0.9106
   45RES   C30118869   1.632   0.715   1.021 -0.1032  0.3849 -0.4200
   45RES   C30218870   1.648   0.735   1.171 -1.0101 -0.3312  0.2788
   45RES   H30318871   1.561   0.773   0.552 -0.6989 -1.1166 -2.1921
   45RES   H30418872   1.733   0.779   0.544 -0.6646 -1.6603  0.1912
   45RES   H30518873   1.710   1.040   0.521  0.9092 -0.9451  0.6971
   45RES   H30618874   1.814   0.926   0.702  0.2282 -1.9682  0.3872
   45RES   H30718875   1.701   1.041   0.781 -0.6177  0.9498 -0.9614
   45RES   H30818876   1.698   0.744   0.760 -1.5473 -0.3456 -0.1139
   45RES   H30918877   1.552   0.825   0.794 -0.0568 -2.3997  0.4664
   45RES   H31018878   1.666   0.923   0.987  1.7260 -0.0334  0.6152
   45RES   H31118879   1.813   0.822   0.946 -0.1744 -0.4137  1.2297
   45RES   H31218880   1.528   0.703   0.993  0.6377 -0.7466 -2.8004
   45RES   H31318881   1.686   0.622   1.005  0.6339  0.5569  0.9888
   45RES   H31418882   1.751   0.762   1.197 -0.7380 -0.5283 -0.5625
   45RES   H31518883   1.579   0.811   1.207 -0.5618  0.0372  0.3721
   45RES   H31618884   1.628   0.642   1.224  3.3424 -0.3265  2.2151
   45RES   C31718885   1.506   1.037   0.584  0.6058  0.5602 -0.5951
   45RES   C31818886   1.507   1.190   0.603 -0.0302 -0.1698 -0.2167
   45RES   C31918887   1.532   1.254   0.462 -0.6018 -0.4662 -0.5124
   45RES   C32018888   1.606   1.391   0.466  0.2903  0.8594 -0.5431
   45RES   C32118889   1.626   1.467   0.338  0.1732  0.5393 -0.3894
   45RES   C32218890   1.491   1.528   0.280 -0.0256 -0.0985  0.0414
   45RES   C32318891   1.483   1.573   0.137 -0.4506  0.1438  0.1469
   45RES   H32418892   1.461   0.987   0.670  1.9822 -0.7777 -0.6364
   45RES   H32518893   1.442   1.012   0.499 -2.2832  1.7229  1.1386
   45RES   H32618894   1.596   1.203   0.664 -0.3095 -0.5174  0.2698
   45RES   H32718895   1.439   1.257   0.404 -0.5672  1.2355 -0.5161
   45RES   H32818896   1.599   1.191   0.404  0.0669  0.8233 -1.1591
   45RES   H32918897   1.705   1.360   0.499 -0.7125 -1.5694  0.2522
   45RES   H33018898   1.564   1.458   0.541  1.3476 -1.1496  1.9170
   45RES   H33118899   1.684   1.409   0.266  0.9299  1.8114 -0.8164
   45RES   H33218900   1.695   1.550   0.354  0.8968 -0.3520  1.2141
   45RES   H33318901   1.470   1.619   0.337 -1.0666 -1.0886  1.2610
   45RES   H33418902   1.420   1.451   0.308 -0.5401  0.4006  0.1299
   45RES   H33518903   1.550   1.659   0.134  0.4186 -0.3032  3.7566
   45RES   H33618904   1.383   1.612   0.118 -0.3981  0.9919  1.5449
   45RES   H33718905   1.508   1.484   0.079 -0.1593 -0.7160  1.5749
   45RES   C33818906   1.383   1.233   0.687 -0.5291 -0.7335 -0.4488
   45RES   C33918907   1.244   1.208   0.625 -0.0398 -0.2179  0.6797
   45RES   C34018908   1.156   1.337   0.608 -0.4104  0.4562  0.7231
   45RES   C34118909   1.204   1.433   0.497 -0.3001  0.1464 -0.2508
   45RES   C34218910   1.113   1.555   0.497  0.3713  0.3182  0.1201
   45RES   C34318911   1.175   1.661   0.399 -0.3542 -0.0519  0.1103
   45RES   C34418912   1.098   1.794   0.390  0.1645 -0.2628  0.5966
   45RES   H34518913   1.388   1.339   0.713 -0.9152 -0.5681 -1.0254
   45RES   H34618914   1.395   1.175   0.779 -0.4979 -0.9640 -0.5985
   45RES   H34718915   1.255   1.177   0.521 -1.7070  1.0791  0.1053
   45RES   H34818916   1.056   1.307   0.579 -0.5946  0.5856  1.2230
   45RES   H34918917   1.138   1.396   0.698 -2.1601  0.9189  0.0789
   45RES   H35018918   1.201   1.373   0.405  0.8607 -0.1088 -0.1240
   45RES   H35118919   1.308   1.461   0.512  0.2927 -0.6617 -2.5652
   45RES   H35218920   1.008   1.544   0.469  0.5925  0.7745 -0.9203
   45RES   H35318921   1.118   1.592   0.599  0.8194  2.3200 -0.6023
   45RES   H35418922   1.275   1.680   0.436 -0.0799  0.6772 -0.9939
   45RES   H35518923   1.200   1.617   0.303  1.2293 -2.1005  1.4398
   45RES   H35618924   0.993   1.786   0.362  0.7653 -1.5570 -1.4263
   45RES   H35718925   1.150   1.871   0.332 -0.7461 -0.4131 -0.4488
   45RES   H35818926   1.091   1.840   0.488 -2.7688 -1.4575  0.9821
   45RES   C35918927   1.177   1.085   0.695  0.2089 -0.0134 -0.3789
   45RES   C36018928   1.127   1.112   0.842  0.1841 -0.3629 -0.2302
   45RES   C36118929   0.986   1.177   0.852 -0.2437 -0.0787 -0.2420
   45RES   C36218930   0.874   1.092   0.789 -0.3226 -0.1214 -0.4374
   45RES   C36318931   0.735   1.144   0.832 -0.0805  0.4047 -0.0954
   45RES   C36418932   0.617   1.052   0.786  0.3091  0.6626 -0.0110
   45RES   C36518933   0.596   1.043   0.636 -0.4372 -0.7338  0.2453
   45RES   H36618934   1.251   1.006   0.701  0.9421  0.7507  1.0060
   45RES   H36718935   1.095   1.049   0.633  1.6189 -0.7346 -1.8433
   45RES   H36818936   1.194   1.188   0.882  0.2338 -0.9254  0.7856
   45RES   H36918937   0.953   1.198   0.954  2.0726  0.6702  0.3829
   45RES   H37018938   0.980   1.275   0.803  0.3628 -1.6683 -3.6826
   45RES   H37118939   0.891   1.108   0.682 -2.4133  1.2142 -0.5896
   45RES   H37218940   0.881   0.986   0.816  2.0857 -0.0774 -0.7320
   45RES   H37318941   0.716   1.156   0.939 -1.0831 -0.1184 -0.2137
   45RES   H37418942   0.729   1.246   0.795 -0.3734 -0.4254 -2.3914
   45RES   H37518943   0.635   0.950   0.819  1.7698  0.2994 -1.8577
   45RES   H37618944   0.524   1.090   0.827 -1.1484  0.9733 -3.4020
   45RES   H37718945   0.504   0.997   0.602  0.5742 -2.4974 -0.1336
   45RES   H37818946   0.600   1.139   0.584  1.0904 -0.2274  1.2565
   45RES   H37918947   0.684   0.991   0.598 -1.2498 -0.0956 -2.6645
   45RES   C38018948   1.149   0.993   0.935 -0.1999  0.1398  0.1485
   45RES   C38118949   1.144   1.029   1.082 -0.1916  0.2200 -0.1749
   45RES   C38218950   1.073   0.918   1.163  0.5543  0.3858  0.3577
   45RES   C38318951   0.919   0.935   1.175 -0.1267  0.2813  0.5255
   45RES   C38418952   0.840   0.801   1.211  0.5307 -0.3356 -0.0110
   45RES   C38518953   0.691   0.815   1.224 -0.7655  0.0722 -0.3884
   45RES   C38618954   0.620   0.854   1.092  0.2549 -0.0591  0.0416
   45RES   H38718955   1.069   0.923   0.911  0.0226 -0.5411  1.3448
   45RES   H38818956   1.237   0.933   0.913 -0.6967 -0.7642  0.5795
   45RES   H38918957   1.078   1.115   1.090  0.8723  1.1030 -0.6830
   45RES   H39018958   1.119   0.913   1.262 -0.7629 -1.1881  0.9127
   45RES   H39118959   1.101   0.827   1.110 -2.4318  1.2802 -2.9775
   45RES   H39218960   0.897   1.019   1.241 -0.8567  0.5632 -0.0805
   45RES   H39318961   0.880   0.973   1.081 -1.7588 -0.5751  0.8331
   45RES   H39418962   0.863   0.719   1.143 -0.1946 -0.0313 -0.6209
   45RES   H39518963   0.869   0.770   1.312 -0.0348 -0.8732 -0.0126
   45RES   H39618964   0.662   0.881   1.306 -1.4597  1.0772 -1.4412
   45RES   H39718965   0.639   0.725   1.256 -1.9707  0.7060 -0.5636
   45RES   H39818966   0.514   0.830   1.082  0.8999 -2.4249 -1.4186
   45RES   H39918967   0.665   0.816   1.001 -0.0855  1.6467 -0.8569
   45RES   H40018968   0.644   0.960   1.092  0.7232 -0.1545 -2.5259
   45RES   C40118969   1.285   1.062   1.155  0.1627 -0.1624 -0.2932
   45RES   C40218970   1.385   1.143   1.068  0.1283  0.5647  0.7388
   45RES   C40318971   1.512   1.176   1.143 -0.5268 -0.1083 -0.9970
   45RES   C40418972   1.631   1.212   1.054 -0.5708 -0.6102  1.0972
   45RES   C40518973   1.606   1.351   0.986 -0.3587 -0.1631 -0.6466
   45RES   C40618974   1.714   1.375   0.882 -0.7783  0.1558  0.8287
   45RES   C40718975   1.709   1.514   0.819  0.1444  0.3312 -0.1855
   45RES   H40818976   1.327   0.971   1.196 -0.9592 -1.7448 -2.5848
   45RES   H40918977   1.260   1.126   1.240 -1.5580 -1.0810 -0.0956
   45RES   H41018978   1.339   1.238   1.042 -0.4205 -0.0236 -0.4672
   45RES   H41118979   1.554   1.089   1.193 -1.1251 -1.8425 -3.4297
   45RES   H41218980   1.492   1.248   1.223  1.0692 -0.0310 -0.6573
   45RES   H41318981   1.678   1.138   0.990  1.1021  1.3519 -0.0117
   45RES   H41418982   1.709   1.240   1.125 -0.5345  0.7758  0.5202
   45RES   H41518983   1.514   1.346   0.928  0.3063  0.4547 -1.7873
   45RES   H41618984   1.601   1.425   1.065  1.8035 -0.4442 -0.2102
   45RES   H41718985   1.816   1.374   0.920 -0.4169  2.2599  0.0160
   45RES   H41818986   1.716   1.300   0.802 -1.2373  0.1096  0.8605
   45RES   H41918987   1.790   1.515   0.746  1.9327 -0.5754  1.7535
   45RES   H42018988   1.715   1.595   0.892 -2.4736 -1.9999  2.7336
   45RES   H42118989   1.622   1.528   0.755  0.3379  0.4850 -0.4145
   45RES   H42218990   1.410   1.083   0.980  1.2804  0.9906  0.7670
   46RES     C118991   7.257   3.519   0.922 -0.5046 -0.2346 -0.0813
   46RES     C218992   7.329   3.392   0.886 -0.0442  0.2038  0.9068
   46RES     C318993   7.473   3.421   0.837  0.8936  0.0146  0.1758
   46RES     C418994   7.573   3.430   0.959 -0.1285 -0.8334  0.0982
   46RES     C518995   7.719   3.462   0.908  0.0436  0.1425  0.1636
   46RES     C618996   0.100   3.452   1.021  0.2724 -0.0270 -0.0666
   46RES     C718997   0.225   3.528   0.972  0.5320  1.1366 -0.5498
   46RES     H818998   7.317   3.593   0.976 -1.6048  0.0439  0.7883
   46RES     H918999   7.178   3.499   0.994  1.0464 -1.5048  1.3328
   46RES    H1019000   7.354   3.326   0.969 -0.1758  0.0178  0.7975
   46RES    H1119001   7.506   3.341   0.771  1.6115 -1.7259  2.5475
   46RES    H1219002   7.486   3.518   0.790  0.3186 -0.1778 -0.3800
   46RES    H1319003   7.538   3.492   1.042  2.9782 -0.5396  1.2700
   46RES    H1419004   7.577   3.336   1.014 -2.4519  0.5719  2.8216
   46RES    H1519005   7.707   3.565   0.876 -1.2956  0.9855  3.1874
   46RES    H1619006   0.022   3.391   0.831  0.4187 -1.2433  1.5575
   46RES    H1719007   0.118   3.346   1.041 -1.0642  0.0251  1.6143
   46RES    H1819008   0.053   3.500   1.107  0.1171 -2.2991  1.1692
   46RES    H1919009   0.301   3.524   1.050 -1.8419 -1.5286  1.7506
   46RES    H2019010   0.207   3.632   0.945 -0.2799  1.7001  2.0485
   46RES    H2119011   0.251   3.474   0.881  0.6576 -1.9416  1.2656
   46RES    H2219012   7.227   3.569   0.831  0.2317 -1.8549 -1.2365
   46RES    C2319013   7.251   3.315   0.781  0.2744  0.2589  0.0872
   46RES    C2419014   7.121   3.249   0.829 -0.3837 -1.0754 -0.1366
   46RES    C2519015   7.158   3.109   0.888  0.1506  0.3467 -0.5586
   46RES    C2619016   7.048   3.056   0.991 -0.2174  0.2841  0.8960
   46RES    C2719017   7.068   2.910   1.032  0.2205  0.0862 -0.4245
   46RES    C2819018   6.968   2.851   1.127  0.1242  0.5395 -0.9572
   46RES    C2919019   6.987   2.701   1.146  0.9080  0.1376  0.6079
   46RES    H3019020   7.222   3.382   0.699  0.0280  0.6363  0.4828
   46RES    H3119021   7.316   3.238   0.739  0.3431 -0.1018  0.8590
   46RES    H3219022   7.069   3.312   0.902 -0.9015 -0.4776 -1.0148
   46RES    H3319023   7.257   3.114   0.932  0.0742 -0.0313 -0.3427
   46RES    H3419024   7.178   3.029   0.817  1.4160 -0.5693  0.8149
   46RES    H3519025   6.948   3.077   0.954  0.4761  1.5186 -0.3368
   46RES    H3619026   7.062   3.114   1.083  1.1576  0.2905  0.6907
   46RES    H3719027   7.166   2.900   1.079 -0.2009  3.5446  1.3406
   46RES    H3819028   7.055   2.846   0.945  0.6248  0.5115 -0.7999
   46RES    H3919029   6.867   2.870   1.091 -1.1568 -0.3000  2.0941
   46RES    H4019030   6.956   2.909   1.218 -2.2314 -1.4148  0.0358
   46RES    H4119031   7.089   2.687   1.182  1.3141  0.5605 -0.3630
   46RES    H4219032   6.917   2.660   1.219 -0.1202 -0.6122 -0.7841
   46RES    H4319033   6.986   2.660   1.045  3.2917  2.6019 -0.4552
   46RES    C4419034   7.023   3.235   0.709  0.2375 -0.4153 -0.2872
   46RES    C4519035   6.940   3.362   0.659  0.9788 -0.0678 -0.0055
   46RES    C4619036   6.888   3.324   0.511  0.2591 -0.3467 -0.3481
   46RES    C4719037   6.987   3.327   0.397 -0.5426  0.5342 -0.2086
   46RES    C4819038   6.956   3.239   0.276  0.0974  0.1623 -0.1436
   46RES    C4919039   7.032   3.286   0.156  0.1355 -0.8448  0.8341
   46RES    C5019040   7.054   3.182   0.044  0.5367 -0.2415 -0.2020
   46RES    H5119041   6.942   3.165   0.726  1.6175 -2.2049 -0.9159
   46RES    H5219042   7.079   3.181   0.632  1.8986  0.2770  0.4118
   46RES    H5319043   6.993   3.456   0.650  2.0065 -0.6484 -0.0639
   46RES    H5419044   6.806   3.393   0.492  1.9418  1.4246 -1.3842
   46RES    H5519045   6.847   3.223   0.515 -0.0845 -0.2968 -2.4114
   46RES    H5619046   6.990   3.433   0.371 -0.8471  0.7182  0.4988
   46RES    H5719047   7.085   3.296   0.433 -1.6614 -4.0262 -0.7934
   46RES    H5819048   6.849   3.232   0.254  0.0207 -0.1487  0.3312
   46RES    H5919049   6.973   3.137   0.309 -0.7365  0.1450  0.2472
   46RES    H6019050   7.128   3.322   0.191  0.1601 -1.2141  1.1500
   46RES    H6119051   6.981   3.372   0.114  0.7643 -0.4413  0.8982
   46RES    H6219052   6.959   3.163   7.721  0.8185 -0.3230 -0.7196
   46RES    H6319053   7.109   3.094   0.077 -1.0474 -1.1206  0.1139
   46RES    H6419054   7.112   3.233   7.693 -1.4897 -0.3225 -1.8081
   46RES    C6519055   6.827   3.387   0.756  0.6780 -0.6135  0.2935
   46RES    C6619056   6.762   3.528   0.722 -0.0253  0.1326  0.4783
   46RES    C6719057   6.817   3.644   0.807 -0.0592 -0.2116 -0.1894
   46RES    C6819058   6.808   3.642   0.962 -0.1099 -0.0907  0.8238
   46RES    C6919059   6.678   3.706   1.014 -0.1820  0.0096  0.5171
   46RES    C7019060   6.690   3.739   1.165  0.5972 -0.2321  0.4864
   46RES    C7119061   6.557   3.801   1.207 -0.4018  0.6272 -0.2088
   46RES    H7219062   6.751   3.309   0.759 -1.2335  1.2178  0.8046
   46RES    H7319063   6.865   3.400   0.857 -0.9801  2.0128  0.6492
   46RES    H7419064   6.797   3.548   0.620  2.2550 -0.2113  1.1546
   46RES    H7519065   6.925   3.640   0.793 -0.1775  1.1027 -1.5503
   46RES    H7619066   6.779   3.731   0.753  0.8355  0.6846  0.6087
   46RES    H7719067   6.810   3.546   1.014  1.2910 -0.6161 -0.1548
   46RES    H7819068   6.889   3.702   1.003  1.1570 -0.7030 -0.7100
   46RES    H7919069   6.664   3.797   0.955  0.9710 -0.0313  0.1726
   46RES    H8019070   6.597   3.637   0.991 -1.0265  1.2812 -0.3749
   46RES    H8119071   6.769   3.814   1.178 -0.8660  1.8926 -2.3120
   46RES    H8219072   6.710   3.653   1.229 -0.1699  0.5047  1.7347
   46RES    H8319073   6.472   3.733   1.201 -0.2807  0.6590 -2.7501
   46RES    H8419074   6.567   3.841   1.308  1.4785  2.1566 -0.9802
   46RES    H8519075   6.524   3.887   1.147 -0.9752 -0.3413 -1.3034
   46RES    C8619076   6.612   3.526   0.716  0.8153  0.0413  0.1134
   46RES    C8719077   6.536   3.654   0.675  0.3316 -0.1088  0.1833
   46RES    C8819078   6.567   3.689   0.528  0.5025 -0.1244  0.0390
   46RES    C8919079   6.523   3.590   0.421  0.3668  0.0439  0.2074
   46RES    C9019080   6.581   3.621   0.284 -0.3176 -0.2392 -0.6035
   46RES    C9119081   6.536   3.514   0.179  0.0465 -0.0929  0.8573
   46RES    C9219082   6.605   3.383   0.205  0.1141  0.0246 -0.9461
   46RES    H9319083   6.576   3.442   0.657 -1.0020  0.2184  0.9127
   46RES    H9419084   6.583   3.501   0.818 -1.0257 -0.2287 -0.4602
   46RES    H9519085   6.571   3.735   0.738  2.0870  0.7207 -1.7803
   46RES    H9619086   6.526   3.789   0.515  0.5661  0.1883  2.1032
   46RES    H9719087   6.675   3.702   0.518  0.3434  0.6431 -0.7877
   46RES    H9819088   6.555   3.490   0.450  2.5819  0.6035 -0.2081
   46RES    H9919089   6.415   3.578   0.412  0.1909  1.1361  0.7051
   46RES   H10019090   6.687   3.614   0.308 -0.7367 -1.9957  0.8761
   46RES   H10119091   6.558   3.720   0.245 -1.1590  0.5553  1.8502
   46RES   H10219092   6.428   3.499   0.183  0.0008 -0.3028 -0.8298
   46RES   H10319093   6.546   3.550   0.077 -0.0399  1.2342  1.3070
   46RES   H10419094   6.713   3.393   0.213  0.3752 -1.6693 -2.1258
   46RES   H10519095   6.593   3.317   0.119  0.1035  0.0141 -0.9367
   46RES   H10619096   6.565   3.329   0.291  0.7724 -1.1679 -1.3860
   46RES   C10719097   6.385   3.645   0.701  0.1393  0.7288 -0.1363
   46RES   C10819098   6.304   3.779   0.709 -0.2529 -0.4020 -0.6295
   46RES   C10919099   6.155   3.751   0.669  0.8325 -1.0706 -0.2308
   46RES   C11019100   6.122   3.718   0.526  0.1986 -0.5819  0.7834
   46RES   C11119101   5.977   3.669   0.506 -0.3287  0.7429  0.3376
   46RES   C11219102   5.919   3.693   0.372  0.2329 -0.1537  0.0672
   46RES   C11319103   5.788   3.615   0.340 -0.0969 -0.3590  0.6790
   46RES   H11419104   6.382   3.600   0.801 -2.2314  1.4124  0.1127
   46RES   H11519105   6.333   3.573   0.638  3.0891 -0.4418 -1.3274
   46RES   H11619106   6.336   3.848   0.631 -1.3957  0.8332 -0.0138
   46RES   H11719107   6.089   3.835   0.689 -1.3628 -2.7364 -0.3359
   46RES   H11819108   6.130   3.667   0.734 -1.1171 -0.0272  0.4166
   46RES   H11919109   6.148   3.811   0.475  2.7812 -0.7547  1.7061
   46RES   H12019110   6.194   3.646   0.487  0.6134  0.1856  0.1034
   46RES   H12119111   5.909   3.709   0.580 -3.4236 -0.5602 -1.6829
   46RES   H12219112   5.975   3.562   0.525  3.0957  0.0786 -2.4485
   46RES   H12319113   5.893   3.799   0.376 -2.3487 -0.6130 -2.3773
   46RES   H12419114   5.977   3.683   0.281  1.3487  0.6602  0.6799
   46RES   H12519115   5.813   3.520   0.293 -0.1205 -0.0364  0.0118
   46RES   H12619116   5.728   3.598   0.429  1.2241  0.4148  1.7162
   46RES   H12719117   5.733   3.670   0.263  1.6222  0.1016 -0.2384
   46RES   C12819118   6.318   3.857   0.845  0.6177 -0.0413  0.5234
   46RES   C12919119   6.283   4.004   0.839 -0.5179  0.7141  0.6920
   46RES   C13019120   6.354   4.098   0.734 -0.1116 -0.1795  0.9199
   46RES   C13119121   6.504   4.075   0.723 -0.3667 -0.6058  0.8284
   46RES   C13219122   6.572   4.178   0.633  0.1350  0.0164 -0.4316
   46RES   C13319123   6.720   4.199   0.666 -0.3998  0.2260  0.0770
   46RES   C13419124   6.788   4.297   0.573  0.0298 -0.2241 -0.2779
   46RES   H13519125   6.254   3.801   0.913  3.3364 -0.7088  2.6390
   46RES   H13619126   6.419   3.846   0.884  0.7126  2.1854  0.9489
   46RES   H13719127   6.183   4.013   0.797  0.0006 -1.1057 -0.9708
   46RES   H13819128   6.331   4.200   0.764  3.4014  0.6348  0.9880
   46RES   H13919129   6.303   4.089   0.638  0.6275 -1.3513  0.6225
   46RES   H14019130   6.537   3.978   0.684  1.0851  0.9182 -1.9212
   46RES   H14119131   6.549   4.090   0.821  0.6373 -1.6153  0.5397
   46RES   H14219132   6.518   4.271   0.652  0.8506  0.1951  0.7972
   46RES   H14319133   6.565   4.155   0.527 -0.3081  3.3486 -1.1930
   46RES   H14419134   6.761   4.098   0.658  0.0143  0.3263  0.8624
   46RES   H14519135   6.737   4.231   0.769 -1.7475  0.3265  0.2785
   46RES   H14619136   6.728   4.386   0.556 -1.6470 -1.2874 -0.1028
   46RES   H14719137   6.797   4.259   0.472  1.8716  0.8010 -0.5082
   46RES   H14819138   6.887   4.323   0.608  0.4475 -1.9654 -0.1045
   46RES   C14919139   6.289   4.063   0.984  0.3303 -0.1073  0.2754
   46RES   C15019140   6.233   4.206   1.005 -0.1127 -0.0005 -0.0441
   46RES   C15119141   6.327   4.321   1.030 -0.3105  0.4403  1.1455
   46RES   C15219142   6.409   4.328   1.159  0.3107  0.3371  0.0467
   46RES   C15319143   6.502   4.448   1.173  0.1618  0.2145  0.2428
   46RES   C15419144   6.637   4.422   1.094  0.4608  0.3996 -0.2291
   46RES   C15519145   6.734   4.538   1.121 -0.3786  0.1813  0.7543
   46RES   H15619146   6.240   3.989   1.048  1.4024 -1.0674  0.0185
   46RES   H15719147   6.392   4.070   1.019  0.7473  3.8229 -1.4652
   46RES   H15819148   6.181   4.226   0.911 -2.7888  1.8050  1.7467
   46RES   H15919149   6.400   4.315   0.949 -1.6920  0.5466 -0.1291
   46RES   H16019150   6.276   4.415   1.011  2.7172  1.6934 -1.3235
   46RES   H16119151   6.471   4.239   1.157  2.3576  1.7526 -1.4481
   46RES   H16219152   6.340   4.333   1.243 -0.5990 -1.4760 -0.5653
   46RES   H16319153   6.523   4.454   1.280  1.9493 -0.3061 -0.0642
   46RES   H16419154   6.460   4.543   1.142  1.0244  1.0308  1.5061
   46RES   H16519155   6.623   4.418   0.986  1.5597  0.6047 -0.3791
   46RES   H16619156   6.689   4.329   1.120  1.1678  1.2569  1.4240
   46RES   H16719157   6.762   4.545   1.226  1.0674  1.8352  0.2730
   46RES   H16819158   6.685   4.630   1.091 -0.2879  0.6618  2.0714
   46RES   H16919159   6.820   4.539   1.053 -2.0388 -0.6345 -1.4031
   46RES   C17019160   6.120   4.192   1.111  0.3176 -0.0861  0.1284
   46RES   C17119161   6.036   4.325   1.138 -0.4421  0.1760  0.0570
   46RES   C17219162   5.964   4.397   1.025  0.2862 -0.5351 -0.1840
   46RES   C17319163   5.853   4.317   0.955 -0.3101  0.6013 -0.1748
   46RES   C17419164   5.779   4.398   0.849 -0.2647  0.0726  0.6490
   46RES   C17519165   5.664   4.317   0.784 -0.5248 -0.0481  0.3855
   46RES   C17619166   5.710   4.230   0.664 -0.1104  0.6628 -0.5813
   46RES   H17719167   6.167   4.150   1.199  1.7311  0.5599 -0.3002
   46RES   H17819168   6.055   4.116   1.069  1.2012 -0.0477 -1.3533
   46RES   H17919169   6.120   4.385   1.174 -0.0416  0.2823 -1.0598
   46RES   H18019170   6.035   4.411   0.943 -1.6465  3.1043 -1.3575
   46RES   H18119171   5.932   4.497   1.054  2.6093 -0.3581  2.0034
   46RES   H18219172   5.793   4.264   1.029 -0.7312  1.2762 -0.0292
   46RES   H18319173   5.896   4.229   0.909  1.1748  1.1195  0.1983
   46RES   H18419174   5.845   4.432   0.770 -0.5668 -0.7229  0.0510
   46RES   H18519175   5.736   4.490   0.889 -2.9015  0.2974 -2.4959
   46RES   H18619176   5.578   4.372   0.746 -0.0373  0.0926 -0.5291
   46RES   H18719177   5.616   4.246   0.853 -2.5410  0.2364 -0.6828
   46RES   H18819178   5.735   4.293   0.579  0.0827  0.1168 -0.9242
   46RES   H18919179   5.641   4.153   0.630 -1.0772  1.5955 -0.7419
   46RES   H19019180   5.799   4.178   0.700 -0.2412  0.4514 -0.5639
   46RES   C19119181   5.959   4.321   1.263 -0.0164  0.3932  0.3878
   46RES   C19219182   6.007   4.407   1.381  0.0726  0.1986  0.4260
   46RES   C19319183   5.991   4.556   1.336 -0.2649 -0.2582 -0.2595
   46RES   C19419184   6.066   4.657   1.426  0.6115 -0.0741 -0.1094
   46RES   C19519185   6.213   4.687   1.380 -0.0541 -0.0246 -0.7243
   46RES   C19619186   6.274   4.806   1.456 -0.0933  0.2511 -1.3739
   46RES   C19719187   6.412   4.862   1.416  0.6117 -0.1831  0.2851
   46RES   H19819188   5.954   4.215   1.286  2.1001 -0.5816 -3.1724
   46RES   H19919189   5.854   4.334   1.237 -0.0116 -0.8589 -0.2641
   46RES   H20019190   6.114   4.386   1.386 -0.0050 -0.4659 -0.5578
   46RES   H20119191   5.883   4.570   1.337 -0.4338 -1.4996  0.4941
   46RES   H20219192   6.032   4.572   1.237 -0.4667 -1.2506 -0.5143
   46RES   H20319193   6.060   4.628   1.531  0.1665  0.9392  0.1620
   46RES   H20419194   6.007   4.749   1.431  0.0327 -0.4936  0.8894
   46RES   H20519195   6.276   4.599   1.395  0.1849  0.4772  1.3963
   46RES   H20619196   6.211   4.716   1.275 -2.5933  0.8766 -0.4456
   46RES   H20719197   6.283   4.781   1.562  0.8645  2.3597 -0.9134
   46RES   H20819198   6.196   4.882   1.467 -1.4119 -1.2809  0.2262
   46RES   H20919199   6.424   4.968   1.438  1.5714 -0.5804  1.7933
   46RES   H21019200   6.427   4.852   1.309 -1.0141  0.3248 -0.0125
   46RES   H21119201   6.494   4.815   1.469  0.1988  0.6673  1.7084
   46RES   C21219202   5.933   4.374   1.511 -0.3964  0.1655 -0.3616
   46RES   C21319203   6.012   4.283   1.615 -0.0615 -0.6400 -0.3320
   46RES   C21419204   6.054   4.150   1.557 -0.4684 -0.0829 -0.8854
   46RES   C21519205   6.086   4.047   1.664  0.0454 -0.3468 -0.2440
   46RES   C21619206   6.112   3.909   1.598 -0.2111 -0.8877  0.6373
   46RES   C21719207   6.232   3.838   1.665  0.5489 -0.3014 -0.0129
   46RES   C21819208   6.260   3.706   1.604  0.5626  0.1306 -0.9164
   46RES   H21919209   5.840   4.321   1.490  0.6017 -1.2671 -1.2458
   46RES   H22019210   5.907   4.466   1.563  0.4511 -1.0818  2.3680
   46RES   H22119211   5.941   4.264   1.696  2.7066  0.1446  2.3852
   46RES   H22219212   5.973   4.112   1.495  0.0084 -2.3092 -0.1816
   46RES   H22319213   6.142   4.166   1.495  0.9835 -0.1935  1.1012
   46RES   H22419214   6.002   4.054   1.733 -1.8163  1.1011 -2.5684
   46RES   H22519215   6.169   4.076   1.729 -0.1692 -1.9770  0.7790
   46RES   H22619216   6.021   3.853   1.620 -0.2500 -1.2830 -0.4984
   46RES   H22719217   6.134   3.921   1.492  1.2627 -0.1545  1.0094
   46RES   H22819218   6.325   3.894   1.655  0.8244 -0.9381 -0.9597
   46RES   H22919219   6.210   3.818   1.770 -1.0504  0.6482 -0.1412
   46RES   H23019220   6.184   3.628   1.607 -1.6099  2.1295 -1.7905
   46RES   H23119221   6.341   3.668   1.666 -0.3458  2.5955  1.9237
   46RES   H23219222   6.308   3.717   1.507  2.8947  1.0405  0.3030
   46RES   C23319223   6.133   4.364   1.676 -0.1964  0.0119 -0.0759
   46RES   C23419224   6.091   4.451   1.795  0.2195  0.7227  0.2870
   46RES   C23519225   6.053   4.365   1.916  0.0008  0.6024 -0.2674
   46RES   C23619226   5.939   4.413   2.007 -0.1646 -0.6251  0.0929
   46RES   C23719227   5.947   4.363   2.150  0.2026 -0.1126  0.2816
   46RES   C23819228   5.849   4.422   2.251 -0.2969 -0.1192 -0.2658
   46RES   C23919229   5.853   4.573   2.249 -0.5881 -0.4286 -0.5393
   46RES   H24019230   6.186   4.425   1.603 -0.3727 -1.7721 -1.7595
   46RES   H24119231   6.210   4.294   1.707  0.0249 -0.5783 -1.8757
   46RES   H24219232   6.005   4.508   1.759  0.7029  1.2906  0.0132
   46RES   H24319233   6.148   4.349   1.966  1.0990  2.3119 -1.7392
   46RES   H24419234   6.027   4.261   1.899 -0.9048  0.9836 -1.2622
   46RES   H24519235   5.849   4.369   1.964 -0.5933 -0.8933  1.2248
   46RES   H24619236   5.925   4.521   1.999 -2.3698 -0.8726  0.2829
   46RES   H24719237   6.047   4.387   2.185 -0.0078  0.2452  0.6403
   46RES   H24819238   5.922   4.256   2.150 -1.6194  0.3017  0.8699
   46RES   H24919239   5.747   4.394   2.226 -0.3284 -0.4620  0.2446
   46RES   H25019240   5.868   4.386   2.352 -1.3628  0.3824  0.1184
   46RES   H25119241   5.943   4.634   2.261 -1.6401  1.2045 -0.6955
   46RES   H25219242   5.793   4.607   2.165 -0.0622  2.5588  0.2379
   46RES   H25319243   5.801   4.593   2.343 -1.1413 -1.3861 -0.6385
   46RES   C25419244   6.198   4.554   1.828 -0.2866 -0.1315  0.0398
   46RES   C25519245   6.164   4.659   1.935 -0.3725  0.6710 -0.4612
   46RES   C25619246   6.048   4.762   1.909  0.1534 -0.4467 -0.8633
   46RES   C25719247   6.067   4.854   1.785 -0.3206  0.5250  0.4797
   46RES   C25819248   5.943   4.951   1.778 -0.1354 -0.5080  0.5067
   46RES   C25919249   5.969   5.070   1.683 -0.1639 -0.7028 -0.7107
   46RES   C26019250   5.847   5.153   1.659  0.1319 -0.5777 -0.2966
   46RES   H26119251   6.213   4.610   1.736  2.0938 -0.0920  0.4238
   46RES   H26219252   6.292   4.503   1.849 -0.4721 -0.9431 -1.0419
   46RES   H26319253   6.137   4.602   2.024  1.5776 -0.5520 -0.6313
   46RES   H26419254   6.035   4.813   2.005  0.2777 -1.2614 -0.4029
   46RES   H26519255   5.954   4.711   1.890  0.7512 -1.7279 -0.4584
   46RES   H26619256   6.159   4.912   1.795  1.2303 -2.1985  2.5920
   46RES   H26719257   6.073   4.803   1.689 -3.5495  0.3143  0.3615
   46RES   H26819258   5.940   4.996   1.877  1.6761  2.4560 -0.7409
   46RES   H26919259   5.852   4.891   1.775 -0.3725 -0.0639 -2.7834
   46RES   H27019260   6.047   5.126   1.735 -2.0974  1.0016  0.4052
   46RES   H27119261   6.001   5.026   1.588  1.5455  0.9762 -0.9428
   46RES   H27219262   5.812   5.186   1.756  0.6369  0.8446 -0.5891
   46RES   H27319263   5.870   5.243   1.603  1.4959 -0.7822 -0.1037
   46RES   H27419264   5.768   5.094   1.613 -0.6506 -1.3659  1.9756
   46RES   C27519265   6.288   4.737   1.984  0.6104  0.0927  1.1281
   46RES   C27619266   6.402   4.667   2.064  0.3968 -0.2479  0.5175
   46RES   C27719267   6.356   4.618   2.205 -0.4050  0.0273  0.6646
   46RES   C27819268   6.320   4.725   2.308  0.3208  0.0543 -0.1145
   46RES   C27919269   6.251   4.657   2.424 -0.5192  0.0546  0.1365
   46RES   C28019270   6.214   4.751   2.535 -0.0603  0.1805 -0.4247
   46RES   C28119271   6.147   4.664   2.651 -1.5681 -0.7075 -0.2178
   46RES   H28219272   6.264   4.832   2.032 -0.7392 -0.6527  1.9345
   46RES   H28319273   6.335   4.763   1.889  1.5477  1.0886  1.8509
   46RES   H28419274   6.438   4.580   2.009 -0.2282 -1.4091  1.8999
   46RES   H28519275   6.268   4.555   2.189 -0.8467  0.5364  1.0700
   46RES   H28619276   6.435   4.548   2.233 -1.1617 -1.6576 -1.2466
   46RES   H28719277   6.245   4.791   2.263  1.0412 -1.2854 -3.4332
   46RES   H28819278   6.407   4.789   2.327  0.5393 -0.4664  0.6752
   46RES   H28919279   6.324   4.589   2.466 -0.5498  0.1031  0.2671
   46RES   H29019280   6.170   4.596   2.385 -1.9625  2.2097 -0.3793
   46RES   H29119281   6.302   4.806   2.568  0.1833 -1.2107  1.3604
   46RES   H29219282   6.139   4.819   2.495  0.0880 -0.3318 -1.5872
   46RES   H29319283   6.042   4.638   2.638 -1.4905 -2.6618  2.6286
   46RES   H29419284   6.150   4.721   2.743  0.4780 -1.2847  0.0867
   46RES   H29519285   6.187   4.563   2.663  0.7891  0.1320 -0.8258
   46RES   C29619286   6.530   4.757   2.072 -1.1150  0.6481 -0.0036
   46RES   C29719287   6.605   4.787   1.938 -0.5454 -0.5529 -0.3484
   46RES   C29819288   6.650   4.655   1.863 -0.1447  0.3553  0.0880
   46RES   C29919289   6.720   4.554   1.957  0.5697 -0.5234  0.3827
   46RES   C30019290   6.783   4.428   1.883 -0.3356 -0.5978 -0.5038
   46RES   C30119291   6.832   4.331   1.993 -0.1706 -0.2507  0.4081
   46RES   C30219292   6.941   4.232   1.940  0.2385  0.2534 -0.3272
   46RES   H30319293   6.508   4.851   2.123 -1.7478  1.4194 -1.6377
   46RES   H30419294   6.606   4.713   2.136  0.3479  1.2489 -1.3096
   46RES   H30519295   6.540   4.835   1.864 -3.9853 -3.0907  0.8909
   46RES   H30619296   6.561   4.607   1.823 -1.3565  2.0181  0.7372
   46RES   H30719297   6.716   4.677   1.779 -1.7605 -0.5756 -1.4556
   46RES   H30819298   6.651   4.522   2.036 -1.4280  1.6536 -0.4196
   46RES   H30919299   6.794   4.619   2.003  0.5388  0.3894 -0.8354
   46RES   H31019300   6.866   4.454   1.817 -0.3538 -2.7494 -1.3858
   46RES   H31119301   6.721   4.374   1.812  2.2721 -2.2050 -1.6094
   46RES   H31219302   6.860   4.394   2.077 -0.0367 -0.2837  0.3885
   46RES   H31319303   6.747   4.271   2.026 -2.0352  1.9522 -0.3072
   46RES   H31419304   7.044   4.266   1.934  1.0552 -1.9486  0.3430
   46RES   H31519305   6.934   4.144   2.005 -0.1209  0.1620 -0.4908
   46RES   H31619306   6.918   4.191   1.842  0.9265 -2.1736  0.4664
   46RES   C31719307   6.727   4.870   1.967  0.0964  0.2478 -0.0466
   46RES   C31819308   6.699   5.024   1.991 -0.0683  0.3685 -1.1285
   46RES   C31919309   6.839   5.088   2.015  0.0418 -0.3272  0.1863
   46RES   C32019310   6.929   5.026   2.127  0.2202 -0.0181  0.2160
   46RES   C32119311   7.021   5.132   2.183 -0.3781 -0.3719  0.2962
   46RES   C32219312   7.127   5.077   2.280  0.1764  0.5186  0.0536
   46RES   C32319313   7.219   5.191   2.332 -0.0782  0.7755 -0.5020
   46RES   H32419314   6.804   4.866   1.890  0.3456  0.8437  0.1672
   46RES   H32519315   6.764   4.826   2.059 -0.1872 -0.2111 -0.1503
   46RES   H32619316   6.633   5.044   2.075 -1.5928 -0.4465 -2.1130
   46RES   H32719317   6.818   5.184   2.063  0.1053 -0.3364  0.2308
   46RES   H32819318   6.894   5.103   1.921  0.6601  2.2847  0.9076
   46RES   H32919319   6.984   4.943   2.082 -0.1359 -1.7992  2.9765
   46RES   H33019320   6.861   4.982   2.200  0.0058  1.4553  0.9238
   46RES   H33119321   6.964   5.218   2.218 -1.3698 -0.1544 -1.7878
   46RES   H33219322   7.069   5.185   2.101 -0.7835 -1.5313 -0.7164
   46RES   H33319323   7.181   4.998   2.228 -0.0875  1.0338 -1.0180
   46RES   H33419324   7.084   5.037   2.372  1.7131 -1.3753 -0.0284
   46RES   H33519325   7.167   5.257   2.402  2.8110  0.7271  1.8059
   46RES   H33619326   7.249   5.247   2.243 -1.6840  0.7719 -1.0647
   46RES   H33719327   7.307   5.162   2.390  0.1460 -0.4279 -1.4181
   46RES   C33819328   6.634   5.105   1.874  0.5466  0.1894  0.0875
   46RES   C33919329   6.488   5.139   1.888 -0.1356 -0.0296 -0.2881
   46RES   C34019330   6.412   5.138   1.747  0.1550  0.1999 -0.3864
   46RES   C34119331   6.459   5.241   1.638 -0.8881 -0.5932 -0.9096
   46RES   C34219332   6.361   5.280   1.530 -0.3694 -0.0671 -0.7442
   46RES   C34319333   6.225   5.332   1.577 -0.2050 -0.0679  0.1154
   46RES   C34419334   6.136   5.373   1.463 -0.3989 -0.5836  0.3500
   46RES   H34519335   6.650   5.048   1.782  1.0953  0.5075 -0.0194
   46RES   H34619336   6.686   5.201   1.873  0.8041  0.0916 -3.6831
   46RES   H34719337   6.441   5.051   1.934  1.4298 -0.0870  1.2608
   46RES   H34819338   6.416   5.040   1.701 -0.6903  0.4196 -0.9405
   46RES   H34919339   6.307   5.151   1.772  0.0805 -2.8237  1.1288
   46RES   H35019340   6.535   5.180   1.589 -0.2086 -0.4577 -0.0403
   46RES   H35119341   6.519   5.322   1.679 -0.1420 -2.7066  2.3392
   46RES   H35219342   6.407   5.368   1.484 -0.5482 -0.0358 -0.8629
   46RES   H35319343   6.353   5.218   1.441 -0.7651  0.8642 -1.3728
   46RES   H35419344   6.176   5.251   1.632 -1.2993  0.4662 -0.0636
   46RES   H35519345   6.249   5.417   1.642 -1.7992  1.0330 -0.7005
   46RES   H35619346   6.044   5.412   1.506 -0.6942 -1.9392  0.9847
   46RES   H35719347   6.108   5.293   1.395 -1.9280  0.5780 -0.4106
   46RES   H35819348   6.188   5.438   1.393 -3.4837 -1.3571 -2.8080
   46RES   C35919349   6.456   5.263   1.977 -0.5266  0.4833  0.8195
   46RES   C36019350   6.302   5.291   2.004 -0.2351  0.3202  0.0438
   46RES   C36119351   6.248   5.193   2.113  0.4711  0.1590 -0.5313
   46RES   C36219352   6.317   5.201   2.247  0.1537 -0.0136  0.6828
   46RES   C36319353   6.230   5.143   2.360  0.2051 -0.4780 -0.2011
   46RES   C36419354   6.307   5.149   2.490 -0.0157  0.6840  0.0333
   46RES   C36519355   6.329   5.293   2.547  0.4961  0.4131 -0.2657
   46RES   H36619356   6.497   5.348   1.923 -0.0801  0.1373  0.6100
   46RES   H36719357   6.506   5.263   2.073  1.5850 -2.8098 -0.1682
   46RES   H36819358   6.243   5.287   1.912  0.5601 -0.8412 -0.4273
   46RES   H36919359   6.142   5.210   2.134 -0.0373 -0.0207 -2.8245
   46RES   H37019360   6.240   5.092   2.074  1.4111  0.4492 -1.5031
   46RES   H37119361   6.409   5.144   2.238 -0.2415 -0.6261  0.5332
   46RES   H37219362   6.336   5.307   2.266 -0.6628  0.0413  1.2414
   46RES   H37319363   6.130   5.184   2.371  0.2538 -0.8654  1.8826
   46RES   H37419364   6.217   5.038   2.332 -0.1664 -0.6381  0.5664
   46RES   H37519365   6.258   5.091   2.569  0.8095  2.0444  1.5614
   46RES   H37619366   6.405   5.104   2.473 -1.5745 -2.9446 -0.0208
   46RES   H37719367   6.344   5.365   2.466 -1.8801 -0.4319 -1.5022
   46RES   H37819368   6.242   5.327   2.603  0.2496 -1.5529  0.5529
   46RES   H37919369   6.411   5.301   2.617  0.8590 -0.7351 -0.5531
   46RES   C38019370   6.282   5.449   2.017  0.1157 -0.2700 -0.5751
   46RES   C38119371   6.144   5.506   2.063  0.5966  0.3099  0.3471
   46RES   C38219372   6.153   5.653   2.104 -0.0697 -0.2524 -0.4231
   46RES   C38319373   6.219   5.665   2.235 -0.2446  0.5098  0.4897
   46RES   C38419374   6.236   5.809   2.283 -0.2812 -0.6820  0.3952
   46RES   C38519375   6.255   5.833   2.435 -0.0596 -0.4172 -1.4824
   46RES   C38619376   6.394   5.787   2.471  0.2904 -0.0490  0.0456
   46RES   H38719377   6.355   5.492   2.086 -0.5165  3.2572 -1.9852
   46RES   H38819378   6.310   5.496   1.922 -0.0208 -0.6410 -0.8006
   46RES   H38919379   6.120   5.446   2.150  1.1721  0.2954  0.4969
   46RES   H39019380   6.054   5.698   2.106  0.1762  0.3903 -1.9698
   46RES   H39119381   6.216   5.711   2.036  0.6306 -0.3261  0.1495
   46RES   H39219382   6.150   5.616   2.304  0.7645 -0.8319  0.5755
   46RES   H39319383   6.314   5.613   2.246 -0.8047 -0.5391  0.4433
   46RES   H39419384   6.299   5.872   2.220  1.2754 -2.2498  0.3186
   46RES   H39519385   6.141   5.855   2.258 -0.3657 -0.8816  0.3505
   46RES   H39619386   6.185   5.778   2.499 -1.3698  0.8989 -1.7577
   46RES   H39719387   6.242   5.936   2.467  0.9364 -0.6186 -0.3490
   46RES   H39819388   6.462   5.832   2.399 -1.7148  1.4836 -0.9287
   46RES   H39919389   6.408   5.679   2.458 -0.5045 -0.0991 -0.4641
   46RES   H40019390   6.427   5.807   2.573 -3.0848  0.2146  1.1347
   46RES   C40119391   6.040   5.473   1.947 -0.0462  0.1695 -0.4261
   46RES   C40219392   5.892   5.470   2.006 -0.5803  0.1577 -0.0441
   46RES   C40319393   5.785   5.495   1.901  0.0372  0.4011  0.3578
   46RES   C40419394   5.642   5.510   1.965 -0.9321  0.1996  0.0795
   46RES   C40519395   5.554   5.566   1.855 -0.7992  0.5576  0.2951
   46RES   C40619396   5.413   5.602   1.899 -0.6638 -0.2958  0.0432
   46RES   C40719397   5.339   5.644   1.777 -0.1171  0.5026 -0.0380
   46RES   H40819398   6.059   5.384   1.886  0.7124  1.0483 -1.4737
   46RES   H40919399   6.050   5.550   1.871  0.1062 -0.9115 -1.5337
   46RES   H41019400   5.879   5.548   2.081 -2.2737  0.6293 -0.8132
   46RES   H41119401   5.783   5.417   1.824 -2.2965  1.7824 -1.0598
   46RES   H41219402   5.808   5.593   1.859 -0.2146  0.3847  0.1789
   46RES   H41319403   5.646   5.584   2.044  1.7909 -1.1168  1.2666
   46RES   H41419404   5.608   5.419   2.016  2.6572 -0.7895  0.8826
   46RES   H41519405   5.592   5.659   1.812  0.7533 -0.0087  0.4437
   46RES   H41619406   5.550   5.488   1.779 -0.1079  1.8957 -1.1356
   46RES   H41719407   5.359   5.523   1.951  0.8882 -1.9407 -0.7931
   46RES   H41819408   5.412   5.685   1.970  0.7732  0.7295 -1.0765
   46RES   H41919409   5.232   5.650   1.797 -0.1196  2.3401 -0.5405
   46RES   H42019410   5.349   5.582   1.688  1.9715 -1.2481  1.3820
   46RES   H42119411   5.366   5.743   1.742  0.0455  1.0879  1.6762
   46RES   H42219412   5.862   5.374   2.046 -3.0804 -0.1377 -2.5053
   47RES     C119413   3.620   4.424   1.565 -0.4501  0.3753  0.6119
   47RES     C219414   3.594   4.463   1.708  1.1292 -0.0514  0.1626
   47RES     C319415   3.466   4.543   1.725  0.5957  0.0230 -0.5639
   47RES     C419416   3.341   4.454   1.726  0.1995 -0.8836  0.0479
   47RES     C519417   3.206   4.525   1.681  0.4602  0.2409  0.0727
   47RES     C619418   3.088   4.431   1.680 -0.0786 -0.2984 -0.0592
   47RES     C719419   2.967   4.498   1.611  0.1219  0.1802  0.0589
   47RES     H819420   3.534   4.387   1.510 -1.3848 -1.9480  3.5352
   47RES     H919421   3.702   4.354   1.548  0.5471  1.5161  0.6289
   47RES    H1019422   3.572   4.371   1.762 -0.1085  1.4459  2.2751
   47RES    H1119423   3.468   4.602   1.816  4.7948 -1.9075  0.7251
   47RES    H1219424   3.467   4.609   1.638  0.7454  0.9342  0.1336
   47RES    H1319425   3.351   4.377   1.649 -1.5540 -0.0657 -1.0177
   47RES    H1419426   3.332   4.407   1.824 -2.0406  0.2697  0.4262
   47RES    H1519427   3.227   4.566   1.582  0.6599  0.9597  0.4118
   47RES    H1619428   3.184   4.613   1.741 -0.3292 -0.2752  0.5431
   47RES    H1719429   3.088   4.395   1.783 -0.6120  0.5018  0.2227
   47RES    H1819430   3.124   4.346   1.622  0.1665  0.5027 -1.1030
   47RES    H1919431   2.969   4.497   1.502 -3.3002  1.3508 -0.0777
   47RES    H2019432   2.945   4.594   1.658 -1.6468 -1.2490  2.2990
   47RES    H2119433   2.876   4.448   1.644  0.2604 -0.0671  0.0672
   47RES    H2219434   3.640   4.522   1.520 -0.8234  0.4124  0.5237
   47RES    C2319435   3.718   4.526   1.774 -0.6336  0.6351  0.3624
   47RES    C2419436   3.836   4.429   1.823  0.0950 -0.4728  0.1953
   47RES    C2519437   3.785   4.317   1.923  0.1821  0.0868  0.4436
   47RES    C2619438   3.883   4.206   1.961  0.1350 -0.2542 -0.1088
   47RES    C2719439   3.819   4.096   2.035 -0.3385  0.2269 -0.4454
   47RES    C2819440   3.919   3.990   2.098  0.3823 -0.2715  0.2160
   47RES    C2919441   3.859   3.921   2.218  0.3435  0.2430 -0.2693
   47RES    H3019442   3.756   4.612   1.720 -2.1132  0.4836 -0.9576
   47RES    H3119443   3.691   4.573   1.869  0.9321  0.3879  0.9521
   47RES    H3219444   3.886   4.384   1.737 -2.6460 -2.5160 -0.4006
   47RES    H3319445   3.688   4.275   1.895 -0.6706  2.6280 -0.5425
   47RES    H3419446   3.757   4.359   2.020 -0.3630 -0.4350  0.5178
   47RES    H3519447   3.969   4.246   2.015 -0.2855  0.4115  0.0765
   47RES    H3619448   3.919   4.166   1.866 -0.3459  0.4493 -0.5929
   47RES    H3719449   3.757   4.042   1.963 -0.1381 -0.0518 -0.4107
   47RES    H3819450   3.758   4.140   2.114 -0.5847 -0.7599 -0.0667
   47RES    H3919451   4.010   4.043   2.125  0.2471 -0.2868  0.6987
   47RES    H4019452   3.947   3.909   2.029 -0.1124  1.0591 -1.5874
   47RES    H4119453   3.922   3.847   2.267  2.0949  0.6973 -1.8121
   47RES    H4219454   3.825   3.998   2.288  0.3756  0.2830 -0.2980
   47RES    H4319455   3.775   3.876   2.166  0.5030  2.5981 -2.6880
   47RES    C4419456   3.945   4.510   1.895  0.1000  0.2264 -0.0820
   47RES    C4519457   4.072   4.536   1.811  0.4006 -0.5130 -0.6080
   47RES    C4619458   4.154   4.408   1.776 -0.2887 -0.0061  0.4544
   47RES    C4719459   4.304   4.433   1.769 -0.4734  1.1330  0.1230
   47RES    C4819460   4.386   4.315   1.727  0.5445  0.5829 -0.0694
   47RES    C4919461   4.536   4.345   1.736  0.1892 -0.5911  0.6898
   47RES    C5019462   4.623   4.246   1.667  0.1678 -0.5579  0.0941
   47RES    H5119463   3.987   4.454   1.979 -0.9586 -0.5735 -0.0662
   47RES    H5219464   3.898   4.592   1.949  0.9043  1.1276 -0.7431
   47RES    H5319465   4.142   4.594   1.871 -1.3802  1.2567 -0.1643
   47RES    H5419466   4.115   4.371   1.681 -2.7294  2.0942  0.5659
   47RES    H5519467   4.148   4.337   1.858  2.2341  0.3401  0.9593
   47RES    H5619468   4.329   4.521   1.710  1.7544  0.1589 -0.4340
   47RES    H5719469   4.335   4.455   1.871 -0.2684  0.8427  0.1233
   47RES    H5819470   4.359   4.283   1.627  0.6157 -0.0101  0.0966
   47RES    H5919471   4.360   4.237   1.800  0.2686  0.7328 -0.0044
   47RES    H6019472   4.553   4.353   1.843 -0.2296  0.7852  0.6647
   47RES    H6119473   4.560   4.444   1.697 -0.5959 -0.3538  0.8049
   47RES    H6219474   4.725   4.283   1.666 -0.1620  0.3759 -0.8325
   47RES    H6319475   4.589   4.220   1.566  0.6508 -0.5079 -0.0838
   47RES    H6419476   4.625   4.152   1.721  0.8311 -0.5668  0.0537
   47RES    C6519477   4.048   4.620   1.681 -0.2077 -0.0774  0.2973
   47RES    C6619478   3.981   4.758   1.713  0.5952 -0.4434  0.2919
   47RES    C6719479   3.911   4.815   1.586 -0.4863  0.3117  0.0228
   47RES    C6819480   3.968   4.797   1.445  0.1106  0.0303  0.8323
   47RES    C6919481   4.089   4.888   1.436 -0.7595  0.2230 -0.2074
   47RES    C7019482   4.145   4.903   1.291  0.1092 -0.3360 -0.8374
   47RES    C7119483   4.282   4.960   1.274 -0.2876  0.3487  0.4887
   47RES    H7219484   4.135   4.631   1.616 -0.2609  1.6422  0.4959
   47RES    H7319485   3.973   4.564   1.626 -0.1660 -1.2598  1.4304
   47RES    H7419486   3.900   4.754   1.786  0.9070  1.9371  0.8224
   47RES    H7519487   3.814   4.767   1.579 -0.4836  0.1647  0.8711
   47RES    H7619488   3.870   4.914   1.608 -0.5042  0.0658  1.1375
   47RES    H7719489   3.999   4.694   1.426  2.6695  0.7960  0.6434
   47RES    H7819490   3.900   4.824   1.364  0.1074  2.2899  1.5575
   47RES    H7919491   4.076   4.989   1.474 -0.1497  0.3943 -0.4505
   47RES    H8019492   4.161   4.835   1.499 -0.9337  1.4779  1.0698
   47RES    H8119493   4.073   4.963   1.235 -0.4450  0.2690  0.4961
   47RES    H8219494   4.147   4.803   1.248 -1.6037 -1.2953  1.1815
   47RES    H8319495   4.263   5.039   1.202 -0.0336  1.0827  1.2145
   47RES    H8419496   4.324   4.977   1.373  1.5872  1.3786 -0.4562
   47RES    H8519497   4.348   4.886   1.227 -0.2835  1.4173 -1.2355
   47RES    C8619498   4.089   4.860   1.766  0.0993 -0.7545  0.1129
   47RES    C8719499   4.059   4.935   1.895 -0.3782 -0.5814  0.0221
   47RES    C8819500   4.077   4.842   2.018  0.1448 -0.2785 -0.4034
   47RES    C8919501   4.042   4.898   2.162  0.1141  0.6107 -0.6163
   47RES    C9019502   4.052   4.798   2.280 -0.2691 -0.4854 -0.7143
   47RES    C9119503   4.027   4.858   2.423  0.1919 -0.0891 -0.1320
   47RES    C9219504   4.020   4.753   2.532  0.5528 -0.1919 -0.2956
   47RES    H9319505   4.186   4.811   1.774 -0.2940 -1.1122  3.1098
   47RES    H9419506   4.108   4.932   1.687  0.2027 -1.5578 -0.6118
   47RES    H9519507   3.955   4.967   1.895 -0.6099 -1.3514 -1.4112
   47RES    H9619508   4.012   4.757   2.001  0.8214 -1.2729  1.8206
   47RES    H9719509   4.184   4.817   2.018  0.2031 -0.2954  3.3303
   47RES    H9819510   4.105   4.983   2.187  0.4181  0.2835 -0.2669
   47RES    H9919511   3.940   4.937   2.153 -0.3689 -0.5636 -0.3573
   47RES   H10019512   4.150   4.751   2.282 -0.2379 -0.3763  1.3839
   47RES   H10119513   3.975   4.722   2.261 -1.0714  0.2150 -0.2860
   47RES   H10219514   4.105   4.926   2.458 -0.0203 -1.6331  3.4931
   47RES   H10319515   3.942   4.925   2.423  1.0967  1.0836 -0.2824
   47RES   H10419516   3.929   4.693   2.540  0.2977  0.0679 -1.2625
   47RES   H10519517   4.036   4.809   2.624 -0.4893 -0.2587 -0.0694
   47RES   H10619518   4.105   4.685   2.529  0.7919  0.1267 -0.8078
   47RES   C10719519   4.136   5.069   1.902  0.7727 -0.3884  0.3213
   47RES   C10819520   4.050   5.191   1.844 -0.4728  0.2777 -0.2925
   47RES   C10919521   4.124   5.321   1.879  0.5588  0.1499  0.1938
   47RES   C11019522   4.134   5.363   2.024 -0.4168  1.1179 -0.0604
   47RES   C11119523   4.083   5.506   2.045  0.3136  0.7626  0.1299
   47RES   C11219524   3.934   5.508   2.085 -0.2174  0.0523 -0.0853
   47RES   C11319525   3.902   5.650   2.138 -0.0871 -0.1018 -0.0361
   47RES   H11419526   4.233   5.060   1.852 -0.0853 -0.2242 -1.4313
   47RES   H11519527   4.163   5.097   2.003 -1.0128 -1.0654  1.0069
   47RES   H11619528   3.951   5.198   1.889 -1.3370 -1.8177 -1.8037
   47RES   H11719529   4.074   5.400   1.823  2.2303  1.5466  0.6276
   47RES   H11819530   4.227   5.323   1.842  1.2624 -1.0623  2.0048
   47RES   H11919531   4.072   5.293   2.080 -2.0795  0.3016 -2.8062
   47RES   H12019532   4.234   5.356   2.067 -0.7084 -0.7999  0.3726
   47RES   H12119533   4.108   5.566   1.958  3.8541  2.1539  1.9843
   47RES   H12219534   4.148   5.546   2.124 -0.0125 -0.2791  0.9452
   47RES   H12319535   3.871   5.475   2.003  0.3757 -1.6741  0.1175
   47RES   H12419536   3.917   5.439   2.168  0.7202 -0.1434 -0.0414
   47RES   H12519537   3.986   5.674   2.204  0.3851 -2.7719  0.3948
   47RES   H12619538   3.905   5.732   2.066 -1.7585 -1.4080 -1.6031
   47RES   H12719539   3.800   5.653   2.176 -0.0661 -1.4860  0.1330
   47RES   C12819540   4.018   5.186   1.696 -0.0780  0.5154  0.1340
   47RES   C12919541   3.934   5.301   1.630  0.4727 -0.5300  0.4389
   47RES   C13019542   3.804   5.331   1.710  0.3848  1.3122 -0.4831
   47RES   C13119543   3.703   5.205   1.737  0.4329 -0.0648 -0.4179
   47RES   C13219544   3.594   5.251   1.839  0.5292  0.2445  0.0685
   47RES   C13319545   3.493   5.137   1.864 -0.1997 -0.3560  0.1191
   47RES   C13419546   3.453   5.134   2.008  0.7473 -0.0408  0.1151
   47RES   H13519547   4.113   5.173   1.643 -0.6196 -1.6224 -0.3554
   47RES   H13619548   3.960   5.095   1.677  1.2544 -0.0892 -1.1753
   47RES   H13719549   3.992   5.393   1.637  0.7882 -0.4242 -2.5762
   47RES   H13819550   3.749   5.414   1.667 -2.0946  1.1014  2.1318
   47RES   H13919551   3.828   5.364   1.811  0.1350 -0.4762  0.1819
   47RES   H14019552   3.759   5.117   1.769 -0.2266 -0.7284 -1.0611
   47RES   H14119553   3.658   5.182   1.640  0.5574  1.3585 -0.8241
   47RES   H14219554   3.544   5.336   1.792  2.0954  1.3091  0.3156
   47RES   H14319555   3.644   5.273   1.933 -1.9199  1.1737  1.2215
   47RES   H14419556   3.535   5.043   1.830 -0.8820 -0.6932  0.2059
   47RES   H14519557   3.397   5.141   1.813 -0.3372 -0.1186  0.3899
   47RES   H14619558   3.407   5.228   2.039 -0.7549 -0.8785  0.4402
   47RES   H14719559   3.534   5.117   2.079 -0.2112 -0.8700  1.0349
   47RES   H14819560   3.378   5.059   2.033  0.4731  0.7889  1.8537
   47RES   C14919561   3.903   5.270   1.480  0.3683 -0.0408  0.2682
   47RES   C15019562   3.992   5.338   1.376  0.1726 -0.4121 -0.1175
   47RES   C15119563   3.966   5.268   1.244  0.7572 -0.5972  0.4886
   47RES   C15219564   3.819   5.278   1.213 -0.3744  0.1915 -1.0056
   47RES   C15319565   3.791   5.273   1.066 -0.2793 -0.8659  0.3401
   47RES   C15419566   3.805   5.416   1.010  0.6441 -1.0435  0.1143
   47RES   C15519567   3.783   5.421   0.854 -0.1436 -0.7200 -0.1309
   47RES   H15619568   3.909   5.161   1.472 -1.2604 -0.1714  0.6815
   47RES   H15719569   3.797   5.294   1.470  0.9098  1.8783 -1.1645
   47RES   H15819570   3.957   5.441   1.374 -1.0410 -0.7939  0.4094
   47RES   H15919571   4.024   5.327   1.172  0.8525 -0.7311  0.4561
   47RES   H16019572   4.011   5.170   1.234  1.3363 -0.2997  0.1237
   47RES   H16119573   3.774   5.370   1.250 -2.4180 -1.7597  1.5339
   47RES   H16219574   3.767   5.197   1.265  1.0431 -0.6559 -0.8723
   47RES   H16319575   3.692   5.233   1.046 -0.7223  0.4636 -0.1552
   47RES   H16419576   3.842   5.189   1.018  0.6099 -0.7485  1.0589
   47RES   H16519577   3.907   5.451   1.027  0.3294  1.2144 -2.2154
   47RES   H16619578   3.746   5.496   1.054  1.2744  0.9186 -2.4566
   47RES   H16719579   3.818   5.517   0.816  1.1061 -1.8878 -2.0047
   47RES   H16819580   3.679   5.420   0.823 -0.2077  2.9554 -0.2213
   47RES   H16919581   3.852   5.350   0.809  0.9264 -0.4885  1.1071
   47RES   C17019582   4.141   5.332   1.409  0.5210  0.7279  0.2067
   47RES   C17119583   4.239   5.400   1.311  0.5912 -0.0996  0.2140
   47RES   C17219584   4.191   5.539   1.258 -0.0003 -0.1206 -0.3104
   47RES   C17319585   4.157   5.642   1.373  0.9301 -0.0403  0.5139
   47RES   C17419586   4.078   5.756   1.320  0.8239  0.2384 -0.9191
   47RES   C17519587   4.076   5.877   1.404 -0.5104 -0.7210  0.1765
   47RES   C17619588   3.990   5.987   1.346 -0.1113  0.4888 -0.0189
   47RES   H17719589   4.175   5.234   1.442  0.7633 -0.0444 -2.2663
   47RES   H17819590   4.158   5.393   1.498  1.5286  0.9080 -0.1058
   47RES   H17919591   4.246   5.334   1.224 -0.1801 -1.1500  0.9386
   47RES   H18019592   4.105   5.532   1.192 -0.2252  2.0581 -0.2919
   47RES   H18119593   4.273   5.576   1.196 -1.3467  0.9682 -1.4653
   47RES   H18219594   4.251   5.686   1.406  0.3684  1.0094  0.7450
   47RES   H18319595   4.107   5.600   1.460  2.2569 -1.7246  0.4921
   47RES   H18419596   3.973   5.725   1.323  1.1686 -0.9053 -0.2007
   47RES   H18519597   4.115   5.790   1.223  0.9815 -1.1046 -1.3361
   47RES   H18619598   4.182   5.900   1.411 -0.6776  0.3591 -0.7159
   47RES   H18719599   4.037   5.846   1.501  0.1013  0.0450  0.6718
   47RES   H18819600   4.009   6.080   1.400  1.7088  1.3239 -2.0259
   47RES   H18919601   3.882   5.974   1.345 -0.1571  0.8416  0.1444
   47RES   H19019602   4.020   6.011   1.245  1.7229 -0.8652  0.1834
   47RES   C19119603   4.376   5.406   1.374  0.3558 -0.9279  0.2234
   47RES   C19219604   4.491   5.401   1.269 -0.3827 -0.4096 -0.6632
   47RES   C19319605   4.605   5.504   1.315  0.2831 -0.3163  0.2438
   47RES   C19419606   4.562   5.645   1.285 -0.1995  0.4328 -0.3249
   47RES   C19519607   4.674   5.758   1.298  0.7617  0.5530 -0.0931
   47RES   C19619608   4.637   5.898   1.243  1.1666  0.2303  0.2137
   47RES   C19719609   4.752   5.990   1.284 -0.4291 -0.0520 -0.6808
   47RES   H19819610   4.394   5.328   1.448  1.0829  0.8228  1.9335
   47RES   H19919611   4.380   5.492   1.440  1.7438 -1.5568  0.9903
   47RES   H20019612   4.457   5.439   1.173  0.6261 -0.2546 -0.9743
   47RES   H20119613   4.697   5.488   1.260  1.2732  0.6939  1.5669
   47RES   H20219614   4.627   5.501   1.422  0.7857  0.7771  0.1793
   47RES   H20319615   4.474   5.683   1.336  0.4251 -0.1351  1.2187
   47RES   H20419616   4.545   5.657   1.178 -0.3983  1.0066 -0.2305
   47RES   H20519617   4.694   5.757   1.405 -0.2277 -0.5241  0.0898
   47RES   H20619618   4.763   5.726   1.245 -0.0383  0.2443 -1.2814
   47RES   H20719619   4.546   5.935   1.292 -0.1922 -1.2575 -1.1024
   47RES   H20819620   4.629   5.905   1.135  1.0693  0.8198  0.2570
   47RES   H20919621   4.851   5.951   1.259  0.4447  1.5126  0.2309
   47RES   H21019622   4.757   6.031   1.385 -0.8381 -1.6371 -0.0115
   47RES   H21119623   4.755   6.085   1.231  1.7321  1.6637  2.2946
   47RES   C21219624   4.557   5.254   1.258 -0.2333 -0.1562  0.7982
   47RES   C21319625   4.631   5.222   1.123  0.1573 -0.8706  0.8525
   47RES   C21419626   4.705   5.091   1.129 -0.1866  0.1714 -0.3881
   47RES   C21519627   4.853   5.095   1.159  0.1059 -0.1160  0.4326
   47RES   C21619628   4.880   5.082   1.313 -0.0134  0.0219  0.5799
   47RES   C21719629   5.016   5.018   1.356  0.5836  0.1096 -0.3253
   47RES   C21819630   5.061   5.059   1.503 -0.9455  0.3117  0.1945
   47RES   H21919631   4.479   5.178   1.271 -0.9698  0.1425 -1.5907
   47RES   H22019632   4.622   5.236   1.343  1.0803  3.2589  0.5887
   47RES   H22119633   4.706   5.301   1.124 -1.0006  0.2209  1.7742
   47RES   H22219634   4.659   5.028   1.205 -0.2846  1.2539  0.4562
   47RES   H22319635   4.695   5.036   1.036  2.6229  0.6533 -1.0101
   47RES   H22419636   4.909   5.181   1.120 -5.3600  1.4621 -4.7186
   47RES   H22519637   4.887   5.014   1.094 -1.6209  0.7884 -1.6627
   47RES   H22619638   4.870   5.182   1.355  0.6045 -0.6513  2.3881
   47RES   H22719639   4.799   5.021   1.351  0.4376 -1.1165 -0.2597
   47RES   H22819640   5.000   4.910   1.351 -2.0800  0.2823  3.0770
   47RES   H22919641   5.090   5.049   1.281  1.6685  0.7008  0.9733
   47RES   H23019642   5.161   5.021   1.521 -1.4270  0.4419  3.4038
   47RES   H23119643   4.993   5.017   1.576 -2.4512  0.5006 -1.0685
   47RES   H23219644   5.045   5.166   1.521 -2.4610  0.4224 -1.6922
   47RES   C23319645   4.543   5.235   0.996 -0.0991 -0.1112  0.0030
   47RES   C23419646   4.624   5.293   0.875  0.3511 -0.0351 -0.3745
   47RES   C23519647   4.546   5.284   0.738 -0.0790  0.1155 -0.3797
   47RES   C23619648   4.508   5.144   0.704 -0.1133 -0.1867 -0.7785
   47RES   C23719649   4.444   5.129   0.563  0.8950  0.7167 -0.3404
   47RES   C23819650   4.431   4.984   0.512  0.1069 -0.3854 -0.8828
   47RES   C23919651   4.413   4.961   0.362 -0.2649  0.9812  0.5225
   47RES   H24019652   4.464   5.306   1.018 -1.3421 -0.7932 -2.0860
   47RES   H24119653   4.501   5.136   0.979  0.3779 -0.2381 -0.4564
   47RES   H24219654   4.719   5.243   0.856  0.8444  1.4757 -2.1101
   47RES   H24319655   4.601   5.320   0.652 -0.7742  1.9124 -0.0925
   47RES   H24419656   4.454   5.341   0.744 -0.2627 -0.0371 -1.7269
   47RES   H24519657   4.442   5.115   0.786  0.4276 -1.3527 -0.7519
   47RES   H24619658   4.600   5.088   0.716 -0.3126 -1.0040 -2.9024
   47RES   H24719659   4.515   5.181   0.499  3.5210 -0.1880  1.7292
   47RES   H24819660   4.346   5.177   0.560 -0.0829 -1.1682  0.6544
   47RES   H24919661   4.518   4.924   0.541  0.3450  0.4726  0.1883
   47RES   H25019662   4.348   4.942   0.569 -0.0523 -0.8642 -1.4582
   47RES   H25119663   4.439   4.857   0.341 -0.5640  0.4285  2.7192
   47RES   H25219664   4.320   4.978   0.308 -0.0514  1.6923  0.3717
   47RES   H25319665   4.501   5.011   0.321  0.4593 -0.9018 -0.2798
   47RES   C25419666   4.640   5.448   0.897 -0.1545  0.3801  0.5172
   47RES   C25519667   4.759   5.517   0.817 -0.5860 -0.7326 -0.3857
   47RES   C25619668   4.903   5.465   0.860 -0.1625 -0.2553  0.1282
   47RES   C25719669   4.943   5.476   1.004  0.2240 -0.3613  0.5211
   47RES   C25819670   5.079   5.416   1.042  0.3443 -0.0624  0.2141
   47RES   C25919671   5.120   5.449   1.189 -1.1237 -0.0160  0.7505
   47RES   C26019672   5.272   5.438   1.202  0.2690  0.0687  0.4617
   47RES   H26119673   4.651   5.475   1.002 -1.8883 -1.1081  1.1062
   47RES   H26219674   4.542   5.492   0.880 -0.9913 -1.2168  1.0487
   47RES   H26319675   4.757   5.498   0.710  1.5971 -0.8939 -0.4046
   47RES   H26419676   4.976   5.518   0.800 -1.4266  1.2471 -0.1262
   47RES   H26519677   4.898   5.362   0.826 -1.2671 -0.3907  0.6762
   47RES   H26619678   4.933   5.580   1.034 -0.2848 -0.4364  0.6273
   47RES   H26719679   4.872   5.415   1.060  0.8425 -1.6527 -0.0736
   47RES   H26819680   5.156   5.456   0.977 -0.1060 -1.9988 -1.5711
   47RES   H26919681   5.074   5.308   1.025  1.2927  0.0022 -0.5026
   47RES   H27019682   5.084   5.549   1.212 -2.3349 -0.6430  1.6683
   47RES   H27119683   5.068   5.376   1.251 -0.4571  0.2853  1.6815
   47RES   H27219684   5.295   5.439   1.309 -0.5180  0.0718  0.6344
   47RES   H27319685   5.317   5.354   1.149  0.9609  1.4049 -1.1222
   47RES   H27419686   5.323   5.528   1.166  0.5805 -0.3124 -0.0493
   47RES   C27519687   4.746   5.670   0.829  0.1627  0.0850 -0.0340
   47RES   C27619688   4.621   5.718   0.757 -0.1986  0.4393 -0.1967
   47RES   C27719689   4.648   5.829   0.648 -0.2458 -0.2122 -0.4038
   47RES   C27819690   4.757   5.791   0.547  0.2968 -0.1288 -0.3626
   47RES   C27919691   4.742   5.863   0.415  0.3115  0.4748  0.3775
   47RES   C28019692   4.835   5.813   0.312 -0.7345 -0.0811  0.5242
   47RES   C28119693   4.804   5.850   0.162  0.0310  0.0971 -0.0436
   47RES   H28219694   4.836   5.699   0.775  0.8924  1.8008  2.0473
   47RES   H28319695   4.752   5.709   0.930 -0.6498 -1.2214  0.5425
   47RES   H28419696   4.571   5.639   0.702  0.8420 -0.7106  0.4858
   47RES   H28519697   4.557   5.848   0.592 -1.3307  0.3000  1.4762
   47RES   H28619698   4.665   5.930   0.683 -0.2501 -0.0459 -0.8869
   47RES   H28719699   4.756   5.683   0.532  3.2627 -0.2653  0.1939
   47RES   H28819700   4.855   5.813   0.589 -0.4344 -0.3021  1.4943
   47RES   H28919701   4.757   5.969   0.436 -1.2190  0.8917 -0.5452
   47RES   H29019702   4.639   5.862   0.378  0.5225  0.4158 -0.2053
   47RES   H29119703   4.925   5.867   0.341 -1.2122  0.8172  0.3706
   47RES   H29219704   4.848   5.705   0.320 -1.7446 -0.4992 -2.9301
   47RES   H29319705   4.805   5.958   0.150 -2.3232  0.1100 -0.3381
   47RES   H29419706   4.716   5.808   0.114  1.7666 -0.4704 -2.8075
   47RES   H29519707   4.889   5.808   0.108  0.3614 -0.8287  1.1677
   47RES   C29619708   4.520   5.776   0.862 -0.4292 -0.7900 -0.7039
   47RES   C29719709   4.380   5.825   0.811 -0.1807 -0.7619 -0.0640
   47RES   C29819710   4.333   5.958   0.885  0.1354 -0.1464  0.1219
   47RES   C29919711   4.307   5.960   1.039  0.3574 -0.5560  0.2666
   47RES   C30019712   4.285   6.104   1.092 -0.2131 -0.6432 -0.2343
   47RES   C30119713   4.419   6.177   1.116  0.4237 -0.4195  0.5741
   47RES   C30219714   4.399   6.286   1.219  0.3865 -0.1433  0.3319
   47RES   H30319715   4.498   5.704   0.941  1.1722 -0.6166 -0.0764
   47RES   H30419716   4.564   5.848   0.931 -0.7980 -1.0153 -0.2259
   47RES   H30519717   4.374   5.844   0.704  1.8922 -0.8194 -0.1988
   47RES   H30619718   4.417   6.021   0.855  1.0330 -1.0357  0.7094
   47RES   H30719719   4.243   5.989   0.833 -0.1035 -1.2739 -0.1504
   47RES   H30819720   4.386   5.917   1.101  1.4286 -0.1013 -0.7694
   47RES   H30919721   4.223   5.891   1.051  0.0068  0.2347  2.6262
   47RES   H31019722   4.241   6.087   1.190  1.2955  0.5842  0.6793
   47RES   H31119723   4.227   6.170   1.028  0.3423 -1.7364 -1.9165
   47RES   H31219724   4.499   6.108   1.140  1.6768  0.4312 -1.0709
   47RES   H31319725   4.451   6.227   1.025 -0.4172  2.5408  1.8203
   47RES   H31419726   4.348   6.259   1.311  0.8696  2.7750  1.5213
   47RES   H31519727   4.490   6.341   1.245 -0.4472  2.7203 -2.3861
   47RES   H31619728   4.335   6.364   1.177  3.0303  0.9724 -1.7264
   47RES   C31719729   4.265   5.720   0.831 -0.8365  0.3848  0.0029
   47RES   C31819730   4.253   5.610   0.731 -0.2791  0.1930  0.3816
   47RES   C31919731   4.182   5.487   0.810 -0.3812 -0.3963 -0.6580
   47RES   C32019732   4.137   5.355   0.733  0.2949  0.0234 -0.6391
   47RES   C32119733   4.146   5.227   0.823  0.2038  0.5964 -0.0622
   47RES   C32219734   4.110   5.101   0.755 -0.4040 -0.0670 -0.9410
   47RES   C32319735   4.130   4.983   0.857 -0.5245 -0.4986 -0.5491
   47RES   H32419736   4.164   5.762   0.840 -0.5967  1.1643 -0.7835
   47RES   H32519737   4.282   5.675   0.929  2.3127 -0.4910 -0.8973
   47RES   H32619738   4.351   5.569   0.708 -1.2601 -3.3182  2.2089
   47RES   H32719739   4.089   5.528   0.850 -0.1122  1.2963 -1.7110
   47RES   H32819740   4.241   5.461   0.897 -1.9340  0.2608  0.6148
   47RES   H32919741   4.191   5.344   0.639  2.1296 -2.2943  0.6476
   47RES   H33019742   4.040   5.381   0.690  0.1702 -0.6162 -0.7509
   47RES   H33119743   4.084   5.235   0.912  2.0205  0.9972  1.1878
   47RES   H33219744   4.245   5.222   0.869 -0.2555 -1.7207  0.7151
   47RES   H33319745   4.176   5.078   0.671  1.0998 -0.8131  0.4099
   47RES   H33419746   4.005   5.103   0.726 -1.0236  0.4576  1.2444
   47RES   H33519747   4.236   4.966   0.873  0.0496  4.0648  1.3758
   47RES   H33619748   4.089   4.891   0.817  0.1449 -1.0573  0.0403
   47RES   H33719749   4.096   5.015   0.955 -1.7399  1.2763 -1.5150
   47RES   C33819750   4.181   5.639   0.594 -0.1872 -0.5803 -0.3398
   47RES   C33919751   4.235   5.574   0.460  0.7582 -0.3140  0.0201
   47RES   C34019752   4.370   5.641   0.420  0.2938  1.3440 -0.0537
   47RES   C34119753   4.495   5.554   0.403  0.4033 -0.6464 -0.8705
   47RES   C34219754   4.475   5.454   0.290 -0.2608  0.0582  0.0968
   47RES   C34319755   4.611   5.374   0.264 -0.1138 -0.2803 -0.5345
   47RES   C34419756   4.702   5.456   0.176  0.0331 -0.0200  0.5801
   47RES   H34519757   4.172   5.747   0.581 -0.6984 -0.5544  0.2242
   47RES   H34619758   4.082   5.599   0.615  0.1079 -1.4342 -0.5838
   47RES   H34719759   4.259   5.469   0.477  3.6760 -0.2020 -2.9534
   47RES   H34819760   4.370   5.697   0.326  0.5905  2.1986  0.4605
   47RES   H34919761   4.395   5.706   0.503  1.4626  1.4579 -0.4889
   47RES   H35019762   4.507   5.512   0.503  2.2275  2.0399  0.0948
   47RES   H35119763   4.580   5.620   0.390 -0.2966 -0.0478 -2.5802
   47RES   H35219764   4.400   5.389   0.335 -0.0935 -0.8179 -0.8537
   47RES   H35319765   4.430   5.494   0.199 -2.3681  0.3050  1.2182
   47RES   H35419766   4.653   5.347   0.361 -0.8893 -1.1531 -0.4365
   47RES   H35519767   4.600   5.280   0.210  0.0397  0.1740 -1.3589
   47RES   H35619768   4.643   5.470   0.085 -0.4899 -2.4950  0.5082
   47RES   H35719769   4.794   5.400   0.159 -0.5800 -1.4088  1.7602
   47RES   H35819770   4.731   5.555   0.212  0.8031 -0.8174  2.1750
   47RES   C35919771   4.149   5.601   0.329 -0.0046  0.3691 -0.0748
   47RES   C36019772   4.011   5.529   0.339 -0.2320 -0.0865  0.1142
   47RES   C36119773   3.905   5.619   0.264  0.0135  0.1117  0.1718
   47RES   C36219774   3.830   5.720   0.348 -0.4239 -0.6096  0.0865
   47RES   C36319775   3.708   5.758   0.273 -0.0488  0.3766 -0.7150
   47RES   C36419776   3.598   5.832   0.355  0.5086 -0.1463 -0.2957
   47RES   C36519777   3.638   5.974   0.401 -0.2085 -0.4466 -0.1129
   47RES   H36619778   4.202   5.597   0.233 -1.9024  1.0599 -1.1618
   47RES   H36719779   4.113   5.703   0.332  0.3049  0.5298 -1.3680
   47RES   H36819780   3.970   5.536   0.440 -0.2149 -1.8835  0.2596
   47RES   H36919781   3.940   5.664   0.172 -0.9158 -1.2652 -0.8855
   47RES   H37019782   3.828   5.548   0.231 -0.2292  0.1930  0.5510
   47RES   H37119783   3.798   5.667   0.438 -1.6073 -0.2651 -0.1284
   47RES   H37219784   3.896   5.805   0.368  1.2012 -1.6792 -0.5978
   47RES   H37319785   3.739   5.813   0.184 -0.3812 -0.8648 -1.6084
   47RES   H37419786   3.653   5.670   0.239  2.8395 -1.9034  0.4074
   47RES   H37519787   3.500   5.841   0.307  0.2287  1.6792  0.5556
   47RES   H37619788   3.569   5.771   0.440 -1.1657  2.8607  1.4205
   47RES   H37719789   3.676   6.029   0.315  0.3455 -0.3595  0.1818
   47RES   H37819790   3.558   6.036   0.443  0.3445 -0.3277  0.7879
   47RES   H37919791   3.718   5.984   0.475 -0.7049  0.3431  0.3217
   47RES   C38019792   4.014   5.376   0.279  0.1104 -0.7149  0.4018
   47RES   C38119793   3.940   5.271   0.368  0.1823  0.5633  0.8145
   47RES   C38219794   3.792   5.299   0.390 -0.4276 -0.0500  0.1859
   47RES   C38319795   3.723   5.211   0.494  0.3088 -0.0581 -0.1947
   47RES   C38419796   3.576   5.251   0.518 -0.2359 -0.1631  0.2827
   47RES   C38519797   3.519   5.193   0.653  0.0058 -0.1107 -0.0808
   47RES   C38619798   3.478   5.044   0.643  0.2044  0.3027  0.1432
   47RES   H38719799   3.974   5.360   0.179 -1.0490 -1.6174  1.0016
   47RES   H38819800   4.118   5.344   0.275 -0.1512 -1.4374 -0.5170
   47RES   H38919801   3.981   5.285   0.468  0.3349  1.0605  0.6818
   47RES   H39019802   3.742   5.273   0.296  0.3919  0.0747 -0.2856
   47RES   H39119803   3.777   5.402   0.422  1.4112  0.3617 -0.2143
   47RES   H39219804   3.732   5.106   0.466 -1.4077  0.4497 -2.7521
   47RES   H39319805   3.779   5.220   0.588 -1.1116  0.8196  0.5833
   47RES   H39419806   3.575   5.360   0.525 -0.2229 -0.1408 -0.0775
   47RES   H39519807   3.525   5.233   0.424 -0.2690  2.7981 -0.2997
   47RES   H39619808   3.432   5.258   0.666 -0.1943 -0.6524  1.4663
   47RES   H39719809   3.590   5.214   0.733 -0.3532 -0.1202  0.2447
   47RES   H39819810   3.448   5.009   0.742  0.6155  1.4557  0.6805
   47RES   H39919811   3.566   4.984   0.620 -0.3675  0.2520 -2.0158
   47RES   H40019812   3.413   5.019   0.560  2.3550 -0.7651 -1.2646
   47RES   C40119813   3.975   5.121   0.334 -0.8097  0.0361 -1.0092
   47RES   C40219814   3.931   5.063   0.198 -0.0101  0.0027 -1.4519
   47RES   C40319815   3.998   4.923   0.182 -0.1197 -0.9412  0.2236
   47RES   C40419816   3.948   4.831   0.063  0.8015  0.3267 -0.0014
   47RES   C40519817   4.032   4.703   0.043 -0.4845  0.2079 -0.1888
   47RES   C40619818   4.047   4.610   0.158  0.6688  0.7082  0.0175
   47RES   C40719819   4.089   4.471   0.111 -0.3131  0.3451 -0.5774
   47RES   H40819820   3.951   5.054   0.417  2.5612 -0.8634 -0.6755
   47RES   H40919821   4.084   5.124   0.330 -0.7143  2.9306  2.0108
   47RES   H41019822   3.944   5.134   0.116 -1.4579  1.1019 -0.7456
   47RES   H41119823   3.972   4.872   0.275 -0.8925  0.1885  0.6363
   47RES   H41219824   4.107   4.924   0.187 -0.1995  0.9716  3.2488
   47RES   H41319825   3.943   4.882   7.693  1.9934  0.5918  0.0671
   47RES   H41419826   3.849   4.797   0.092  1.1893 -0.0468  0.8967
   47RES   H41519827   4.002   4.656   7.676  0.2118  0.8466 -0.7296
   47RES   H41619828   4.130   4.740   0.014 -0.8399  1.3608  0.0801
   47RES   H41719829   4.123   4.648   0.226  0.4167 -0.3042  0.8796
   47RES   H41819830   3.966   4.600   0.231  0.6747  0.2307 -0.0337
   47RES   H41919831   4.008   4.408   0.074  0.1847  0.1920 -1.4337
   47RES   H42019832   4.137   4.416   0.192  0.1740  0.2323 -0.9382
   47RES   H42119833   4.181   4.470   0.051  0.0367  1.6714 -0.0669
   47RES   H42219834   3.823   5.049   0.201 -0.1349  1.2175  1.2238
   48RES     C119835   4.869   5.461   5.273 -0.6710 -0.1998  0.0865
   48RES     C219836   4.785   5.365   5.188 -0.0056  0.0849 -0.4523
   48RES     C319837   4.644   5.394   5.226 -0.3397 -0.5029 -0.2685
   48RES     C419838   4.537   5.302   5.164 -0.3484 -0.1763 -0.6209
   48RES     C519839   4.403   5.376   5.182 -0.2517  0.0722 -0.2782
   48RES     C619840   4.280   5.277   5.166 -0.3954 -0.4939  0.4768
   48RES     C719841   4.284   5.219   5.024  0.1361 -0.3814  0.2824
   48RES     H819842   4.977   5.456   5.264 -0.6405 -0.7974  0.7352
   48RES     H919843   4.866   5.450   5.381 -2.4212  3.0120  0.4297
   48RES    H1019844   4.806   5.384   5.083 -0.8633 -0.1873 -0.6753
   48RES    H1119845   4.632   5.404   5.334 -2.9722  2.1932 -0.7385
   48RES    H1219846   4.618   5.486   5.173 -1.6329 -0.5951  0.1990
   48RES    H1319847   4.564   5.281   5.061 -2.1699 -0.8472 -0.9776
   48RES    H1419848   4.532   5.206   5.216  0.6557 -0.2808 -0.7118
   48RES    H1519849   4.394   5.456   5.109 -1.8670  2.2577  2.2182
   48RES    H1619850   4.397   5.421   5.281 -1.6963  1.0707 -0.8032
   48RES    H1719851   4.187   5.331   5.183 -0.2838  0.0987 -0.7391
   48RES    H1819852   4.279   5.203   5.247 -3.5712 -1.0699 -0.0593
   48RES    H1919853   4.284   5.301   4.952  1.5363 -1.3390 -0.8244
   48RES    H2019854   4.196   5.159   5.001  0.9720 -1.3527 -0.3780
   48RES    H2119855   4.368   5.159   4.989 -0.4979 -0.9695 -0.2611
   48RES    H2219856   4.846   5.567   5.260 -1.1824 -0.4746 -1.3622
   48RES    C2319857   4.832   5.218   5.224  0.4780 -0.5986  0.3396
   48RES    C2419858   4.982   5.173   5.201 -0.2101 -0.4059  0.4299
   48RES    C2519859   5.050   5.217   5.066 -0.2311 -0.5568 -0.2041
   48RES    C2619860   4.975   5.184   4.935  0.2481  0.1187  0.4889
   48RES    C2719861   4.981   5.030   4.890  0.0522  0.1459 -0.1871
   48RES    C2819862   4.905   5.011   4.757 -0.0253  0.0554 -0.2261
   48RES    C2919863   4.890   4.868   4.713  0.1936 -0.2179 -0.1667
   48RES    H3019864   4.808   5.187   5.326 -1.5872  0.1354  0.1120
   48RES    H3119865   4.784   5.151   5.153 -0.3812 -1.2272  1.4744
   48RES    H3219866   5.037   5.236   5.271 -0.9546  0.5382  0.1788
   48RES    H3319867   5.143   5.160   5.065 -0.4702 -0.9397 -1.6026
   48RES    H3419868   5.073   5.323   5.079 -1.9550 -0.2357  0.3595
   48RES    H3519869   5.033   5.243   4.865 -0.4351 -0.5384 -0.6430
   48RES    H3619870   4.873   5.220   4.935  0.5137  0.8769  0.8704
   48RES    H3719871   4.925   4.975   4.965 -0.8798 -0.1810 -1.1230
   48RES    H3819872   5.088   5.005   4.891  0.1246  0.3710 -1.7510
   48RES    H3919873   4.958   5.078   4.689 -0.0790 -1.2366 -1.5519
   48RES    H4019874   4.808   5.058   4.773 -1.0480 -2.4157  1.1301
   48RES    H4119875   4.840   4.860   4.616 -1.2473 -1.1579  0.6268
   48RES    H4219876   4.983   4.813   4.699  0.1391 -0.5370  0.6771
   48RES    H4319877   4.829   4.816   4.787  0.6090 -0.4541  0.0131
   48RES    C4419878   5.009   5.028   5.250 -0.3269 -0.2732 -0.1492
   48RES    C4519879   5.098   5.022   5.378  0.6228  0.6452  0.4135
   48RES    C4619880   5.120   4.870   5.413  0.2026  0.3764 -0.0878
   48RES    C4719881   4.996   4.804   5.484  0.9218 -0.1279  0.5446
   48RES    C4819882   5.016   4.655   5.533  0.7201 -0.4609  0.0037
   48RES    C4919883   5.118   4.636   5.641 -0.0239 -0.2170  0.4155
   48RES    C5019884   5.138   4.487   5.680  0.0077  0.7827  0.5180
   48RES    H5119885   5.057   4.972   5.169  0.0856 -0.5784  0.2978
   48RES    H5219886   4.914   4.981   5.275  0.0774 -0.1579  1.6943
   48RES    H5319887   5.034   5.058   5.458  0.6025  0.7286  0.3590
   48RES    H5419888   5.209   4.869   5.476 -1.2106 -1.4254  1.9333
   48RES    H5519889   5.149   4.805   5.330 -1.0880  0.8491 -0.9321
   48RES    H5619890   4.966   4.869   5.566 -2.0419 -0.2353 -0.3872
   48RES    H5719891   4.906   4.797   5.422 -0.2818  1.7778  2.0059
   48RES    H5819892   5.032   4.589   5.448 -0.1126  0.8009 -1.1532
   48RES    H5919893   4.920   4.612   5.562  0.7056 -0.0350  0.5932
   48RES    H6019894   5.089   4.694   5.729 -1.0946  0.0722 -0.1194
   48RES    H6119895   5.213   4.670   5.602 -0.8286  2.0443  0.3585
   48RES    H6219896   5.215   4.484   5.757  1.2121  0.7686 -0.6643
   48RES    H6319897   5.165   4.429   5.591 -1.0828  3.7422 -1.8064
   48RES    H6419898   5.046   4.448   5.724 -0.4320  1.7481  0.4706
   48RES    C6519899   5.229   5.110   5.369 -0.1369 -0.0110 -0.0678
   48RES    C6619900   5.239   5.224   5.475  0.7980  0.0116 -0.1839
   48RES    C6719901   5.348   5.327   5.447 -0.0866 -0.2230 -0.0453
   48RES    C6819902   5.342   5.404   5.317  0.2112 -0.0663  0.8491
   48RES    C6919903   5.425   5.533   5.306  0.6640 -0.2100  0.2426
   48RES    C7019904   5.575   5.501   5.298  0.9460 -0.2641 -0.8316
   48RES    C7119905   5.647   5.636   5.294 -0.0430 -0.4116  0.9011
   48RES    H7219906   5.313   5.041   5.375  0.0953  0.3568  1.0757
   48RES    H7319907   5.239   5.171   5.279  3.0663 -4.1592 -2.7605
   48RES    H7419908   5.139   5.266   5.465  0.4798 -0.7524 -0.2782
   48RES    H7519909   5.333   5.404   5.523 -0.6362 -1.3123  0.9753
   48RES    H7619910   5.444   5.278   5.463 -1.0330 -2.1217  0.0042
   48RES    H7719911   5.363   5.338   5.232 -0.9396 -0.1563  0.6285
   48RES    H7819912   5.240   5.438   5.298  0.3652  1.2805  2.3086
   48RES    H7919913   5.400   5.591   5.218 -0.6889  0.8185  1.2727
   48RES    H8019914   5.407   5.587   5.399  1.6452  2.0745 -0.8710
   48RES    H8119915   5.600   5.443   5.209 -0.4934 -1.8991 -0.1923
   48RES    H8219916   5.612   5.448   5.385 -1.9990  0.9703  1.2740
   48RES    H8319917   5.604   5.694   5.214 -0.6599 -0.2729  1.3309
   48RES    H8419918   5.644   5.696   5.385 -1.0289  1.8062 -0.5792
   48RES    H8519919   5.752   5.613   5.272 -0.1947  1.3425 -1.8605
   48RES    C8619920   5.266   5.166   5.620  0.5899  0.1343 -0.0860
   48RES    C8719921   5.171   5.226   5.721  0.5541  0.6020  0.0308
   48RES    C8819922   5.028   5.170   5.727  0.0186  0.3271 -0.2910
   48RES    C8919923   4.921   5.277   5.772 -0.2103  0.5181 -0.1753
   48RES    C9019924   4.796   5.190   5.793 -0.5938 -0.1952  0.2984
   48RES    C9119925   4.684   5.271   5.857 -0.0634 -0.1424  0.6001
   48RES    C9219926   4.570   5.184   5.902 -1.2687 -0.4847  0.3217
   48RES    H9319927   5.284   5.058   5.620  0.1038  0.0502 -0.2915
   48RES    H9419928   5.356   5.210   5.662  0.6120 -1.5332  1.6981
   48RES    H9519929   5.155   5.331   5.696 -2.2732  0.4294  0.9455
   48RES    H9619930   4.999   5.151   5.624 -3.0636 -0.5137  0.6668
   48RES    H9719931   5.034   5.075   5.780  1.0823 -0.7968 -2.3939
   48RES    H9819932   4.956   5.333   5.858 -0.5801  1.8719 -0.9003
   48RES    H9919933   4.905   5.346   5.689 -0.0752 -0.2303 -0.8319
   48RES   H10019934   4.814   5.102   5.854  0.4671 -0.7668 -0.8193
   48RES   H10119935   4.779   5.139   5.698  2.7427  0.5037 -0.7374
   48RES   H10219936   4.731   5.327   5.937  1.8470 -1.2062  0.2638
   48RES   H10319937   4.637   5.344   5.791 -0.8941 -3.2487 -2.4195
   48RES   H10419938   4.515   5.147   5.815 -0.7975  2.5594 -1.3164
   48RES   H10519939   4.503   5.236   5.970  0.3661  2.2686 -0.1097
   48RES   H10619940   4.613   5.093   5.945 -0.4355 -0.9930 -1.5244
   48RES   C10719941   5.237   5.224   5.871 -0.1020 -0.4815  0.7393
   48RES   C10819942   5.373   5.293   5.905  0.1971 -0.5808 -0.0066
   48RES   C10919943   5.370   5.440   5.855 -0.0880 -0.8794 -0.2302
   48RES   C11019944   5.515   5.512   5.841 -0.0750  0.3659 -0.2590
   48RES   C11119945   5.592   5.458   5.720  0.3077  0.3863  0.1303
   48RES   C11219946   5.721   5.541   5.701 -0.5608 -0.0040  0.0790
   48RES   C11319947   5.823   5.487   5.597  0.1914 -0.3636  0.1443
   48RES   H11419948   5.236   5.117   5.892 -1.4913 -0.9349 -1.4250
   48RES   H11519949   5.167   5.257   5.947  1.6285  1.2579  1.6044
   48RES   H11619950   5.455   5.248   5.849 -1.6147 -3.2214 -0.5899
   48RES   H11719951   5.317   5.487   5.937  3.7089  1.5027  1.0306
   48RES   H11819952   5.323   5.452   5.757  2.2498  1.6881 -1.1092
   48RES   H11919953   5.491   5.619   5.838 -0.0712  0.4611  2.0780
   48RES   H12019954   5.590   5.499   5.920  0.7520  1.7228 -0.8035
   48RES   H12119955   5.531   5.431   5.633  1.3626 -1.2003 -0.1518
   48RES   H12219956   5.622   5.360   5.758 -2.4403  0.3514  2.3311
   48RES   H12319957   5.676   5.634   5.666 -2.1750 -1.4341 -1.7378
   48RES   H12419958   5.776   5.567   5.792  0.2805 -1.4210 -0.0173
   48RES   H12519959   5.772   5.483   5.501  0.3268  2.7698 -0.1191
   48RES   H12619960   5.904   5.553   5.565 -0.3110 -0.6983 -1.9011
   48RES   H12719961   5.848   5.384   5.623 -0.8841 -0.4293  0.9732
   48RES   C12819962   5.401   5.303   6.060 -0.7368  0.4568  0.4510
   48RES   C12919963   5.438   5.160   6.115 -0.1801 -1.3414 -1.3417
   48RES   C13019964   5.335   5.121   6.223  0.2701 -0.4645  0.7164
   48RES   C13119965   5.187   5.114   6.178 -0.2664  0.3859  0.5189
   48RES   C13219966   5.084   5.064   6.277 -0.5850  0.2168  0.5386
   48RES   C13319967   4.944   5.078   6.216  0.0876 -0.0957  0.5548
   48RES   C13419968   4.893   5.222   6.223  0.3480 -0.0399 -0.4681
   48RES   H13519969   5.492   5.361   6.074  1.1833 -2.7318  1.7203
   48RES   H13619970   5.319   5.339   6.123 -2.7140 -2.2178 -0.4658
   48RES   H13719971   5.423   5.094   6.029  1.5974 -1.8132 -1.3108
   48RES   H13819972   5.338   5.185   6.311 -0.2042 -0.1990  0.5449
   48RES   H13919973   5.346   5.019   6.258 -0.8079 -0.0121  2.4704
   48RES   H14019974   5.176   5.059   6.085  0.3737  1.4075 -0.1633
   48RES   H14119975   5.149   5.216   6.171 -0.2872  0.3647  0.3331
   48RES   H14219976   5.098   5.118   6.371 -1.4439  0.6550  0.4181
   48RES   H14319977   5.111   4.961   6.299  0.8544  0.9143  2.1626
   48RES   H14419978   4.883   5.022   6.285 -0.2362 -1.9856 -1.2132
   48RES   H14519979   4.942   5.034   6.116 -1.9953 -2.2594  1.5302
   48RES   H14619980   4.915   5.255   6.325 -0.7511 -1.1011  0.1243
   48RES   H14719981   4.785   5.211   6.212  0.3848 -1.1542  0.2067
   48RES   H14819982   4.919   5.288   6.140 -0.1157 -1.5730 -1.8417
   48RES   C14919983   5.592   5.152   6.152 -0.5599 -0.0280  0.0546
   48RES   C15019984   5.646   5.028   6.226  0.2420  0.0997 -0.2558
   48RES   C15119985   5.788   5.047   6.282 -0.5728  0.0526  0.6365
   48RES   C15219986   5.806   5.152   6.399 -0.5782  0.2923 -0.2660
   48RES   C15319987   5.711   5.110   6.514 -0.2666  0.2138  0.5667
   48RES   C15419988   5.710   5.208   6.630  0.2819  0.0873  0.5927
   48RES   C15519989   5.616   5.155   6.740 -0.5282 -0.4307 -0.6425
   48RES   H15619990   5.648   5.181   6.063  0.3514  1.1007  0.9783
   48RES   H15719991   5.617   5.229   6.225  0.5967 -0.3672  0.0276
   48RES   H15819992   5.576   5.004   6.306  0.3317 -1.6171 -0.6538
   48RES   H15919993   5.829   4.953   6.318  0.4994 -0.9473 -2.9501
   48RES   H16019994   5.858   5.077   6.203  1.0778 -2.2645  1.1722
   48RES   H16119995   5.771   5.252   6.373  0.2804  0.8581  0.7074
   48RES   H16219996   5.909   5.169   6.429 -0.8201  1.2701  0.0273
   48RES   H16319997   5.744   5.012   6.549  0.2441  0.0556 -0.3281
   48RES   H16419998   5.608   5.089   6.486 -0.0655 -0.4462  0.3143
   48RES   H16519999   5.661   5.299   6.593 -1.0860 -1.2587 -0.9705
   48RES   H16620000   5.806   5.234   6.674  1.6079 -0.8916 -1.6442
   48RES   H16720001   5.522   5.204   6.717  0.5225  1.2852 -1.3821
   48RES   H16820002   5.656   5.199   6.831  0.3909  1.3952 -1.8987
   48RES   H16920003   5.614   5.046   6.745 -0.1132 -0.4811 -1.4984
   48RES   C17020004   5.640   4.896   6.142  0.1290  0.7953 -0.1802
   48RES   C17120005   5.650   4.763   6.219 -0.6349 -0.2765  0.6837
   48RES   C17220006   5.517   4.718   6.297  0.0037 -0.2623 -0.2520
   48RES   C17320007   5.541   4.617   6.410  0.1332 -0.5744  0.6124
   48RES   C17420008   5.652   4.649   6.514  0.0485  0.2001 -0.6240
   48RES   C17520009   5.661   4.559   6.644  0.2860 -0.4885 -0.0451
   48RES   C17620010   5.750   4.432   6.620  0.4811  0.2600 -0.4258
   48RES   H17720011   5.728   4.896   6.078 -0.0437  1.8093 -0.4244
   48RES   H17820012   5.570   4.878   6.060  0.6260  0.6443 -0.5748
   48RES   H17920013   5.723   4.773   6.299  1.6080  2.1675 -1.5666
   48RES   H18020014   5.444   4.674   6.229 -0.3987 -1.0525  0.6836
   48RES   H18120015   5.478   4.808   6.346 -0.3487 -0.7334  0.3402
   48RES   H18220016   5.552   4.521   6.360 -4.4460 -0.4178 -0.9248
   48RES   H18320017   5.444   4.607   6.459 -1.2586  0.0127 -1.9528
   48RES   H18420018   5.640   4.750   6.553 -1.4678 -0.2336  0.0735
   48RES   H18520019   5.755   4.638   6.478  1.2346 -1.8136  3.1281
   48RES   H18620020   5.558   4.526   6.661  0.4557 -0.9332  0.1482
   48RES   H18720021   5.683   4.612   6.736  0.8515 -0.5158 -0.1644
   48RES   H18820022   5.855   4.459   6.627  0.5523 -0.0638 -0.2039
   48RES   H18920023   5.728   4.382   6.526  0.5805  1.1778 -0.9397
   48RES   H19020024   5.727   4.358   6.697  0.8175  0.2068 -0.3779
   48RES   C19120025   5.678   4.640   6.117 -0.3647  0.2434 -0.4992
   48RES   C19220026   5.818   4.631   6.068 -0.3281 -0.1069  0.1375
   48RES   C19320027   5.908   4.600   6.185 -0.0368 -0.8789  0.2010
   48RES   C19420028   5.897   4.453   6.241  0.2517  0.0172  0.5200
   48RES   C19520029   5.991   4.430   6.365  0.6516 -0.5689 -0.3209
   48RES   C19620030   6.138   4.426   6.326 -0.0263 -0.0749  0.2719
   48RES   C19720031   6.242   4.396   6.438  0.0016 -0.3288  0.0907
   48RES   H19820032   5.611   4.661   6.034 -2.3970 -1.2422  0.7254
   48RES   H19920033   5.639   4.543   6.150  2.2871 -0.2325  1.3853
   48RES   H20020034   5.848   4.728   6.030  2.4240 -1.0502 -0.2226
   48RES   H20120035   5.896   4.676   6.262 -1.3235  0.6691 -1.4857
   48RES   H20220036   6.014   4.608   6.161  0.0124  0.0861  0.7029
   48RES   H20320037   5.917   4.378   6.165  1.3162 -0.2016  1.0033
   48RES   H20420038   5.794   4.438   6.275  0.3595  0.1735  0.9120
   48RES   H20520039   5.978   4.513   6.434 -0.2302  0.4851 -1.7451
   48RES   H20620040   5.966   4.341   6.422  0.3342 -0.4330 -0.2513
   48RES   H20720041   6.173   4.521   6.285 -3.4248  0.2820 -1.9737
   48RES   H20820042   6.147   4.347   6.251  0.2593  0.7799 -0.6059
   48RES   H20920043   6.265   4.482   6.501 -1.7672 -0.4915  1.0005
   48RES   H21020044   6.335   4.361   6.395  0.0298  0.9726 -0.9214
   48RES   H21120045   6.200   4.317   6.501  0.6044 -1.6943 -1.2032
   48RES   C21220046   5.846   4.538   5.951  0.3996 -0.1852 -0.2924
   48RES   C21320047   5.988   4.512   5.906 -0.9183 -0.1327  0.2157
   48RES   C21420048   6.007   4.363   5.865  0.0804 -0.7752 -0.1748
   48RES   C21520049   5.909   4.317   5.759 -0.2898 -0.9829  0.0951
   48RES   C21620050   5.932   4.177   5.701  0.2920  0.4973  0.7572
   48RES   C21720051   5.850   4.125   5.581  0.5620  0.8429  0.1308
   48RES   C21820052   5.873   4.188   5.444 -0.7437  0.3491  1.0115
   48RES   H21920053   5.781   4.555   5.865  1.0804 -0.1402 -0.8026
   48RES   H22020054   5.802   4.444   5.986  0.0927  0.7883  2.0621
   48RES   H22120055   6.051   4.523   5.994  1.2625  2.0249 -1.5404
   48RES   H22220056   6.106   4.349   5.822 -0.3722  0.4314 -1.6345
   48RES   H22320057   6.003   4.308   5.959  1.1589  0.4762  0.6193
   48RES   H22420058   5.906   4.392   5.681 -0.8249 -1.4812 -0.3641
   48RES   H22520059   5.806   4.313   5.795 -0.5621  1.0583 -0.4282
   48RES   H22620060   6.035   4.169   5.666  0.4912 -1.3768  1.7072
   48RES   H22720061   5.940   4.102   5.780  0.2143 -0.1856  0.1200
   48RES   H22820062   5.884   4.023   5.561 -0.3573 -0.2861  3.9560
   48RES   H22920063   5.745   4.130   5.607  0.4511 -1.8555  0.3357
   48RES   H23020064   5.975   4.180   5.406 -1.9903  1.1054 -2.7178
   48RES   H23120065   5.848   4.294   5.453 -0.5526  0.2756  2.5623
   48RES   H23220066   5.807   4.135   5.375  2.1871 -0.5982 -1.1422
   48RES   C23320067   6.045   4.615   5.798  0.5805 -0.2694 -0.0444
   48RES   C23420068   6.087   4.752   5.849  0.0525 -0.2283  0.4290
   48RES   C23520069   6.193   4.751   5.954 -0.2788 -0.2595 -0.1399
   48RES   C23620070   6.332   4.709   5.906  0.1493 -0.6275  0.3770
   48RES   C23720071   6.425   4.713   6.025  0.7886 -0.3121  0.4205
   48RES   C23820072   6.581   4.708   5.998  0.0427 -0.5145  0.7894
   48RES   C23920073   6.667   4.750   6.119  0.5259 -0.4304 -0.1043
   48RES   H24020074   5.972   4.616   5.716  0.8622  1.0387 -0.2849
   48RES   H24120075   6.135   4.568   5.759  0.8120 -0.4092  0.6462
   48RES   H24220076   5.994   4.792   5.889 -0.7599  0.0352 -1.6716
   48RES   H24320077   6.174   4.691   6.043 -0.7842 -0.9746 -0.7320
   48RES   H24420078   6.212   4.854   5.986 -0.1263 -0.4719  0.4720
   48RES   H24520079   6.368   4.779   5.831  0.0376 -0.6065  0.3436
   48RES   H24620080   6.332   4.610   5.859 -1.6338 -0.7458  0.6045
   48RES   H24720081   6.395   4.636   6.096 -3.5514  1.7796  1.0095
   48RES   H24820082   6.415   4.812   6.070  2.6749 -0.7764  1.9338
   48RES   H24920083   6.613   4.616   5.949  2.1297  0.1306  0.8953
   48RES   H25020084   6.599   4.783   5.921  1.4080 -0.5834  1.0206
   48RES   H25120085   6.654   4.852   6.154  1.3991  0.1413 -1.4063
   48RES   H25220086   6.654   4.696   6.213 -1.9202 -1.6473 -1.0905
   48RES   H25320087   6.773   4.741   6.094 -0.1984 -0.4714 -3.3672
   48RES   C25420088   6.114   4.840   5.721 -0.1960 -0.0113 -0.7867
   48RES   C25520089   6.144   4.987   5.739  0.3838  0.1548  0.1464
   48RES   C25620090   6.022   5.058   5.809 -0.3987 -0.1705 -0.4014
   48RES   C25720091   6.044   5.198   5.867 -0.0891  0.3950 -0.0565
   48RES   C25820092   5.924   5.252   5.950  0.6711  0.6855 -0.1708
   48RES   C25920093   5.944   5.388   6.006  0.7732 -0.5146 -0.4778
   48RES   C26020094   5.846   5.426   6.115 -0.7042 -0.3049 -0.8578
   48RES   H26120095   6.025   4.837   5.658  0.5533 -0.3225 -1.8441
   48RES   H26220096   6.188   4.784   5.666 -0.3259  0.8870 -1.9026
   48RES   H26320097   6.221   4.995   5.816  1.2100 -3.8094 -0.1377
   48RES   H26420098   5.995   5.002   5.898 -2.9556 -0.8682 -1.5780
   48RES   H26520099   5.926   5.066   5.758  1.2677 -0.4091 -3.7146
   48RES   H26620100   6.130   5.182   5.932  0.5373  2.4763 -0.3357
   48RES   H26720101   6.074   5.276   5.797  0.5209  0.2644  0.0497
   48RES   H26820102   5.891   5.187   6.031  1.5197  0.1302 -0.2579
   48RES   H26920103   5.836   5.250   5.886 -0.0278 -3.0980  0.7890
   48RES   H27020104   6.045   5.390   6.049 -1.1274 -1.5049  4.4279
   48RES   H27120105   5.946   5.461   5.926  0.7390  2.2351  1.9278
   48RES   H27220106   5.746   5.433   6.072 -0.9522  1.3959 -0.0676
   48RES   H27320107   5.848   5.353   6.196  0.7503 -0.5977 -1.1445
   48RES   H27420108   5.879   5.524   6.148  0.5430 -1.2008  0.6178
   48RES   C27520109   6.200   5.054   5.612  0.1759 -0.2089 -0.6775
   48RES   C27620110   6.346   5.025   5.572 -0.2498 -0.0662 -0.2788
   48RES   C27720111   6.453   5.130   5.618  0.0153  0.9551  0.1530
   48RES   C27820112   6.472   5.143   5.775 -0.2223 -0.1015  0.1165
   48RES   C27920113   6.559   5.253   5.821  0.0012  0.4149 -0.5959
   48RES   C28020114   6.703   5.216   5.800  0.4729  0.0361 -0.0022
   48RES   C28120115   6.792   5.348   5.811 -0.1976  0.0106  0.3054
   48RES   H28220116   6.178   5.160   5.619  0.6247 -0.0626 -1.4034
   48RES   H28320117   6.124   5.042   5.535 -0.4051  0.3121 -0.1930
   48RES   H28420118   6.376   4.932   5.620  0.7933 -0.3679 -1.4756
   48RES   H28520119   6.548   5.092   5.583 -0.3568 -1.0950  1.3187
   48RES   H28620120   6.445   5.228   5.569  2.3805  0.4180 -1.3751
   48RES   H28720121   6.514   5.055   5.824  3.4425  1.8023  0.5747
   48RES   H28820122   6.370   5.160   5.808 -0.9979 -2.2977 -1.0744
   48RES   H28920123   6.540   5.299   5.918  2.2150 -0.5669  0.3185
   48RES   H29020124   6.537   5.337   5.754 -1.3438 -0.1497 -0.8937
   48RES   H29120125   6.735   5.145   5.876 -3.1369 -2.7374 -0.9698
   48RES   H29220126   6.724   5.178   5.701 -2.8832  0.2217 -0.8487
   48RES   H29320127   6.772   5.411   5.898 -0.7463  2.2029 -1.3727
   48RES   H29420128   6.770   5.412   5.726  0.4108  2.0088  1.5968
   48RES   H29520129   6.898   5.324   5.802 -0.5006 -0.8060 -1.2082
   48RES   C29620130   6.349   5.000   5.417  0.0758  0.4155 -0.5471
   48RES   C29720131   6.473   4.922   5.362  0.0978  0.0390  0.3408
   48RES   C29820132   6.489   4.934   5.209  0.1757 -0.1204 -0.4062
   48RES   C29920133   6.547   5.064   5.162  0.0790 -0.2218 -1.5953
   48RES   C30020134   6.500   5.113   5.021  0.4028 -0.0376 -0.6006
   48RES   C30120135   6.575   5.243   4.978  0.4965 -0.5788  0.3501
   48RES   C30220136   6.535   5.290   4.840 -0.5592  0.6407 -0.0682
   48RES   H30320137   6.264   4.931   5.408 -0.1611  0.4385  1.3747
   48RES   H30420138   6.328   5.091   5.360  1.4971 -1.3366 -4.0522
   48RES   H30520139   6.555   4.968   5.418 -0.5532  0.7882  0.6898
   48RES   H30620140   6.563   4.862   5.173  1.8100  1.3126  0.0149
   48RES   H30720141   6.391   4.909   5.168  0.5705  0.7510 -1.9375
   48RES   H30820142   6.655   5.052   5.165  0.0507 -0.1592  0.3125
   48RES   H30920143   6.517   5.133   5.241 -1.0770 -0.2620 -1.9845
   48RES   H31020144   6.392   5.132   5.020  0.2272 -0.6912  1.9065
   48RES   H31120145   6.521   5.038   4.945  1.6740 -0.8411  0.5217
   48RES   H31220146   6.553   5.316   5.055 -0.1041 -2.0393  1.5967
   48RES   H31320147   6.683   5.233   4.987  0.7130  1.3376  0.0412
   48RES   H31420148   6.573   5.384   4.801 -1.9109  1.0223 -0.4705
   48RES   H31520149   6.557   5.210   4.768 -2.3589 -0.8540  0.9962
   48RES   H31620150   6.430   5.311   4.820 -0.7359 -0.6937 -0.6185
   48RES   C31720151   6.472   4.774   5.400  0.5456 -0.2647 -0.2973
   48RES   C31820152   6.603   4.688   5.367 -0.2461 -0.6285  0.2764
   48RES   C31920153   6.731   4.756   5.426 -0.3445 -0.5586 -0.3140
   48RES   C32020154   6.732   4.768   5.581  0.0939  0.0610 -0.0299
   48RES   C32120155   6.847   4.851   5.633  0.7136 -0.0212 -0.3789
   48RES   C32220156   6.856   4.861   5.780 -0.4718 -0.4692 -0.1738
   48RES   C32320157   6.959   4.953   5.837  0.4637 -0.4262 -0.5505
   48RES   H32420158   6.382   4.733   5.355  0.0041 -1.1137  1.4746
   48RES   H32520159   6.459   4.763   5.508 -1.8749 -0.7672 -0.6144
   48RES   H32620160   6.611   4.684   5.259 -1.8394  1.5025  0.0518
   48RES   H32720161   6.746   4.855   5.383  1.8426 -0.8213 -0.2110
   48RES   H32820162   6.821   4.708   5.389  0.0650 -2.3315  2.7883
   48RES   H32920163   6.752   4.670   5.624 -0.7833 -0.0538  0.1351
   48RES   H33020164   6.638   4.817   5.606  0.0045 -0.9362  1.6015
   48RES   H33120165   6.822   4.950   5.596 -0.4215 -0.6925 -1.4410
   48RES   H33220166   6.943   4.818   5.594  1.6500 -1.1677  2.7119
   48RES   H33320167   6.882   4.764   5.824  1.1242  0.2667  0.5419
   48RES   H33420168   6.759   4.899   5.813  0.5464  3.1163 -1.1925
   48RES   H33520169   6.954   4.964   5.946 -1.3218  0.5207 -0.7052
   48RES   H33620170   6.945   5.054   5.798 -3.0644 -0.7868 -0.3843
   48RES   H33720171   7.061   4.927   5.810  0.8682  0.3772  0.1540
   48RES   C33820172   6.594   4.542   5.417  0.0444  0.1507  0.4684
   48RES   C33920173   6.712   4.449   5.380 -0.6359 -0.1038 -0.2023
   48RES   C34020174   6.699   4.399   5.237  0.1428  0.5963 -0.0960
   48RES   C34120175   6.833   4.349   5.178  0.0262 -0.5972 -0.0926
   48RES   C34220176   6.818   4.277   5.039 -0.3511 -0.2229 -0.5561
   48RES   C34320177   6.774   4.375   4.930  0.2815  0.1756 -0.4672
   48RES   C34420178   6.769   4.316   4.788  0.3737 -0.0986  0.2151
   48RES   H34520179   6.497   4.504   5.386 -0.8676  1.8808  1.1681
   48RES   H34620180   6.581   4.538   5.525  4.8653 -0.3676  1.1677
   48RES   H34720181   6.803   4.508   5.392 -0.1474 -1.0801  0.9025
   48RES   H34820182   6.626   4.318   5.232  1.0561 -0.3075  0.9870
   48RES   H34920183   6.659   4.481   5.178  0.8948  1.1279  0.1242
   48RES   H35020184   6.881   4.270   5.235  1.3000 -0.7967 -1.3916
   48RES   H35120185   6.908   4.429   5.180 -0.8641  0.2257  0.4710
   48RES   H35220186   6.912   4.232   5.004  0.7681 -0.4066  2.5474
   48RES   H35320187   6.744   4.197   5.042 -0.3266 -0.1951  2.6233
   48RES   H35420188   6.671   4.406   4.947  0.2976  0.8651 -1.5902
   48RES   H35520189   6.844   4.457   4.919  0.1691  0.5985  1.8400
   48RES   H35620190   6.703   4.229   4.780  2.8457 -1.8339 -2.2983
   48RES   H35720191   6.867   4.277   4.762  0.6700  0.4359  0.5425
   48RES   H35820192   6.723   4.390   4.723 -2.3907  1.6951  4.0029
   48RES   C35920193   6.702   4.331   5.481  0.3211  0.4856  0.4905
   48RES   C36020194   6.749   4.356   5.629 -0.4512  0.1935 -0.8656
   48RES   C36120195   6.669   4.263   5.726  0.8572 -0.1244 -0.1478
   48RES   C36220196   6.522   4.284   5.717  0.0679  0.1727 -0.8205
   48RES   C36320197   6.455   4.222   5.837 -0.3953 -0.2716  0.0460
   48RES   C36420198   6.457   4.309   5.961 -0.2615  0.1781 -0.0223
   48RES   C36520199   6.416   4.242   6.089 -0.0426 -0.4721 -0.5345
   48RES   H36620200   6.750   4.246   5.433  0.9733  1.4524 -0.5998
   48RES   H36720201   6.602   4.289   5.471  0.4689  0.5063 -1.3066
   48RES   H36820202   6.721   4.456   5.661 -2.2411 -0.9385  1.2389
   48RES   H36920203   6.683   4.158   5.699 -0.5584  0.1677 -2.1694
   48RES   H37020204   6.716   4.273   5.823 -1.2336  2.4566  0.6512
   48RES   H37120205   6.502   4.391   5.719 -0.8020 -0.0017  2.4685
   48RES   H37220206   6.486   4.234   5.627  0.7318 -0.9421 -0.4858
   48RES   H37320207   6.350   4.198   5.816 -0.7938  1.5265 -0.1323
   48RES   H37420208   6.505   4.131   5.868 -1.2727 -1.0202 -0.6922
   48RES   H37520209   6.561   4.336   5.977 -0.3129 -0.6000  1.6404
   48RES   H37620210   6.401   4.400   5.937 -0.5548  0.1883  0.7003
   48RES   H37720211   6.316   4.202   6.074  0.2309 -0.9090 -1.2047
   48RES   H37820212   6.490   4.168   6.118  0.6529  0.4113 -0.0355
   48RES   H37920213   6.412   4.313   6.171 -0.3702 -0.5265 -0.4997
   48RES   C38020214   6.902   4.335   5.637 -0.4187  0.3178  0.2369
   48RES   C38120215   6.979   4.428   5.729 -0.3524  0.0602  0.3864
   48RES   C38220216   6.940   4.433   5.878  0.1894  0.0719  0.0397
   48RES   C38320217   7.020   4.529   5.963  0.3809  0.4804  0.2929
   48RES   C38420218   7.031   4.496   6.112  0.1767  0.0899  0.0321
   48RES   C38520219   7.126   4.582   6.202  0.6065 -0.0561 -0.1183
   48RES   C38620220   7.084   4.731   6.210  0.2114 -0.0485 -0.0957
   48RES   H38720221   6.920   4.229   5.656 -0.4519  0.4047  0.7850
   48RES   H38820222   6.942   4.336   5.536  0.7391  2.2035  0.6717
   48RES   H38920223   6.951   4.523   5.684 -0.0152  0.1896  0.4504
   48RES   H39020224   6.937   4.331   5.915 -0.5168 -0.1236 -0.5461
   48RES   H39120225   6.836   4.465   5.881  0.5750  1.3302  0.3585
   48RES   H39220226   7.125   4.532   5.932  0.8843  0.1944  1.9289
   48RES   H39320227   6.989   4.632   5.944 -0.6463  0.1902  0.3728
   48RES   H39420228   6.932   4.500   6.156 -0.2623  1.3385 -1.0307
   48RES   H39520229   7.063   4.392   6.120 -1.6381 -0.4770  0.1170
   48RES   H39620230   7.230   4.574   6.172  0.6200  2.2078 -0.8297
   48RES   H39720231   7.116   4.531   6.297  0.5192  0.4197  0.1272
   48RES   H39820232   7.066   4.777   6.113 -2.4509  0.9489  0.8183
   48RES   H39920233   7.161   4.786   6.265 -0.2004  0.0299  0.4008
   48RES   H40020234   6.994   4.736   6.270  1.3618  0.4163  1.6327
   48RES   C40120235   7.132   4.406   5.702 -0.3326 -0.1172 -0.7008
   48RES   C40220236   7.190   4.280   5.761 -0.3763 -0.2511 -0.4706
   48RES   C40320237   7.338   4.265   5.720  0.2352  0.4252  0.1931
   48RES   C40420238   7.415   4.153   5.793  0.0750 -0.1934 -0.0498
   48RES   C40520239   7.341   4.019   5.776 -0.7576  0.3194 -0.3636
   48RES   C40620240   7.426   3.901   5.822  0.5093  0.3244  0.7002
   48RES   C40720241   7.341   3.773   5.839 -0.6146  0.2885  0.5319
   48RES   H40820242   7.192   4.485   5.747 -0.5675 -0.8490  0.9169
   48RES   H40920243   7.142   4.411   5.593  2.0423  2.0006 -0.4234
   48RES   H41020244   7.131   4.192   5.736  0.2966 -0.7740 -0.2273
   48RES   H41120245   7.392   4.360   5.731  1.9737 -0.3504 -1.3092
   48RES   H41220246   7.345   4.244   5.613  0.9596  1.8154 -0.0493
   48RES   H41320247   7.446   4.176   5.895 -1.6578 -0.6426  0.5876
   48RES   H41420248   7.511   4.136   5.744 -0.2032  2.5667 -1.6497
   48RES   H41520249   7.250   4.025   5.835 -1.6461 -0.9239 -1.5947
   48RES   H41620250   7.302   4.002   5.676 -0.0580  1.2704 -0.8120
   48RES   H41720251   7.513   3.879   5.761  0.6254 -1.8456  1.6038
   48RES   H41820252   7.476   3.933   5.914  0.1244  1.5548  0.4939
   48RES   H41920253   7.280   3.752   5.751 -0.6111 -1.0146  0.8210
   48RES   H42020254   7.280   3.781   5.929 -0.3443 -0.0688  0.7492
   48RES   H42120255   7.408   3.688   5.855 -0.6750 -0.2819 -1.9582
   48RES   H42220256   7.191   4.295   5.869 -1.2509 -3.6158  0.0463
   49RES     C120257   5.006   1.958   2.521 -0.5915 -0.2548  0.1415
   49RES     C220258   5.005   1.887   2.663 -0.3798 -0.3228  0.3231
   49RES     C320259   5.012   1.732   2.650  0.1179  0.6524  0.0912
   49RES     C420260   5.119   1.678   2.553  0.1040 -0.0786 -0.2082
   49RES     C520261   5.272   1.716   2.562  0.7099  0.2531  0.7698
   49RES     C620262   5.354   1.655   2.446  0.2731  0.1387 -0.5263
   49RES     C720263   5.383   1.510   2.466 -0.0138  0.5265 -0.2567
   49RES     H820264   5.069   1.908   2.448  0.9614  1.3721  0.3448
   49RES     H920265   5.043   2.060   2.533 -0.2760 -0.6512  2.8468
   49RES    H1020266   5.100   1.924   2.703  0.5178 -1.0224 -1.1022
   49RES    H1120267   5.020   1.690   2.751 -2.8210  1.3662  0.6639
   49RES    H1220268   4.918   1.687   2.619  1.1887 -1.9916  0.5436
   49RES    H1320269   5.114   1.572   2.577  1.0294  0.2360  1.4903
   49RES    H1420270   5.087   1.676   2.449 -1.3868 -2.1919  0.2697
   49RES    H1520271   5.328   1.684   2.650  1.2255 -1.8326 -0.2947
   49RES    H1620272   5.289   1.821   2.539 -0.1639  0.3982  0.7788
   49RES    H1720273   5.451   1.705   2.443  1.0140 -1.1897  0.7129
   49RES    H1820274   5.311   1.672   2.347 -0.6115  0.9358 -0.0133
   49RES    H1920275   5.419   1.483   2.565  3.2973 -0.5563 -1.7198
   49RES    H2020276   5.452   1.479   2.388 -0.2773 -0.0044 -0.2800
   49RES    H2120277   5.288   1.458   2.451  0.4428 -0.6694  0.8854
   49RES    H2220278   4.906   1.947   2.478  0.0246  1.6671 -1.8277
   49RES    C2320279   4.897   1.935   2.756  0.2947 -0.2278  0.5279
   49RES    C2420280   4.866   1.858   2.885 -0.8128  0.4044 -0.2226
   49RES    C2520281   4.731   1.914   2.948  0.0441  0.1322  0.1937
   49RES    C2620282   4.599   1.849   2.907  0.2410  0.2622 -0.0349
   49RES    C2720283   4.465   1.915   2.951 -0.1916 -0.4695 -0.4309
   49RES    C2820284   4.335   1.850   2.900  0.2745 -0.9783  0.5671
   49RES    C2920285   4.205   1.907   2.951  0.4321  0.4628 -0.5582
   49RES    H3020286   4.905   2.040   2.786  0.3620 -0.0890  0.0382
   49RES    H3120287   4.802   1.926   2.702  1.4368  0.0675 -1.5841
   49RES    H3220288   4.842   1.753   2.870 -1.3698  0.7483 -1.9267
   49RES    H3320289   4.733   2.020   2.921  1.0750  0.6772  2.2551
   49RES    H3420290   4.747   1.904   3.056  1.4124  2.0118  0.1884
   49RES    H3520291   4.590   1.743   2.929  1.3853 -0.6514 -3.6615
   49RES    H3620292   4.594   1.842   2.798 -1.4220 -0.0463  0.0571
   49RES    H3720293   4.459   2.021   2.925 -1.5223 -0.6722 -1.0253
   49RES    H3820294   4.477   1.899   3.058  0.0438 -2.7358 -0.7703
   49RES    H3920295   4.334   1.744   2.925 -0.8429 -0.8949  0.9006
   49RES    H4020296   4.336   1.846   2.791 -1.8432  0.9140  0.4373
   49RES    H4120297   4.182   2.011   2.929 -1.2128  0.5078  1.2629
   49RES    H4220298   4.123   1.847   2.912  0.7161  0.4835 -1.2063
   49RES    H4320299   4.203   1.891   3.058 -2.2562 -0.4617 -0.7191
   49RES    C4420300   4.991   1.875   2.982 -0.5257  0.0352 -0.2574
   49RES    C4520301   5.000   1.814   3.124  0.0584 -0.4578 -0.0612
   49RES    C4620302   4.959   1.666   3.132  0.1963  0.1900  0.2395
   49RES    C4720303   4.983   1.604   3.266  0.0201 -0.1829  0.2017
   49RES    C4820304   4.914   1.468   3.285  0.1245  0.5197  0.5796
   49RES    C4920305   4.962   1.359   3.188  0.1307 -0.4221 -0.3954
   49RES    C5020306   4.897   1.223   3.190  0.1869  0.6724  0.0094
   49RES    H5120307   5.010   1.982   2.985  3.6907 -0.5582 -2.1800
   49RES    H5220308   5.077   1.830   2.932 -0.3904  0.2740 -0.2392
   49RES    H5320309   4.929   1.865   3.189  0.8478  0.5568  0.0328
   49RES    H5420310   5.033   1.611   3.074 -0.2764  1.0226 -1.1693
   49RES    H5520311   4.861   1.663   3.085 -0.1588 -2.4810  1.0391
   49RES    H5620312   5.088   1.602   3.296 -0.1292 -0.4971  0.7036
   49RES    H5720313   4.930   1.678   3.327  1.0024  0.9229 -0.2570
   49RES    H5820314   4.808   1.490   3.272  0.3305  0.6668 -1.0050
   49RES    H5920315   4.920   1.429   3.386 -2.2592 -0.1766  0.4760
   49RES    H6020316   5.067   1.343   3.210  0.2953 -0.4164 -1.1761
   49RES    H6120317   4.951   1.391   3.085 -2.9332 -1.6484 -0.5218
   49RES    H6220318   4.918   1.166   3.099  1.0802 -0.2848  0.8031
   49RES    H6320319   4.788   1.227   3.189  0.1706  0.2091 -0.7044
   49RES    H6420320   4.935   1.170   3.277  1.1150 -0.0629 -0.8237
   49RES    C6520321   5.140   1.844   3.187  0.2041  0.0556  0.0757
   49RES    C6620322   5.206   1.985   3.163 -0.3529  0.0332  0.4743
   49RES    C6720323   5.349   1.998   3.218 -0.2898 -0.5145 -0.1782
   49RES    C6820324   5.452   1.895   3.172 -0.3623 -0.0000  1.0935
   49RES    C6920325   5.470   1.889   3.018  0.1878 -0.2046  0.1113
   49RES    C7020326   5.571   1.789   2.972 -0.1770  0.3581 -0.3583
   49RES    C7120327   5.565   1.778   2.816  0.3081  0.1824 -0.4874
   49RES    H7220328   5.139   1.818   3.293  0.2498 -1.9451 -0.3941
   49RES    H7320329   5.202   1.762   3.151  1.5491  0.3329  1.6896
   49RES    H7420330   5.217   2.002   3.056 -0.3047 -1.2103  0.2775
   49RES    H7520331   5.389   2.099   3.210 -1.2602 -0.0156  1.0607
   49RES    H7620332   5.334   1.996   3.326  1.9338  1.1700  0.1984
   49RES    H7720333   5.555   1.905   3.206 -0.1875 -0.2748  0.6498
   49RES    H7820334   5.435   1.792   3.203 -3.7509  0.1514  0.0307
   49RES    H7920335   5.373   1.861   2.978 -0.9415 -0.4184  2.9467
   49RES    H8020336   5.490   1.992   2.985  1.7954 -1.1869 -2.1511
   49RES    H8120337   5.558   1.694   3.024  3.0364  0.7057  1.2784
   49RES    H8220338   5.674   1.816   2.997 -0.1039 -0.3637  0.1412
   49RES    H8320339   5.606   1.859   2.756 -2.0108  2.6446  1.1672
   49RES    H8420340   5.627   1.690   2.795 -0.6993 -0.8498  0.7562
   49RES    H8520341   5.462   1.752   2.794  0.5886 -0.6174 -0.8821
   49RES    C8620342   5.116   2.102   3.209 -0.4152  0.4075 -0.1477
   49RES    C8720343   5.172   2.245   3.183  0.0183 -0.0298  0.6159
   49RES    C8820344   5.165   2.273   3.024  0.9619 -0.2320 -0.4649
   49RES    C8920345   5.025   2.330   2.976  0.2594  0.4269 -0.0923
   49RES    C9020346   5.001   2.349   2.824  0.2017  0.4954  0.1303
   49RES    C9120347   4.855   2.380   2.786  0.0943  0.0346  0.5321
   49RES    C9220348   4.840   2.438   2.644  0.5378  0.0803  0.2783
   49RES    H9320349   5.017   2.085   3.167 -0.4825 -1.1097  0.5858
   49RES    H9420350   5.100   2.092   3.316  0.5135 -0.7620 -0.1095
   49RES    H9520351   5.276   2.245   3.213  0.4512 -0.3976 -0.8529
   49RES    H9620352   5.241   2.345   2.995  0.0152  0.1799 -2.0065
   49RES    H9720353   5.185   2.185   2.962  0.6617  0.8813 -2.1893
   49RES    H9820354   4.941   2.263   2.996  0.2468 -0.0933 -1.8156
   49RES    H9920355   4.985   2.418   3.026 -2.4470 -1.3118  0.9154
   49RES   H10020356   5.033   2.265   2.762 -3.1127 -0.3726 -0.4692
   49RES   H10120357   5.073   2.423   2.788 -0.0538  0.4846 -0.4055
   49RES   H10220358   4.790   2.292   2.796 -1.6108  0.9381 -1.9286
   49RES   H10320359   4.808   2.455   2.849  0.0252  0.1208  0.3805
   49RES   H10420360   4.873   2.359   2.575 -1.2186 -0.1728 -0.2833
   49RES   H10520361   4.879   2.535   2.614 -1.6782  0.9857  0.3127
   49RES   H10620362   4.734   2.449   2.621  0.1130 -0.6428  1.8355
   49RES   C10720363   5.097   2.356   3.267  0.5814 -0.6461  0.1827
   49RES   C10820364   5.168   2.494   3.269 -0.1769 -0.0063  0.3200
   49RES   C10920365   5.074   2.593   3.339 -0.5585 -0.1722 -0.3663
   49RES   C11020366   4.951   2.639   3.262 -0.3361 -0.3393  0.1930
   49RES   C11120367   4.869   2.749   3.336 -0.3278  0.2305 -0.5936
   49RES   C11220368   4.758   2.804   3.250 -0.1422  0.3174  1.2503
   49RES   C11320369   4.665   2.900   3.314  0.1396 -0.0986 -0.5206
   49RES   H11420370   5.087   2.329   3.372  0.8247 -2.4469 -0.2378
   49RES   H11520371   4.992   2.356   3.238 -0.0221  1.1147  2.2752
   49RES   H11620372   5.185   2.520   3.165 -0.2653 -0.9502  0.0669
   49RES   H11720373   5.119   2.690   3.361 -0.0704 -0.4855  0.0351
   49RES   H11820374   5.033   2.548   3.429 -1.2742  0.5399 -0.3279
   49RES   H11920375   4.985   2.682   3.168  0.4987  0.8946  1.0386
   49RES   H12020376   4.881   2.561   3.232 -1.2574  0.2032  0.8819
   49RES   H12120377   4.933   2.831   3.368  2.5252 -2.6482  1.3714
   49RES   H12220378   4.816   2.710   3.423  0.6182 -0.6719 -0.4185
   49RES   H12320379   4.807   2.856   3.168  0.9884 -0.5494  1.3669
   49RES   H12420380   4.707   2.716   3.211  2.6602 -0.4074 -0.9719
   49RES   H12520381   4.587   2.935   3.246 -0.6194  2.9306  1.8236
   49RES   H12620382   4.612   2.846   3.392 -0.0312 -2.3484 -2.1545
   49RES   H12720383   4.700   2.997   3.350  0.0100 -0.6710  1.1607
   49RES   C12820384   5.306   2.481   3.337 -0.1732  0.8399  0.4341
   49RES   C12920385   5.380   2.610   3.378  0.7327 -0.7617  0.1591
   49RES   C13020386   5.405   2.710   3.262 -0.5399 -0.6128  0.1141
   49RES   C13120387   5.470   2.844   3.290 -0.3462 -0.7192  0.2675
   49RES   C13220388   5.516   2.925   3.171  0.3440  0.9837 -0.0939
   49RES   C13320389   5.579   3.053   3.212  0.0166 -0.2770  0.3752
   49RES   C13420390   5.604   3.152   3.097  0.2706  0.3410  0.1886
   49RES   H13520391   5.315   2.406   3.416  0.6929  1.4803  0.9591
   49RES   H13620392   5.375   2.448   3.259  3.3754  1.4686  3.1820
   49RES   H13720393   5.311   2.661   3.445  1.1359 -1.1120  0.8462
   49RES   H13820394   5.314   2.747   3.214  0.0798 -0.2916 -0.8280
   49RES   H13920395   5.463   2.653   3.189  2.4390  2.5248 -0.0671
   49RES   H14020396   5.555   2.834   3.358 -0.5002  0.8237  0.6974
   49RES   H14120397   5.401   2.905   3.348  0.7516  2.2536 -1.4886
   49RES   H14220398   5.426   2.947   3.114  0.2831 -2.4078 -1.4339
   49RES   H14320399   5.585   2.860   3.117 -1.6121 -0.7862 -0.5267
   49RES   H14420400   5.678   3.037   3.253 -1.6175 -1.0063  4.1865
   49RES   H14520401   5.524   3.106   3.290  1.9298 -2.1633  3.0681
   49RES   H14620402   5.508   3.168   3.048  1.1995  2.5591 -0.9340
   49RES   H14720403   5.675   3.111   3.025 -0.6085  1.5925 -1.4237
   49RES   H14820404   5.639   3.248   3.134 -0.5515  0.3063  1.0920
   49RES   C14920405   5.514   2.568   3.446  0.1083 -0.8776  0.8906
   49RES   C15020406   5.510   2.503   3.586  0.4061  0.8706  0.9564
   49RES   C15120407   5.439   2.582   3.702 -0.4232  0.2996  0.0297
   49RES   C15220408   5.376   2.500   3.819 -0.3483 -0.4457  0.0426
   49RES   C15320409   5.305   2.576   3.931  0.0036 -0.6212 -0.4294
   49RES   C15420410   5.254   2.481   4.041  0.2485 -0.1131 -0.2153
   49RES   C15520411   5.210   2.558   4.167 -0.6116  0.6669  0.0653
   49RES   H15620412   5.569   2.495   3.386  1.5963 -0.1019  1.2853
   49RES   H15720413   5.574   2.655   3.471  0.3463 -1.1454  1.2531
   49RES   H15820414   5.460   2.406   3.582  0.7535  0.6966  0.7699
   49RES   H15920415   5.520   2.638   3.748 -0.0261 -0.5724  0.4214
   49RES   H16020416   5.359   2.642   3.658 -3.2202 -2.6236  0.9064
   49RES   H16120417   5.452   2.431   3.856  1.6587  0.3772 -2.3902
   49RES   H16220418   5.305   2.431   3.775  1.2768 -1.7120 -0.6475
   49RES   H16320419   5.218   2.624   3.886 -1.3498 -1.2887  1.4208
   49RES   H16420420   5.364   2.650   3.985 -0.8842  0.1187 -0.4597
   49RES   H16520421   5.331   2.421   4.089  0.1651  0.3525  0.5099
   49RES   H16620422   5.173   2.424   3.995  0.3379  0.0821 -0.6238
   49RES   H16720423   5.169   2.490   4.241  0.2352  0.8647  0.7262
   49RES   H16820424   5.142   2.639   4.140 -3.0648 -1.3074  0.1099
   49RES   H16920425   5.292   2.605   4.220 -0.5892 -0.7195  1.2792
   49RES   C17020426   5.656   2.479   3.637  0.7545 -0.2386 -0.2677
   49RES   C17120427   5.750   2.399   3.543 -0.2367  0.0334 -0.0742
   49RES   C17220428   5.903   2.410   3.579 -0.2189 -0.2451  0.0455
   49RES   C17320429   5.982   2.528   3.530  0.2373 -0.0168  0.2343
   49RES   C17420430   6.127   2.518   3.572  0.3163  0.3954  0.2362
   49RES   C17520431   6.149   2.540   3.725 -0.1153  0.0736  0.1911
   49RES   C17620432   6.106   2.682   3.777 -0.3669 -0.5785  0.3888
   49RES   H17720433   5.655   2.429   3.734  0.7952 -3.9729 -2.1091
   49RES   H17820434   5.702   2.577   3.647 -0.0315 -0.1114  2.5572
   49RES   H17920435   5.751   2.439   3.442 -0.0768  1.7651  0.5965
   49RES   H18020436   5.950   2.316   3.550 -0.6121 -0.2020 -0.7614
   49RES   H18120437   5.913   2.392   3.686  1.8341  0.4637 -0.0193
   49RES   H18220438   5.954   2.622   3.577 -0.3094 -0.2302  0.3341
   49RES   H18320439   5.976   2.546   3.422  1.3294 -0.0747  0.1606
   49RES   H18420440   6.173   2.595   3.511 -0.1361 -0.6309 -1.4298
   49RES   H18520441   6.174   2.424   3.546  0.7418 -0.2615  3.1661
   49RES   H18620442   6.257   2.535   3.742  0.2317 -0.3359 -2.0083
   49RES   H18720443   6.106   2.457   3.781  2.6114 -2.3944 -1.2221
   49RES   H18820444   6.142   2.692   3.880 -0.7592  0.0650  0.4663
   49RES   H18920445   5.999   2.700   3.781 -0.4825 -1.1841 -0.0962
   49RES   H19020446   6.143   2.766   3.719  0.5090  0.1176  1.8971
   49RES   C19120447   5.710   2.247   3.546  0.1334 -0.0186 -0.2403
   49RES   C19220448   5.751   2.174   3.421  1.0944  0.2888 -0.1653
   49RES   C19320449   5.725   2.017   3.436  0.0468 -0.0270 -0.1523
   49RES   C19420450   5.813   1.918   3.358 -1.0124 -0.7213  0.3685
   49RES   C19520451   5.780   1.771   3.376  0.6784 -0.9647 -0.1300
   49RES   C19620452   5.866   1.683   3.286 -0.1505  0.2104 -0.0782
   49RES   C19720453   5.796   1.544   3.276  0.1421  0.2517 -0.7696
   49RES   H19820454   5.603   2.233   3.559  0.4587 -1.8912  0.5706
   49RES   H19920455   5.759   2.203   3.633 -0.0242 -1.5025 -0.8871
   49RES   H20020456   5.857   2.193   3.404  0.9765  0.0744 -1.1613
   49RES   H20120457   5.618   2.006   3.419  0.3805 -1.2963 -1.5314
   49RES   H20220458   5.728   1.985   3.540  3.8466 -2.2954 -0.8892
   49RES   H20320459   5.916   1.940   3.388 -0.5867  2.5576 -2.9439
   49RES   H20420460   5.826   1.938   3.251 -0.6289 -1.7024  0.2312
   49RES   H20520461   5.781   1.725   3.475 -1.0548 -0.3587  0.1840
   49RES   H20620462   5.675   1.749   3.355 -0.1953  1.3794  1.5969
   49RES   H20720463   5.960   1.679   3.341  0.3149 -0.0230 -0.8827
   49RES   H20820464   5.893   1.725   3.189  0.9759  2.3242  1.1216
   49RES   H20920465   5.744   1.546   3.180 -0.1382  1.7657 -0.5995
   49RES   H21020466   5.719   1.512   3.346  1.8948 -0.0511  1.0629
   49RES   H21120467   5.867   1.462   3.267  0.1939  0.2324 -0.2312
   49RES   C21220468   5.680   2.218   3.289  0.8956 -0.0906  0.1708
   49RES   C21320469   5.755   2.299   3.182  0.2139 -0.6269  0.5465
   49RES   C21420470   5.859   2.211   3.111 -0.2197 -0.0060  0.1125
   49RES   C21520471   5.812   2.113   3.001 -0.1949  0.0386 -0.6132
   49RES   C21620472   5.925   2.038   2.926 -0.5837  0.4928 -0.4842
   49RES   C21720473   6.030   1.960   3.004  0.1215  0.5594 -0.5034
   49RES   C21820474   6.120   1.877   2.917 -0.3892  0.0819  0.2154
   49RES   H21920475   5.599   2.282   3.325  0.9287 -1.3560  2.5853
   49RES   H22020476   5.624   2.137   3.243  0.6071  0.0310  0.3061
   49RES   H22120477   5.812   2.371   3.241 -2.6779  1.2716  1.1423
   49RES   H22220478   5.942   2.262   3.062 -1.7731  1.7817 -0.6927
   49RES   H22320479   5.897   2.147   3.191 -1.4315  1.1090  1.6073
   49RES   H22420480   5.749   2.168   2.931 -2.2700 -1.7639 -0.2357
   49RES   H22520481   5.749   2.036   3.048  1.4969 -0.7441  0.4082
   49RES   H22620482   5.881   1.971   2.852  0.4276 -0.5746 -0.1371
   49RES   H22720483   5.968   2.117   2.863 -0.9960  1.8933  0.9697
   49RES   H22820484   6.086   2.037   3.057 -1.8147  1.5738  0.1125
   49RES   H22920485   5.981   1.884   3.065  2.5966 -0.9019 -0.2769
   49RES   H23020486   6.050   1.823   2.854 -0.7075  0.4673  0.2418
   49RES   H23120487   6.182   1.815   2.983 -0.4190  0.5154  0.6514
   49RES   H23220488   6.185   1.938   2.854  1.6521 -3.5374 -1.3361
   49RES   C23320489   5.663   2.384   3.091 -0.5080  0.2865 -0.0010
   49RES   C23420490   5.732   2.468   2.981  0.6648  0.6262  0.2876
   49RES   C23520491   5.629   2.509   2.875 -0.0769  0.5640 -0.3170
   49RES   C23620492   5.509   2.594   2.925  0.5950 -0.1329 -0.1137
   49RES   C23720493   5.415   2.641   2.817  0.1733  0.3130  0.3430
   49RES   C23820494   5.293   2.717   2.886 -0.0957  0.2920  0.4071
   49RES   C23920495   5.209   2.787   2.781  1.0934  0.2623  1.0065
   49RES   H24020496   5.602   2.448   3.155  0.0313 -0.4365  1.2568
   49RES   H24120497   5.594   2.312   3.046 -0.8716 -0.5673  1.8777
   49RES   H24220498   5.815   2.414   2.935 -0.1406  0.6848 -1.2845
   49RES   H24320499   5.597   2.415   2.832  0.8549 -0.3425  0.9443
   49RES   H24420500   5.686   2.558   2.796 -0.2828 -0.4969 -1.1289
   49RES   H24520501   5.542   2.681   2.981 -0.0708 -0.4290  0.7566
   49RES   H24620502   5.445   2.542   2.997  0.0133 -0.7566 -1.0614
   49RES   H24720503   5.365   2.563   2.759 -1.8522  2.3282 -0.6834
   49RES   H24820504   5.459   2.713   2.748 -0.0947  0.1069 -0.0492
   49RES   H24920505   5.238   2.647   2.948  0.8001  0.6576  1.6163
   49RES   H25020506   5.327   2.801   2.947 -0.7351  1.0205 -0.2142
   49RES   H25120507   5.171   2.717   2.706 -1.2422  1.2685  1.2019
   49RES   H25220508   5.122   2.821   2.837  0.5510 -0.2576  0.4948
   49RES   H25320509   5.257   2.869   2.729 -1.7730  1.6541  0.4664
   49RES   C25420510   5.793   2.596   3.055  0.2760 -0.1611  0.7719
   49RES   C25520511   5.940   2.595   3.093  0.3698  0.1155  1.0182
   49RES   C25620512   5.983   2.708   3.197 -0.2032  0.3346  0.1491
   49RES   C25720513   6.005   2.843   3.130 -0.0060  0.5621 -0.1273
   49RES   C25820514   6.037   2.960   3.228 -0.1816  0.4243  0.4385
   49RES   C25920515   6.187   2.969   3.256 -0.3104  0.2781 -0.6504
   49RES   C26020516   6.249   2.869   3.356 -0.9328 -0.3338  0.0263
   49RES   H26120517   5.740   2.614   3.148  0.8949 -0.9166  1.2774
   49RES   H26220518   5.764   2.679   2.991 -0.3615 -1.9638 -1.3446
   49RES   H26320519   5.953   2.501   3.148  0.5374 -0.8749 -0.6944
   49RES   H26420520   6.069   2.668   3.251  0.1413 -0.1854 -0.7832
   49RES   H26520521   5.900   2.717   3.267  1.4387  0.7149  2.0867
   49RES   H26620522   6.080   2.836   3.051 -1.6173  1.0982 -1.7419
   49RES   H26720523   5.916   2.874   3.075 -0.6593 -1.3092 -0.1577
   49RES   H26820524   5.961   2.966   3.306 -1.9878 -1.8033 -1.0570
   49RES   H26920525   6.009   3.052   3.175 -2.2365  0.2392  1.1351
   49RES   H27020526   6.237   2.952   3.161 -1.6628 -2.1448 -0.9752
   49RES   H27120527   6.217   3.069   3.286 -0.9736 -0.2298  1.9006
   49RES   H27220528   6.175   2.869   3.435 -1.4972  1.3247 -0.4746
   49RES   H27320529   6.251   2.768   3.315 -0.7474  0.3665 -1.7701
   49RES   H27420530   6.351   2.883   3.392 -0.7736  0.4734 -0.7063
   49RES   C27520531   6.029   2.593   2.959  0.3047  0.7403 -0.3706
   49RES   C27620532   6.179   2.582   2.993  0.1650  0.7570  0.2839
   49RES   C27720533   6.257   2.667   2.890  0.5716  0.8404 -0.1296
   49RES   C27820534   6.256   2.627   2.735  0.1093  0.2557 -0.5088
   49RES   C27920535   6.337   2.724   2.650 -0.5374 -0.0552  0.3308
   49RES   C28020536   6.327   2.685   2.503  0.3042  0.0881  0.3934
   49RES   C28120537   6.426   2.760   2.406  0.7757  0.3571 -0.7523
   49RES   H28220538   6.002   2.682   2.901  0.0433  2.1984  1.9126
   49RES   H28320539   6.008   2.510   2.893  2.5062 -0.6906  0.6759
   49RES   H28420540   6.193   2.634   3.088 -1.6756  1.0623  0.3964
   49RES   H28520541   6.235   2.773   2.896 -1.6868  0.3622  0.9384
   49RES   H28620542   6.362   2.660   2.915  0.5645 -0.9624 -0.5208
   49RES   H28720543   6.156   2.616   2.692  0.0339  0.0300 -0.2757
   49RES   H28820544   6.287   2.523   2.723 -0.3519  0.0818 -0.1984
   49RES   H28920545   6.443   2.725   2.677 -0.7309  0.0280  1.0879
   49RES   H29020546   6.302   2.826   2.662 -1.6056 -0.3808  0.0332
   49RES   H29120547   6.348   2.578   2.497  2.7146  0.4573  1.5837
   49RES   H29220548   6.230   2.698   2.455 -0.4089  0.9861  2.0316
   49RES   H29320549   6.421   2.868   2.395 -0.7891  0.1611 -2.2145
   49RES   H29420550   6.425   2.712   2.308  0.2009  0.7600 -0.9440
   49RES   H29520551   6.526   2.734   2.442  0.3756  1.1566  0.9776
   49RES   C29620552   6.226   2.434   3.008 -0.1732 -0.7433  0.4176
   49RES   C29720553   6.376   2.410   3.038 -0.4526  0.6136  0.4822
   49RES   C29820554   6.407   2.257   3.046 -0.0880 -0.4494  0.1471
   49RES   C29920555   6.359   2.168   2.930 -0.2268  1.3691  0.0674
   49RES   C30020556   6.433   2.038   2.900  0.0439  0.2403  0.2778
   49RES   C30120557   6.587   2.047   2.904  0.6154 -0.4397  0.3418
   49RES   C30220558   6.658   1.914   2.882  0.3854  0.5026  0.2965
   49RES   H30320559   6.157   2.409   3.089  0.7090  2.6391  2.2972
   49RES   H30420560   6.188   2.379   2.922  3.5103 -1.7723 -0.6350
   49RES   H30520561   6.450   2.437   2.963 -0.4126  1.9735  0.9854
   49RES   H30620562   6.514   2.238   3.053 -0.6792 -3.8955  0.8720
   49RES   H30720563   6.359   2.209   3.132  0.2824 -0.5854  0.2816
   49RES   H30820564   6.370   2.228   2.839 -2.7473 -1.0825 -1.9386
   49RES   H30920565   6.250   2.161   2.930 -0.1030 -1.0724  1.5416
   49RES   H31020566   6.394   1.991   2.810 -1.8808 -1.2955  1.8350
   49RES   H31120567   6.402   1.968   2.978 -1.2275  1.2048  0.6533
   49RES   H31220568   6.612   2.118   2.825 -1.0014 -1.8134 -1.4517
   49RES   H31320569   6.629   2.082   2.998 -0.0911  0.3814  0.3483
   49RES   H31420570   6.630   1.845   2.962 -1.9808  1.7152  0.5632
   49RES   H31520571   6.658   1.872   2.781  0.2205  1.9473 -0.3158
   49RES   H31620572   6.765   1.926   2.901  0.2798  1.2744  0.4069
   49RES   C31720573   6.429   2.481   3.168 -0.2025 -0.4673  0.2233
   49RES   C31820574   6.577   2.466   3.217 -1.1612 -0.5920 -0.0498
   49RES   C31920575   6.680   2.520   3.108  0.8054 -0.1138 -0.9454
   49RES   C32020576   6.816   2.460   3.130 -0.5762 -0.3333  0.1592
   49RES   C32120577   6.932   2.506   3.043  0.1698 -0.5215  0.0693
   49RES   C32220578   7.039   2.398   3.026 -0.2265 -0.2546  0.3430
   49RES   C32320579   7.161   2.457   2.959  0.0097  0.1962  0.7911
   49RES   H32420580   6.367   2.452   3.253 -0.9086 -0.9681 -0.4609
   49RES   H32520581   6.404   2.588   3.166  1.2269 -0.0946  1.3305
   49RES   H32620582   6.600   2.360   3.219 -1.5919 -0.7578 -2.6318
   49RES   H32720583   6.692   2.628   3.115 -0.8955 -0.0753  2.1557
   49RES   H32820584   6.643   2.509   3.006 -1.0698  0.4935 -0.3388
   49RES   H32920585   6.807   2.352   3.133 -3.3844 -0.1260  0.6906
   49RES   H33020586   6.837   2.491   3.233  0.2591 -2.7644  0.7608
   49RES   H33120587   6.986   2.590   3.086 -1.2100  0.9136 -0.9355
   49RES   H33220588   6.896   2.538   2.946 -1.4281 -0.5228  0.6286
   49RES   H33320589   6.994   2.314   2.973 -1.5286  0.7666 -0.2018
   49RES   H33420590   7.072   2.362   3.123 -1.8905 -0.9896  0.6508
   49RES   H33520591   7.209   2.537   3.014 -0.7669  1.1252  0.1362
   49RES   H33620592   7.151   2.501   2.859 -1.1554 -0.8189  0.4433
   49RES   H33720593   7.244   2.386   2.952 -0.6494 -0.8926  3.4189
   49RES   C33820594   6.595   2.531   3.358 -0.6154 -0.6158  0.9730
   49RES   C33920595   6.538   2.452   3.480 -0.5512  0.7744 -0.7178
   49RES   C34020596   6.561   2.529   3.610 -0.4145  0.1809 -0.2917
   49RES   C34120597   6.522   2.675   3.617 -0.7877  0.2112 -0.8314
   49RES   C34220598   6.537   2.735   3.762  0.1432  0.4623 -0.5504
   49RES   C34320599   6.490   2.884   3.774 -0.1424 -0.1648  0.0863
   49RES   C34420600   6.496   2.940   3.918  0.2574 -0.1388  0.1357
   49RES   H34520601   6.555   2.632   3.353  0.2102 -0.2852  0.9219
   49RES   H34620602   6.700   2.561   3.362 -0.8831  0.4937  0.0542
   49RES   H34720603   6.430   2.440   3.473 -0.4889 -1.7451  1.8109
   49RES   H34820604   6.501   2.478   3.686  1.1095  0.9305  1.4466
   49RES   H34920605   6.661   2.511   3.647 -1.6620 -2.1571  2.1330
   49RES   H35020606   6.417   2.681   3.590 -0.7457  0.1485 -1.0037
   49RES   H35120607   6.587   2.733   3.552 -0.5156 -1.7802 -2.3819
   49RES   H35220608   6.491   2.656   3.821  1.5610 -1.2246 -1.6397
   49RES   H35320609   6.643   2.728   3.785 -0.2241  0.7506  1.2705
   49RES   H35420610   6.545   2.946   3.702  1.0565 -0.5971  0.6258
   49RES   H35520611   6.385   2.899   3.748  0.1502  0.7742 -0.6100
   49RES   H35620612   6.597   2.924   3.958  0.0186 -0.6719  0.5216
   49RES   H35720613   6.418   2.903   3.984 -0.6926  0.3059 -0.7322
   49RES   H35820614   6.474   3.047   3.919 -3.4532 -0.8603  0.8834
   49RES   C35920615   6.595   2.304   3.493 -0.4967 -0.2197  0.1461
   49RES   C36020616   6.487   2.196   3.534  0.0296  0.3413  0.1006
   49RES   C36120617   6.402   2.156   3.416  0.0663 -0.2834  0.9224
   49RES   C36220618   6.280   2.060   3.442  0.2510 -0.5091  0.0608
   49RES   C36320619   6.251   1.950   3.330 -0.3317  0.2590 -0.7477
   49RES   C36420620   6.365   1.838   3.335  0.4087 -0.5053  0.4483
   49RES   C36520621   6.377   1.741   3.213 -0.0182 -0.1592  0.2848
   49RES   H36620622   6.676   2.311   3.565 -1.6224  0.7152  1.3517
   49RES   H36720623   6.643   2.269   3.402 -1.2475 -0.1627 -0.2709
   49RES   H36820624   6.406   2.231   3.598  1.1819  1.0768  1.1828
   49RES   H36920625   6.365   2.246   3.366  0.5018 -0.1308  0.8722
   49RES   H37020626   6.461   2.107   3.339 -1.6386 -0.8671 -0.0341
   49RES   H37120627   6.301   2.016   3.539 -2.0965 -0.8164  0.4645
   49RES   H37220628   6.192   2.122   3.461  0.0507 -0.8947  0.3837
   49RES   H37320629   6.152   1.908   3.351  0.1802 -0.2662  0.7030
   49RES   H37420630   6.233   1.991   3.230  1.8533  1.9176 -0.5024
   49RES   H37520631   6.461   1.891   3.332  0.0522  0.0880 -0.5938
   49RES   H37620632   6.342   1.787   3.428  0.9262  0.1608  0.9556
   49RES   H37720633   6.474   1.693   3.201 -0.6975 -0.7712 -3.5004
   49RES   H37820634   6.293   1.671   3.215  1.1720 -1.5874  1.1990
   49RES   H37920635   6.354   1.801   3.125 -0.3284  0.8024  1.0198
   49RES   C38020636   6.548   2.073   3.607 -0.0634 -0.1679  0.0813
   49RES   C38120637   6.639   2.096   3.734 -0.6400  0.7160  0.6515
   49RES   C38220638   6.569   2.151   3.864 -0.6690 -0.0954 -0.3689
   49RES   C38320639   6.673   2.222   3.963  0.5712  0.1087  0.4397
   49RES   C38420640   6.634   2.368   3.983 -0.1891  0.2443  0.2998
   49RES   C38520641   6.716   2.430   4.096 -0.0607 -0.3426 -0.2838
   49RES   C38620642   6.650   2.564   4.136  0.1463 -0.0229  0.8356
   49RES   H38720643   6.470   2.004   3.640 -0.4485 -0.2720 -0.9963
   49RES   H38820644   6.613   2.019   3.538 -1.1904 -0.0316 -1.1139
   49RES   H38920645   6.714   2.170   3.707  0.1362 -0.5136 -0.6410
   49RES   H39020646   6.503   2.090   3.926 -0.4900 -1.4427 -1.4674
   49RES   H39120647   6.501   2.223   3.820 -0.3664  1.0977  1.1187
   49RES   H39220648   6.681   2.171   4.059 -1.6665 -0.1691  0.5072
   49RES   H39320649   6.775   2.216   3.926  0.1405 -0.9661 -0.6008
   49RES   H39420650   6.651   2.415   3.887 -1.7348 -1.3549 -0.7807
   49RES   H39520651   6.529   2.385   4.005  0.0666 -0.3799  2.1542
   49RES   H39620652   6.819   2.433   4.059  0.3023  2.1031  0.8160
   49RES   H39720653   6.703   2.353   4.171 -1.8929  0.3568  0.1279
   49RES   H39820654   6.636   2.628   4.048  0.2897  0.0184  0.8440
   49RES   H39920655   6.709   2.615   4.211  2.5857 -1.1181 -0.3016
   49RES   H40020656   6.549   2.555   4.176 -0.2843 -2.1861 -0.6203
   49RES   C40120657   6.702   1.959   3.777 -0.0232  0.3711 -0.0711
   49RES   C40220658   6.840   1.914   3.735 -0.5372 -0.0841 -0.3975
   49RES   C40320659   6.877   1.785   3.808  0.1055 -0.6192  0.2522
   49RES   C40420660   7.001   1.723   3.749  0.2974 -0.0455  0.6361
   49RES   C40520661   7.044   1.592   3.823  0.2392  0.3207 -0.1158
   49RES   C40620662   7.186   1.549   3.797  0.0659 -0.5060  0.2102
   49RES   C40720663   7.207   1.514   3.650  0.2619 -0.5446 -0.1043
   49RES   H40820664   6.636   1.873   3.763 -0.2989  0.0783  2.6689
   49RES   H40920665   6.707   1.952   3.886 -1.5659  0.1629 -0.0099
   49RES   H41020666   6.905   1.995   3.767 -0.8063  0.7178 -1.8379
   49RES   H41120667   6.797   1.714   3.789  0.5300 -1.1061  0.2557
   49RES   H41220668   6.890   1.799   3.915 -1.7489  0.3129  0.3735
   49RES   H41320669   7.085   1.791   3.765  0.4138  0.0335 -0.2832
   49RES   H41420670   6.996   1.718   3.640  0.7202 -0.0766  0.6152
   49RES   H41520671   7.031   1.624   3.927 -0.7923 -1.1988  0.2437
   49RES   H41620672   6.967   1.518   3.801  2.4864 -1.9550 -0.4858
   49RES   H41720673   7.252   1.623   3.841 -0.7059 -0.6486  1.6114
   49RES   H41820674   7.202   1.464   3.863  3.5292 -0.7043 -0.7819
   49RES   H41920675   7.295   1.451   3.635 -0.8209 -1.8329 -1.2001
   49RES   H42020676   7.203   1.602   3.585 -1.5226 -0.3888  0.2056
   49RES   H42120677   7.125   1.447   3.624 -0.4612 -0.8016  2.7521
   49RES   H42220678   6.849   1.907   3.627 -2.5375  2.2790 -0.7734
   50RES     C120679   6.331   0.538   6.602 -0.6188  0.2103  0.7389
   50RES     C220680   6.332   0.595   6.451 -0.4000  0.0885 -0.1083
   50RES     C320681   6.241   0.719   6.435  0.3380 -0.6962 -0.7976
   50RES     C420682   6.090   0.689   6.424 -0.2155  0.4494 -0.2552
   50RES     C520683   6.008   0.814   6.408  0.1984  0.5147  0.8119
   50RES     C620684   5.858   0.781   6.415  0.7400 -0.6198  0.2943
   50RES     C720685   5.758   0.898   6.424 -0.2054 -0.0534 -0.3592
   50RES     H820686   6.399   0.600   6.661  0.0848  0.5340 -0.3914
   50RES     H920687   6.361   0.433   6.606  0.9766  0.5485 -1.1867
   50RES    H1020688   6.435   0.626   6.436  0.2919 -3.0181 -2.3411
   50RES    H1120689   6.258   0.790   6.516 -1.5951 -3.6216  2.3064
   50RES    H1220690   6.260   0.768   6.340  0.4974 -0.2758 -0.5485
   50RES    H1320691   6.062   0.628   6.338  1.8642  2.0222 -2.1002
   50RES    H1420692   6.051   0.637   6.512  0.4630 -0.6091 -0.5845
   50RES    H1520693   6.038   0.864   6.316  1.1567  0.2922  0.9991
   50RES    H1620694   6.023   0.893   6.481 -2.7358  0.3587  1.6577
   50RES    H1720695   5.836   0.717   6.500  0.6163 -0.8447  0.0945
   50RES    H1820696   5.826   0.715   6.334 -0.6405  1.3467 -0.7984
   50RES    H1920697   5.656   0.862   6.432 -0.3962  0.2960 -1.2817
   50RES    H2020698   5.765   0.970   6.343  2.6588 -0.7321 -0.7805
   50RES    H2120699   5.776   0.959   6.513 -1.6271 -3.1957  2.1794
   50RES    H2220700   6.232   0.531   6.646 -1.3499 -0.4385 -0.9802
   50RES    C2320701   6.295   0.494   6.339 -0.2352 -0.2917 -0.9341
   50RES    C2420702   6.396   0.376   6.329  0.2253 -0.3783  0.5739
   50RES    C2520703   6.535   0.421   6.276  0.4125 -0.0818  0.0262
   50RES    C2620704   6.629   0.312   6.325  0.1051 -0.8966 -0.5341
   50RES    C2720705   6.765   0.329   6.263 -0.5420  0.2074  0.5746
   50RES    C2820706   6.861   0.216   6.281  0.0991  0.3182 -0.5288
   50RES    C2920707   6.900   0.201   6.433  0.4414 -0.3422  0.1830
   50RES    H3020708   6.191   0.471   6.359 -1.2116  1.2297 -4.0558
   50RES    H3120709   6.306   0.532   6.238  0.8607 -1.2613 -1.1906
   50RES    H3220710   6.416   0.341   6.430 -0.9466  0.9325  1.2725
   50RES    H3320711   6.572   0.509   6.329 -0.5475  0.2299  0.1988
   50RES    H3420712   6.532   0.441   6.169  1.4529 -1.3613 -0.2485
   50RES    H3520713   6.591   0.212   6.307 -2.1462 -0.2601  0.5378
   50RES    H3620714   6.634   0.324   6.433  0.1990  1.2035 -0.7516
   50RES    H3720715   6.814   0.418   6.302 -0.0997 -0.2238  1.0021
   50RES    H3820716   6.756   0.337   6.155 -1.1534 -1.0228  0.5120
   50RES    H3920717   6.953   0.238   6.226  1.3370 -3.2799 -0.0422
   50RES    H4020718   6.817   0.121   6.252 -0.6181  0.6013 -0.3656
   50RES    H4120719   6.820   0.207   6.507 -1.6836 -0.3733 -2.0534
   50RES    H4220720   6.941   0.101   6.450  3.6885  0.9522  0.3414
   50RES    H4320721   6.969   0.285   6.442 -0.7649  0.6516  0.2790
   50RES    C4420722   6.340   0.260   6.238  0.3290 -0.2980 -0.0144
   50RES    C4520723   6.244   0.159   6.312 -0.2925 -0.2031 -0.3317
   50RES    C4620724   6.196   0.049   6.225  0.2971 -0.5730 -0.1648
   50RES    C4720725   6.082   7.690   6.284 -0.3529 -0.4141  0.1226
   50RES    C4820726   6.064   7.570   6.190 -1.3149 -0.5867 -0.0893
   50RES    C4920727   5.938   7.486   6.216 -0.5115  0.2600 -0.6251
   50RES    C5020728   5.805   7.540   6.159  0.0260  0.2442  0.3655
   50RES    H5120729   6.423   0.200   6.200 -0.2794 -1.3602  0.3215
   50RES    H5220730   6.299   0.301   6.146  0.4699 -2.3176 -0.9975
   50RES    H5320731   6.157   0.217   6.342  0.5445  0.7082  0.3477
   50RES    H5420732   6.283   7.718   6.195  1.5923  1.5666 -0.6217
   50RES    H5520733   6.159   0.095   6.133  1.3701  2.7403  0.9699
   50RES    H5620734   6.107   7.659   6.386  0.5645  0.3627  0.1455
   50RES    H5720735   5.990   0.020   6.294  0.0045  0.6929 -2.5251
   50RES    H5820736   6.153   7.507   6.193  0.9514  2.3503 -2.3237
   50RES    H5920737   6.077   7.598   6.086 -0.9326 -0.5817 -0.0409
   50RES    H6020738   5.921   7.464   6.321 -1.2128 -0.6321 -0.9108
   50RES    H6120739   5.952   7.386   6.173  0.4548  0.3985 -0.6357
   50RES    H6220740   5.722   7.477   6.191 -0.0092 -0.6495 -1.4321
   50RES    H6320741   5.812   7.555   6.052  1.7308  0.5336  0.4987
   50RES    H6420742   5.772   7.640   6.187  1.4823  0.5732  0.9850
   50RES    C6520743   6.326   0.094   6.428  0.2051  0.5914 -0.0897
   50RES    C6620744   6.294   0.131   6.577 -0.2836 -0.6810  0.1524
   50RES    C6720745   6.404   0.078   6.671 -0.4714  0.6109  0.0183
   50RES    C6820746   6.436   7.655   6.683  1.1937  0.2882 -0.1878
   50RES    C6920747   6.513   7.618   6.800 -0.7225  0.0984 -0.6075
   50RES    C7020748   6.552   7.474   6.797  0.1763  0.1760  0.3331
   50RES    C7120749   6.441   7.379   6.842  0.5502  0.0952 -0.4776
   50RES    H7220750   6.309   7.713   6.425 -1.0904  0.8341 -2.5771
   50RES    H7320751   6.429   0.116   6.404 -0.0817  1.2867 -0.6949
   50RES    H7420752   6.289   0.240   6.577  0.7285 -0.6269  0.0483
   50RES    H7520753   6.494   0.129   6.635 -1.2569  1.5132 -0.7010
   50RES    H7620754   6.396   0.126   6.769  1.3546  1.1076 -0.0531
   50RES    H7720755   6.354   7.591   6.653  0.8880 -0.0918  1.4426
   50RES    H7820756   6.504   7.636   6.599 -1.3105 -2.2867 -1.7436
   50RES    H7920757   6.608   7.671   6.811  1.4480 -3.4001 -1.6087
   50RES    H8020758   6.458   7.634   6.893 -3.0935  0.7991 -2.0903
   50RES    H8120759   6.641   7.463   6.859 -0.0376 -0.2275  0.5715
   50RES    H8220760   6.581   7.449   6.695 -1.0729 -1.1148  0.2683
   50RES    H8320761   6.414   7.383   6.948  0.7589  0.7057 -0.4440
   50RES    H8420762   6.345   7.388   6.791  0.3639 -1.7841 -0.4838
   50RES    H8520763   6.456   7.274   6.819 -0.2542 -0.1040 -0.1365
   50RES    C8620764   6.157   0.081   6.632  0.6909  0.3791 -0.0072
   50RES    C8720765   6.121   0.126   6.779 -0.2362 -0.1824  0.2380
   50RES    C8820766   6.138   0.278   6.809 -0.0270  1.2283 -0.0629
   50RES    C8920767   6.127   0.327   6.957 -0.0587  0.0726  0.5249
   50RES    C9020768   6.149   0.481   6.972 -0.3391  0.6551 -0.4766
   50RES    C9120769   6.032   0.561   6.921  1.0266  0.7844 -0.5924
   50RES    C9220770   6.035   0.717   6.947 -0.0962  0.0962  0.5209
   50RES    H9320771   6.082   0.116   6.562 -1.5082  0.9963  2.5751
   50RES    H9420772   6.136   7.702   6.618  0.7666  0.4896 -0.9670
   50RES    H9520773   6.185   0.080   6.855  1.5178 -2.0700 -2.2859
   50RES    H9620774   6.235   0.312   6.773  0.0582  0.1796 -0.8373
   50RES    H9720775   6.060   0.333   6.755 -1.1663 -0.3040  0.0012
   50RES    H9820776   6.027   0.294   6.987 -0.6686 -0.6535 -2.1693
   50RES    H9920777   6.199   0.267   7.013 -1.0485 -1.0815  0.5903
   50RES   H10020778   6.236   0.514   6.915  1.0493  1.4121  2.0103
   50RES   H10120779   6.161   0.513   7.075 -0.8137  0.0578 -0.2327
   50RES   H10220780   6.012   0.540   6.816 -1.3619 -1.5811  0.2849
   50RES   H10320781   5.933   0.533   6.956  0.6164  2.2258 -0.6051
   50RES   H10420782   6.042   0.733   7.054 -0.4719  0.2005  0.5278
   50RES   H10520783   5.940   0.759   6.915  1.1571  1.4895 -1.5298
   50RES   H10620784   6.114   0.771   6.895 -0.3913 -0.0594 -0.0975
   50RES   C10720785   5.982   0.075   6.819  0.0398  0.1090 -0.0861
   50RES   C10820786   5.973   7.650   6.843 -0.1512  0.3647  0.3355
   50RES   C10920787   6.043   7.596   6.973 -0.3722 -0.0065  0.4175
   50RES   C11020788   6.074   7.449   6.973 -0.2678 -0.3197  0.7334
   50RES   C11120789   6.136   7.416   7.116 -0.6855 -0.2723 -0.4908
   50RES   C11220790   6.142   7.265   7.137 -1.2130  0.3716 -0.1043
   50RES   C11320791   6.001   7.212   7.158 -0.5453 -0.2938 -0.2751
   50RES   H11420792   5.917   0.101   6.735  0.3473  2.5454  0.4033
   50RES   H11520793   5.932   0.127   6.900  2.0993 -0.0040  1.2704
   50RES   H11620794   6.024   7.598   6.762 -2.1528 -0.2531 -0.5516
   50RES   H11720795   5.978   7.632   7.052 -0.9154  2.8718 -1.2446
   50RES   H11820796   6.135   7.649   6.996  0.0654 -0.8082  0.5025
   50RES   H11920797   5.990   7.385   6.946  0.8351 -1.0440 -1.0927
   50RES   H12020798   6.151   7.428   6.899 -2.6741  0.7377 -2.1893
   50RES   H12120799   6.082   7.464   7.197 -0.0190  1.7957 -1.2251
   50RES   H12220800   6.239   7.454   7.115 -1.2987  1.5240  1.2905
   50RES   H12320801   6.180   7.218   7.046 -2.7192 -0.8407 -0.1313
   50RES   H12420802   6.202   7.239   7.224 -1.1877 -0.6189 -0.4171
   50RES   H12520803   5.941   7.269   7.229  1.4056  2.1351 -0.5266
   50RES   H12620804   5.950   7.201   7.062 -1.9795 -1.4202  0.5925
   50RES   H12720805   5.995   7.108   7.192 -1.8694  0.2154  1.1256
   50RES   C12820806   5.818   7.609   6.855  0.5021 -0.4827 -0.3107
   50RES   C12920807   5.769   7.515   6.740 -0.4985 -0.0422 -0.0320
   50RES   C13020808   5.779   7.595   6.600 -0.2500  0.0593 -0.1438
   50RES   C13120809   5.672   7.704   6.584 -0.8484  0.5148  0.4456
   50RES   C13220810   5.687   0.059   6.462  0.0481  0.4055  0.3718
   50RES   C13320811   5.775   0.181   6.477 -0.2656 -0.8029  0.3113
   50RES   C13420812   5.751   0.271   6.357 -0.4550 -0.5643 -0.0519
   50RES   H13520813   5.801   7.569   6.955 -0.9154  0.9016  0.0255
   50RES   H13620814   5.748   7.693   6.855  0.7644 -0.2603  0.5882
   50RES   H13720815   5.834   7.428   6.731 -0.0689  0.3889 -1.0733
   50RES   H13820816   5.764   7.521   6.521  0.6888  0.7115 -0.9399
   50RES   H13920817   5.880   7.630   6.577  0.1910 -1.9845 -1.4461
   50RES   H14020818   5.670   0.043   6.671  1.5792  0.6704  0.4079
   50RES   H14120819   5.578   7.648   6.576 -0.4535  0.0985 -1.4027
   50RES   H14220820   5.586   0.096   6.440 -0.8689 -1.4853  1.2813
   50RES   H14320821   5.705   7.725   6.373 -1.0739  1.4364 -0.5739
   50RES   H14420822   5.879   0.152   6.489 -0.7176 -3.2116 -1.2446
   50RES   H14520823   5.741   0.235   6.565 -0.7946 -1.7081  0.6713
   50RES   H14620824   5.769   0.209   6.269  0.9494  0.6379 -0.6373
   50RES   H14720825   5.812   0.360   6.341 -0.1076 -0.8395 -0.2623
   50RES   H14820826   5.649   0.307   6.349 -0.0157  1.3477  2.3063
   50RES   C14920827   5.624   7.465   6.776  0.4083  0.5354 -0.2249
   50RES   C15020828   5.628   7.354   6.882 -0.6417  0.3977  0.4974
   50RES   C15120829   5.698   7.225   6.834  0.3770 -0.3237 -0.3193
   50RES   C15220830   5.698   7.113   6.937  0.3484  0.2361 -0.1460
   50RES   C15320831   5.769   6.989   6.871  0.1883 -0.2622 -0.3532
   50RES   C15420832   5.749   6.885   6.987 -0.1806  0.2457 -0.3134
   50RES   C15520833   5.810   6.760   6.931  0.5325 -0.6417 -0.9096
   50RES   H15620834   5.571   7.548   6.823 -2.2566 -2.5448  2.4874
   50RES   H15720835   5.566   7.426   6.692 -0.7485  2.1336 -0.1796
   50RES   H15820836   5.666   7.386   6.979  0.0818 -0.5712  0.5370
   50RES   H15920837   5.677   7.183   6.735  1.1248  0.1777 -0.6998
   50RES   H16020838   5.804   7.249   6.823  0.1380 -0.4333 -3.2320
   50RES   H16120839   5.597   7.075   6.953  0.9231 -2.2165 -2.0279
   50RES   H16220840   5.748   7.143   7.029 -0.9365  0.6373  0.4309
   50RES   H16320841   5.875   7.014   6.870  0.1302  0.1861  1.8999
   50RES   H16420842   5.732   6.947   6.778 -1.9121 -0.5070  0.5646
   50RES   H16520843   5.648   6.870   7.026  0.0897  2.2899  1.2926
   50RES   H16620844   5.809   6.921   7.071  1.0049  1.3132 -1.6007
   50RES   H16720845   5.810   6.682   7.007  2.5253  0.4788  0.2916
   50RES   H16820846   5.916   6.766   6.907  0.5877  0.5278 -0.3674
   50RES   H16920847   5.748   6.720   6.851 -1.0800 -1.7206  0.8495
   50RES   C17020848   5.480   7.315   6.914 -0.1977  0.2246 -0.1306
   50RES   C17120849   5.392   7.427   6.967 -0.0530 -0.0268 -0.0275
   50RES   C17220850   5.239   7.382   6.947  0.3314  0.1603 -0.2047
   50RES   C17320851   5.171   7.414   6.815 -0.0269  0.5368 -0.1478
   50RES   C17420852   5.020   7.401   6.821  0.6304  0.0819 -0.2343
   50RES   C17520853   4.942   7.414   6.694  0.2113  0.3180 -0.2680
   50RES   C17620854   4.787   7.422   6.725  0.2462 -0.1442  0.2050
   50RES   H17720855   5.484   7.238   6.991 -0.9397  1.1581  0.8550
   50RES   H17820856   5.431   7.269   6.828  0.2574 -0.6097  0.0509
   50RES   H17920857   5.409   7.516   6.907  2.5057 -1.8620 -2.1400
   50RES   H18020858   5.180   7.427   7.028  2.5142 -3.2926  3.4635
   50RES   H18120859   5.217   7.281   6.980 -2.7370  0.7919 -0.0861
   50RES   H18220860   5.207   7.347   6.737  1.6372  0.0464  1.0182
   50RES   H18320861   5.197   7.515   6.785 -1.7064  1.1297  0.2916
   50RES   H18420862   4.981   7.487   6.875 -0.4288  0.1265 -1.0597
   50RES   H18520863   4.992   7.313   6.878 -0.4211  1.2774  1.1274
   50RES   H18620864   4.965   7.328   6.632  3.5887  0.2950  0.9344
   50RES   H18720865   4.977   7.502   6.639  1.2084 -1.4071 -2.4922
   50RES   H18820866   4.758   7.521   6.760 -1.1145 -0.2126 -0.7051
   50RES   H18920867   4.762   7.346   6.798 -1.5541 -0.5382 -0.7939
   50RES   H19020868   4.730   7.406   6.634  0.0543  1.3194  0.0570
   50RES   C19120869   5.422   7.465   7.108 -0.0996  0.5964  0.3827
   50RES   C19220870   5.374   7.609   7.154 -0.6043 -0.5210  0.5499
   50RES   C19320871   5.367   7.627   7.305 -0.0898  0.2929 -0.1634
   50RES   C19420872   5.491   7.575   7.385  0.1077 -0.3466  0.0738
   50RES   C19520873   5.500   7.625   7.528  0.3422 -0.9790 -0.0633
   50RES   C19620874   5.634   7.591   7.594  0.5473 -0.7141  0.3137
   50RES   C19720875   5.640   7.633   0.016  0.3361 -0.8229 -0.1002
   50RES   H19820876   5.522   7.434   7.138 -0.2104 -0.3107 -0.1841
   50RES   H19920877   5.377   7.385   7.166  0.2012  1.0910  1.3174
   50RES   H20020878   5.274   7.620   7.113  0.3877  1.5313 -1.4842
   50RES   H20120879   5.282   7.571   7.343  0.5940 -0.0854  0.8231
   50RES   H20220880   5.357   0.006   7.329  2.6058  0.4146  0.5722
   50RES   H20320881   5.582   7.601   7.330 -0.3088 -1.6084 -1.2415
   50RES   H20420882   5.492   7.467   7.370  1.5207 -0.5843  1.7814
   50RES   H20520883   5.495   0.007   7.523 -0.0809 -1.0054 -0.1436
   50RES   H20620884   5.416   7.593   7.589 -0.9854  1.1284 -0.7396
   50RES   H20720885   5.710   7.641   7.535 -0.0126 -0.6061 -0.3278
   50RES   H20820886   5.633   7.483   7.579  0.4834 -0.6025 -0.5000
   50RES   H20920887   5.715   7.571   0.063  0.3920 -0.6588  0.0283
   50RES   H21020888   5.551   7.602   0.070 -0.7130  0.8663 -0.8209
   50RES   H21120889   5.661   0.013   0.028 -0.5936 -0.4182 -1.8438
   50RES   C21220890   5.460   7.719   7.090 -0.1642  0.1758 -0.2391
   50RES   C21320891   5.378   0.095   7.015  0.1245 -0.4925  0.4970
   50RES   C21420892   5.457   0.228   6.988  0.8114  0.4156 -0.6932
   50RES   C21520893   5.585   0.223   6.913  0.5241 -0.3691  0.8167
   50RES   C21620894   5.664   0.356   6.884 -0.2335 -1.1400 -0.6639
   50RES   C21720895   5.605   0.453   6.776 -0.0367  0.9823  0.5302
   50RES   C21820896   5.691   0.567   6.738  0.4601 -0.3274 -0.4820
   50RES   H21920897   5.527   7.669   7.020 -1.5224 -1.5425 -0.3752
   50RES   H22020898   5.528   0.035   7.163 -0.3699 -0.1815  0.1682
   50RES   H22120899   5.295   0.123   7.080  1.4292  1.1034  1.5147
   50RES   H22220900   5.384   0.299   6.949  0.7904  0.6253 -0.2815
   50RES   H22320901   5.461   0.278   7.085  0.5331 -0.7764 -0.0670
   50RES   H22420902   5.568   0.173   6.818  1.2698 -0.6817  0.8380
   50RES   H22520903   5.658   0.162   6.967 -1.4760 -3.6904 -0.0902
   50RES   H22620904   5.663   0.415   6.976  0.2844  0.9363 -1.9566
   50RES   H22720905   5.766   0.330   6.856 -0.3005 -1.8449 -0.2670
   50RES   H22820906   5.573   0.398   6.688  0.6664 -1.4882  1.7524
   50RES   H22920907   5.508   0.484   6.814 -0.1170  2.8436 -1.1577
   50RES   H23020908   5.689   0.639   6.819  2.3411 -0.6025 -0.1648
   50RES   H23120909   5.664   0.608   6.641 -0.2877 -1.5830 -0.8154
   50RES   H23220910   5.795   0.533   6.743  0.8270  0.9656  0.9091
   50RES   C23320911   5.300   0.042   6.885 -0.0471  0.4767  0.1168
   50RES   C23420912   5.231   0.147   6.793  0.9761 -0.3497 -0.0007
   50RES   C23520913   5.180   0.084   6.656 -0.9612 -0.4698 -1.1934
   50RES   C23620914   5.290   0.040   6.558 -0.0472  0.3433 -0.2548
   50RES   C23720915   5.226   7.714   6.426 -0.5126 -0.0663 -0.7093
   50RES   C23820916   5.335   7.669   6.327 -0.0710  0.0672  0.1565
   50RES   C23920917   5.268   7.577   6.224 -0.8291  0.0715  0.6181
   50RES   H24020918   5.226   7.696   6.917  1.2028  0.2929  2.6690
   50RES   H24120919   5.374   7.709   6.832 -0.7353  0.1241 -0.4595
   50RES   H24220920   5.303   0.224   6.763 -1.1943  1.4284 -0.7878
   50RES   H24320921   5.125   0.164   6.608  0.7178  0.9025 -0.8977
   50RES   H24420922   5.104   0.006   6.660  0.4556 -1.8411  0.2585
   50RES   H24520923   5.345   7.686   6.606  1.8993  1.5461 -0.4187
   50RES   H24620924   5.355   0.124   6.534 -0.0777  0.6597  0.7429
   50RES   H24720925   5.167   0.070   6.386 -2.8825 -0.8775  1.0098
   50RES   H24820926   5.158   7.632   6.448 -0.3386  0.2437  1.0208
   50RES   H24920927   5.379   0.031   6.281  1.8320 -0.7075  0.4449
   50RES   H25020928   5.414   7.612   6.375  2.0848  1.0978 -2.0306
   50RES   H25120929   5.291   7.470   6.235  2.8157  0.2377 -3.5530
   50RES   H25220930   5.161   7.593   6.217 -0.8351 -1.2238 -3.4666
   50RES   H25320931   5.310   7.604   6.127 -1.1741 -1.5139 -0.0049
   50RES   C25420932   5.112   0.214   6.869  0.1713 -0.1503 -0.1118
   50RES   C25520933   5.018   0.315   6.796 -1.2680 -0.0846 -0.2202
   50RES   C25620934   5.092   0.425   6.719 -0.1190 -0.1831  0.2190
   50RES   C25720935   5.174   0.520   6.806 -0.1202  0.1147  0.2049
   50RES   C25820936   5.260   0.617   6.730  0.4310 -0.4886 -0.1690
   50RES   C25920937   5.192   0.704   6.623  0.1350 -0.3505  0.3455
   50RES   C26020938   5.292   0.792   6.548  0.1455 -0.3545  0.0884
   50RES   H26120939   5.158   0.266   6.953  0.8767  0.0484 -0.6161
   50RES   H26220940   5.060   0.125   6.904 -0.2198  0.2340  0.3066
   50RES   H26320941   4.972   0.257   6.716 -1.4422 -0.5997  0.2518
   50RES   H26420942   5.025   0.488   6.662  1.1446  1.2942  0.3593
   50RES   H26520943   5.145   0.382   6.635 -1.8440  0.1481 -1.0694
   50RES   H26620944   5.102   0.579   6.862 -0.5420 -1.4910  1.3920
   50RES   H26720945   5.252   0.475   6.867  0.4452  1.0787  0.2104
   50RES   H26820946   5.338   0.551   6.693  0.6955  0.0920 -0.6493
   50RES   H26920947   5.315   0.681   6.799  0.1834 -0.6126  0.1464
   50RES   H27020948   5.145   0.635   6.553  1.4435 -1.5929  0.6627
   50RES   H27120949   5.124   0.772   6.674  0.0769  0.3662 -0.6693
   50RES   H27220950   5.347   0.733   6.475  0.1573  0.3854 -0.5080
   50RES   H27320951   5.250   0.879   6.498 -1.5844 -1.0033  0.3810
   50RES   H27420952   5.370   0.846   6.602 -0.0610 -1.8105  1.9033
   50RES   C27520953   4.908   0.363   6.892 -1.0021  0.3018  0.5357
   50RES   C27620954   4.796   0.434   6.810 -0.1238 -0.2425 -0.2133
   50RES   C27720955   4.794   0.577   6.860  0.3677  0.2335 -0.7184
   50RES   C27820956   4.726   0.678   6.767 -0.3475 -0.0409 -0.8948
   50RES   C27920957   4.708   0.820   6.818 -0.2966  0.6391 -0.6062
   50RES   C28020958   4.651   0.914   6.709 -0.1592 -0.0068  0.0188
   50RES   C28120959   4.598   1.052   6.761 -0.4355 -0.0737 -0.1923
   50RES   H28220960   4.939   0.428   6.974  1.0930  0.2327 -0.1852
   50RES   H28320961   4.857   0.276   6.932 -2.4919  0.5214 -0.8234
   50RES   H28420962   4.816   0.435   6.703 -1.7852  0.3592 -0.5450
   50RES   H28520963   4.754   0.584   6.961 -0.8026  1.8620 -1.2838
   50RES   H28620964   4.893   0.622   6.848  1.0243 -0.7699  0.7400
   50RES   H28720965   4.637   0.631   6.725 -0.3569 -0.7087 -0.1436
   50RES   H28820966   4.795   0.685   6.684 -0.7014 -1.0678 -1.2846
   50RES   H28920967   4.802   0.854   6.860 -1.6615  2.3478  1.2001
   50RES   H29020968   4.631   0.827   6.895  0.5275  0.5020  0.2342
   50RES   H29120969   4.720   0.934   6.627 -1.9211 -3.1631 -2.3629
   50RES   H29220970   4.564   0.866   6.664 -1.4707  0.4809  1.9776
   50RES   H29320971   4.546   1.109   6.684 -1.8551 -0.3151  0.5719
   50RES   H29420972   4.678   1.113   6.802 -0.2154  1.2352 -2.4656
   50RES   H29520973   4.528   1.039   6.844 -0.3688  1.1379  0.0674
   50RES   C29620974   4.660   0.361   6.825  0.3025 -0.0123  0.3930
   50RES   C29720975   4.641   0.224   6.756  0.3866  0.3935 -0.6813
   50RES   C29820976   4.659   0.219   6.601  0.2664  0.5842  0.4938
   50RES   C29920977   4.636   0.077   6.545 -0.7842 -0.7861  0.2902
   50RES   C30020978   4.655   0.066   6.393 -0.3887 -0.1091  0.6618
   50RES   C30120979   4.624   7.658   6.329 -0.7095  0.2883  0.3344
   50RES   C30220980   4.727   7.554   6.359 -0.4974 -0.4874 -0.1481
   50RES   H30320981   4.636   0.368   6.931  1.6570  0.4799  0.6767
   50RES   H30420982   4.593   0.427   6.770 -1.0377 -0.5715  1.3269
   50RES   H30520983   4.723   0.165   6.798 -0.5497 -1.7065 -1.7353
   50RES   H30620984   4.595   0.298   6.561 -0.1158 -0.7797 -1.6632
   50RES   H30720985   4.755   0.265   6.576  0.3682 -0.0181 -0.2240
   50RES   H30820986   4.535   0.044   6.573 -0.7344 -2.5534 -1.4438
   50RES   H30920987   4.689   0.001   6.603 -1.3223 -0.6926  0.9078
   50RES   H31020988   4.757   0.086   6.362  0.6217 -1.7429  2.7992
   50RES   H31120989   4.602   0.151   6.350 -0.7048 -0.8990 -0.5233
   50RES   H31220990   4.523   7.639   6.365 -1.4963 -2.0599 -2.8579
   50RES   H31320991   4.611   7.674   6.222  0.8892  2.6810  0.4449
   50RES   H31420992   4.754   7.559   6.464 -1.5178  1.7280  0.0372
   50RES   H31520993   4.683   7.457   6.334  1.0198 -1.0114 -0.8259
   50RES   H31620994   4.817   7.571   6.300  0.0023 -0.4122  0.6456
   50RES   C31720995   4.509   0.165   6.817 -0.2963  0.3893 -0.2309
   50RES   C31820996   4.522   0.023   6.879  0.0161  0.0231 -0.4891
   50RES   C31920997   4.592   0.028   7.020  0.3575  0.0184 -0.1166
   50RES   C32020998   4.518   0.104   7.130  0.1852  0.3653  0.5943
   50RES   C32120999   4.577   0.071   7.276 -0.1829 -0.1591  0.2947
   50RES   C32221000   4.507   0.156   7.379 -0.4038 -0.0134  0.4056
   50RES   C32321001   4.559   0.150   7.521 -0.2349  0.7568  0.2331
   50RES   H32421002   4.431   0.162   6.741  0.5215  0.6130 -1.0864
   50RES   H32521003   4.466   0.224   6.897 -0.8837 -0.8993  0.4262
   50RES   H32621004   4.583   7.697   6.806 -1.5192 -2.2801 -0.1390
   50RES   H32721005   4.697   0.058   7.011  0.9587 -1.4255  1.8117
   50RES   H32821006   4.610   7.651   7.047  1.9429  0.5560  0.9696
   50RES   H32921007   4.410   0.109   7.120  0.2988  0.4746 -0.7282
   50RES   H33021008   4.532   0.211   7.113 -2.4010  0.5978 -0.3158
   50RES   H33121009   4.685   0.087   7.283 -0.2265 -0.3008  1.5288
   50RES   H33221010   4.559   7.693   7.301  0.9772  0.4522  4.0394
   50RES   H33321011   4.400   0.135   7.379 -0.6472  1.1493 -1.0563
   50RES   H33421012   4.508   0.260   7.345  2.8533  0.1492  0.8159
   50RES   H33521013   4.506   0.231   7.572 -0.1027  0.9186  0.1122
   50RES   H33621014   4.662   0.185   7.512  0.0454 -0.1682 -0.1543
   50RES   H33721015   4.547   0.050   7.561  1.5186 -0.0881 -1.2690
   50RES   C33821016   4.392   7.666   6.887  0.5962 -0.1927 -0.0987
   50RES   C33921017   4.412   7.514   6.899  0.2010 -0.0325 -0.4075
   50RES   C34021018   4.304   7.437   6.814 -0.4594 -0.5289  0.1981
   50RES   C34121019   4.331   7.443   6.666  0.2643 -0.5292  0.3224
   50RES   C34221020   4.219   7.370   6.578 -0.0164 -0.2166  0.3157
   50RES   C34321021   4.257   7.359   6.423 -0.4364  0.0018 -0.2641
   50RES   C34421022   4.373   7.265   6.387  0.2551 -0.2575 -0.1469
   50RES   H34521023   4.330   7.686   6.800  0.1936  2.5503  0.7563
   50RES   H34621024   4.330   7.707   6.967  0.6331  0.6039 -0.4791
   50RES   H34721025   4.508   7.485   6.856  0.7304 -0.0720  0.7805
   50RES   H34821026   4.284   7.334   6.843  2.0058 -1.0239  0.2433
   50RES   H34921027   4.207   7.481   6.837  0.9587  1.5222  2.5173
   50RES   H35021028   4.426   7.397   6.641 -1.6589 -4.0509 -0.8535
   50RES   H35121029   4.337   7.545   6.630 -1.8560 -0.0599  1.2339
   50RES   H35221030   4.213   7.267   6.616 -0.2728  0.0464  0.9896
   50RES   H35321031   4.119   7.409   6.590  0.9558  1.6185  2.8600
   50RES   H35421032   4.179   7.337   6.351 -1.2429 -2.4514  1.2975
   50RES   H35521033   4.277   7.462   6.393  1.4616  0.0037  0.9019
   50RES   H35621034   4.357   7.215   6.291  0.3175  1.6602 -1.1779
   50RES   H35721035   4.378   7.183   6.459  1.1243 -0.4165 -0.3900
   50RES   H35821036   4.462   7.326   6.382  0.2074 -0.1129  0.7914
   50RES   C35921037   4.395   7.467   7.047  0.1404  0.3693 -0.7038
   50RES   C36021038   4.455   7.328   7.096 -0.0713  0.8804  0.3778
   50RES   C36121039   4.606   7.317   7.049  0.6198 -0.3579 -0.1587
   50RES   C36221040   4.674   7.184   7.092  0.7171  0.1268 -0.0480
   50RES   C36321041   4.588   7.062   7.054 -0.3641  0.4408 -0.4134
   50RES   C36421042   4.658   6.934   7.111 -0.5286  0.3151  0.7206
   50RES   C36521043   4.617   6.797   7.046 -0.0496  0.4067 -0.4812
   50RES   H36621044   4.290   7.469   7.076 -0.2221  3.0675 -2.0482
   50RES   H36721045   4.447   7.529   7.120  0.5840  0.3926 -1.0366
   50RES   H36821046   4.394   7.263   7.034 -0.8537  2.1360 -0.1860
   50RES   H36921047   4.599   7.318   6.940  0.7105 -3.2392 -0.2430
   50RES   H37021048   4.665   7.402   7.080 -1.1436  0.0256  2.2971
   50RES   H37121049   4.767   7.163   7.039 -0.5892  1.3429 -2.8960
   50RES   H37221050   4.685   7.179   7.201 -1.9556  0.6461  0.2812
   50RES   H37321051   4.481   7.056   7.068 -0.1759  0.4079  1.0540
   50RES   H37421052   4.587   7.063   6.945 -2.0435 -1.9066 -0.4442
   50RES   H37521053   4.764   6.944   7.087 -0.7804 -1.0954 -1.0979
   50RES   H37621054   4.653   6.940   7.220 -0.5284 -0.4960  0.7727
   50RES   H37721055   4.514   6.765   7.058  0.1760 -0.0667  0.1749
   50RES   H37821056   4.647   6.802   6.941 -2.0241  0.2123 -1.0795
   50RES   H37921057   4.687   6.723   7.083  2.5680  3.2456  0.4440
   50RES   C38021058   4.449   7.312   7.252 -0.0330 -0.0173 -0.2474
   50RES   C38121059   4.317   7.332   7.327  0.8168  0.0529  0.0269
   50RES   C38221060   4.209   7.226   7.286  1.1663 -0.0919 -0.4022
   50RES   C38321061   4.253   7.076   7.301  0.6233 -0.8021  0.7506
   50RES   C38421062   4.143   6.981   7.250  0.2392 -0.0921  0.2705
   50RES   C38521063   4.194   6.839   7.221  0.2341 -0.4961 -0.1203
   50RES   C38621064   4.087   6.735   7.202  0.5026 -0.2796 -0.2384
   50RES   H38721065   4.484   7.221   7.299 -2.0415  0.1369  1.6083
   50RES   H38821066   4.512   7.390   7.294 -0.9935  0.8368 -0.3609
   50RES   H38921067   4.274   7.429   7.303 -0.2817 -0.3487  0.3498
   50RES   H39021068   4.170   7.246   7.186  0.6498 -0.6769 -0.3255
   50RES   H39121069   4.127   7.248   7.355  3.1000 -1.3534  2.3734
   50RES   H39221070   4.345   7.052   7.249 -1.3400 -1.2018 -2.6691
   50RES   H39321071   4.252   7.051   7.407 -0.1486 -4.4431 -0.0581
   50RES   H39421072   4.064   6.970   7.324  1.0837  1.0899  1.3822
   50RES   H39521073   4.104   7.026   7.159  2.7657 -0.4195 -1.0338
   50RES   H39621074   4.268   6.800   7.292 -0.4364 -2.3695 -0.4184
   50RES   H39721075   4.257   6.854   7.133  0.4050  1.9610  0.3898
   50RES   H39821076   4.028   6.718   7.292 -0.1622 -0.1871 -0.6463
   50RES   H39921077   4.124   6.636   7.174  0.6252 -1.0652  2.5290
   50RES   H40021078   4.019   6.767   7.123  0.5828  0.3826 -0.0380
   50RES   C40121079   4.345   7.331   7.476  0.3179 -0.3919  0.1554
   50RES   C40221080   4.440   7.432   7.539 -0.4052  0.2301  0.0810
   50RES   C40321081   4.421   7.456   7.693  0.8021 -0.0134  0.0135
   50RES   C40421082   4.444   7.598   0.015 -0.5915  0.2710 -0.0861
   50RES   C40521083   4.463   7.610   0.170  0.8375  0.1633 -0.2666
   50RES   C40621084   4.480   0.019   0.223  0.2052 -0.1874  1.1539
   50RES   C40721085   4.360   0.112   0.192 -0.8021 -0.0975 -0.3287
   50RES   H40821086   4.368   7.229   7.506  0.0431 -0.6944 -0.6495
   50RES   H40921087   4.246   7.345   7.520  0.5237  1.7290 -0.0127
   50RES   H41021088   4.446   7.523   7.480  0.1068  1.0517  1.3749
   50RES   H41121089   4.486   7.387   0.019 -1.0770 -1.2532  0.7470
   50RES   H41221090   4.318   7.436   7.720  0.1619  1.9572 -0.8709
   50RES   H41321091   4.369   7.666   7.700  0.7354  0.3202 -2.4884
   50RES   H41421092   4.541   7.630   7.704  0.4937 -2.1430  0.5477
   50RES   H41521093   4.378   7.558   0.215  1.7754 -0.3097  0.9723
   50RES   H41621094   4.547   7.548   0.202  2.2421  1.0101 -2.1778
   50RES   H41721095   4.483   0.008   0.331  1.9757  1.3894  1.2800
   50RES   H41821096   4.573   0.066   0.192  1.0749 -1.2522  2.1444
   50RES   H41921097   4.270   0.084   0.245 -0.4966  0.1228  0.3137
   50RES   H42021098   4.351   0.132   0.085 -1.9797 -0.6092 -0.3340
   50RES   H42121099   4.390   0.208   0.234  2.4411 -0.6692 -1.2129
   50RES   H42221100   4.542   7.397   7.523 -0.0723  1.5538 -0.7928
   51RES     C121101   2.839   4.264   3.814 -0.3533  0.2714  0.8943
   51RES     C221102   2.786   4.134   3.741  0.0417  0.0336  0.1652
   51RES     C321103   2.685   4.063   3.834  0.9801  0.4128  0.1243
   51RES     C421104   2.553   4.141   3.853  0.4763  0.2121  0.6040
   51RES     C521105   2.438   4.067   3.920  0.0112 -0.2723 -0.4357
   51RES     C621106   2.327   4.165   3.970 -0.1427  0.2267  0.4968
   51RES     C721107   2.195   4.110   4.014 -0.3441  0.1297 -0.0742
   51RES     H821108   2.755   4.327   3.840 -1.1401  0.2078 -1.4428
   51RES     H921109   2.913   4.315   3.752  1.3526 -1.8342  1.1085
   51RES    H1021110   2.727   4.166   3.655  0.0603 -1.5865 -0.4635
   51RES    H1121111   2.656   3.966   3.794  3.7186 -0.6981  0.7224
   51RES    H1221112   2.730   4.036   3.929  0.1426 -0.6758  0.2277
   51RES    H1321113   2.584   4.223   3.918  0.8635 -1.1817  2.2206
   51RES    H1421114   2.514   4.190   3.764  2.7629 -2.0360 -1.7084
   51RES    H1521115   2.490   4.015   4.000 -1.0773  1.0533  1.1713
   51RES    H1621116   2.403   3.986   3.856  1.6878 -0.7840 -0.7314
   51RES    H1721117   2.299   4.220   3.880 -0.4043 -1.9120 -0.7533
   51RES    H1821118   2.355   4.243   4.042 -1.3099  0.8632  0.2804
   51RES    H1921119   2.206   4.044   4.100 -0.9335 -0.2781 -0.3148
   51RES    H2021120   2.144   4.051   3.938 -0.3274 -0.4284  0.3469
   51RES    H2121121   2.127   4.187   4.050 -1.4662 -0.5185 -0.7902
   51RES    H2221122   2.898   4.236   3.901  0.9407  0.6642  0.1600
   51RES    C2321123   2.898   4.036   3.701  0.4229  1.4162 -0.0703
   51RES    C2421124   2.988   4.093   3.584  0.3616 -0.8267  0.0234
   51RES    C2521125   2.927   4.076   3.445  0.4045 -0.0674  0.4353
   51RES    C2621126   2.925   4.214   3.377  0.5572  0.2555  0.0522
   51RES    C2721127   2.864   4.196   3.233 -0.4895 -0.1656  0.2795
   51RES    C2821128   2.871   4.333   3.154  0.4572 -0.2673 -0.2890
   51RES    C2921129   2.779   4.321   3.028 -0.7754  0.4284  0.3625
   51RES    H3021130   2.947   4.018   3.796 -0.3971 -1.6382 -0.1973
   51RES    H3121131   2.861   3.939   3.669  0.4760  1.3905 -0.0550
   51RES    H3221132   3.005   4.199   3.604 -0.2441 -0.6205 -0.5463
   51RES    H3321133   2.829   4.029   3.453  0.5795 -0.7450 -1.2015
   51RES    H3421134   2.988   4.005   3.389  0.1892 -2.7293  3.4273
   51RES    H3521135   3.031   4.236   3.367  0.8442 -1.3567 -0.6551
   51RES    H3621136   2.882   4.298   3.432 -0.4791  1.1488 -2.0779
   51RES    H3721137   2.764   4.154   3.243  0.0639 -1.9655 -1.3725
   51RES    H3821138   2.918   4.116   3.182 -2.1759 -1.5250  0.5651
   51RES    H3921139   2.970   4.368   3.127  1.5688 -2.8851  0.2177
   51RES    H4021140   2.825   4.410   3.215  1.8130  1.3004 -1.2026
   51RES    H4121141   2.683   4.317   3.081 -2.0975  0.2550 -1.9811
   51RES    H4221142   2.788   4.409   2.965  0.1999  0.5185  0.6229
   51RES    H4321143   2.796   4.228   2.974  0.2060  0.4967  0.5532
   51RES    C4421144   3.129   4.033   3.582 -0.1651 -0.2630 -0.4860
   51RES    C4521145   3.221   4.055   3.709  0.5308  0.1941  1.1345
   51RES    C4621146   3.247   3.927   3.791 -0.0231  0.3228 -0.3058
   51RES    C4721147   3.355   3.837   3.729 -0.4934 -0.1861  0.1973
   51RES    C4821148   3.395   3.714   3.810  0.0922  0.0757  0.7689
   51RES    C4921149   3.441   3.737   3.949  0.5104 -0.0697  0.3289
   51RES    C5021150   3.525   3.625   4.021  0.3532  0.0350  0.1841
   51RES    H5121151   3.182   4.075   3.497  1.6622 -1.9683 -0.2420
   51RES    H5221152   3.115   3.926   3.566 -0.2616 -0.1748 -0.9806
   51RES    H5321153   3.149   4.105   3.773 -1.1825  1.1081 -1.4392
   51RES    H5421154   3.150   3.886   3.821  0.3545  1.1657  2.1538
   51RES    H5521155   3.294   3.965   3.882 -1.9464  1.2764  0.3211
   51RES    H5621156   3.326   3.806   3.628  3.6503 -0.8485 -0.8639
   51RES    H5721157   3.451   3.887   3.716  0.1084 -1.3562  0.0827
   51RES    H5821158   3.472   3.667   3.749  0.4631  0.3777  0.9960
   51RES    H5921159   3.306   3.652   3.818 -0.4859  0.4488 -2.2644
   51RES    H6021160   3.362   3.773   4.014  0.6034  1.7597 -0.5434
   51RES    H6121161   3.516   3.816   3.948 -0.3740  0.7855  1.2218
   51RES    H6221162   3.581   3.580   3.939  0.8979  0.6051  0.2431
   51RES    H6321163   3.468   3.548   4.072 -0.7884 -0.2205 -1.4381
   51RES    H6421164   3.588   3.673   4.095  0.8380  0.6932 -0.6418
   51RES    C6521165   3.347   4.152   3.683  0.3348  1.1122  0.4736
   51RES    C6621166   3.421   4.194   3.811 -0.5496  0.8575 -0.3054
   51RES    C6721167   3.341   4.270   3.916  0.2714  0.1862  0.0635
   51RES    C6821168   3.248   4.385   3.858  0.0838 -0.3997  0.0331
   51RES    C6921169   3.177   4.483   3.953 -0.1798 -0.6575  0.2515
   51RES    C7021170   3.279   4.568   4.030  0.7977 -0.7555 -0.7877
   51RES    C7121171   3.221   4.690   4.109  1.0289 -0.5651  0.2028
   51RES    H7221172   3.419   4.101   3.620  0.0560  0.5940  0.5671
   51RES    H7321173   3.316   4.241   3.630 -0.1285  0.1267 -0.9297
   51RES    H7421174   3.453   4.098   3.853 -1.9432 -0.5381 -2.3490
   51RES    H7521175   3.272   4.197   3.959 -0.4392 -0.5245 -2.1866
   51RES    H7621176   3.401   4.308   3.999 -1.2039 -0.5026  1.4698
   51RES    H7721177   3.301   4.438   3.779 -0.9459  1.5795  0.6570
   51RES    H7821178   3.169   4.336   3.801 -0.1706  0.8905 -0.7289
   51RES    H7921179   3.120   4.559   3.901  0.7880  1.0563  1.6342
   51RES    H8021180   3.118   4.420   4.020 -0.2333 -2.0860 -1.0979
   51RES    H8121181   3.366   4.594   3.970  1.4029 -0.4696  0.2043
   51RES    H8221182   3.316   4.505   4.111  0.5443  0.1625  0.0683
   51RES    H8321183   3.146   4.643   4.173  0.5131  1.2024  0.9123
   51RES    H8421184   3.300   4.731   4.172  1.5659  0.1874 -0.9321
   51RES    H8521185   3.165   4.766   4.054  0.1606 -1.0035  0.4682
   51RES    C8621186   3.549   4.283   3.772 -0.0282 -0.3146 -0.5149
   51RES    C8721187   3.671   4.258   3.871  0.0458  0.1752  0.8618
   51RES    C8821188   3.779   4.154   3.821  0.2608 -0.8393  0.0772
   51RES    C8921189   3.723   4.008   3.822  0.1955 -0.6489  0.5523
   51RES    C9021190   3.819   3.901   3.789  0.1100 -0.6460 -1.1515
   51RES    C9121191   3.873   3.896   3.641 -0.3033 -0.8292  0.2263
   51RES    C9221192   3.752   3.863   3.549 -0.1432  0.4288 -0.6077
   51RES    H9321193   3.576   4.249   3.672  2.0268 -0.9301  0.2330
   51RES    H9421194   3.528   4.389   3.760 -2.1441 -0.1320  3.7716
   51RES    H9521195   3.624   4.213   3.959 -3.8260  1.4386 -0.4727
   51RES    H9621196   3.805   4.184   3.719 -0.3144 -1.4558 -0.2527
   51RES    H9721197   3.870   4.146   3.880  0.5744 -0.5864 -0.3664
   51RES    H9821198   3.686   3.993   3.923 -1.5799 -0.3458 -0.0351
   51RES    H9921199   3.639   3.990   3.755  0.4251 -1.7613  0.5604
   51RES   H10021200   3.769   3.807   3.814  1.4994 -0.7456  1.3530
   51RES   H10121201   3.906   3.890   3.853 -0.3663 -0.6829 -0.5093
   51RES   H10221202   3.931   3.984   3.614  0.2892 -0.3264  2.9590
   51RES   H10321203   3.943   3.815   3.624 -0.9618 -1.1213 -1.1319
   51RES   H10421204   3.682   3.946   3.539 -1.3144 -0.3916  0.5050
   51RES   H10521205   3.708   3.767   3.575  1.2201 -0.7192 -2.4775
   51RES   H10621206   3.793   3.854   3.449  2.2456 -0.7234  0.4343
   51RES   C10721207   3.735   4.383   3.929  0.1901 -0.6561 -0.0782
   51RES   C10821208   3.657   4.487   4.005  0.6623 -0.4688 -0.5389
   51RES   C10921209   3.622   4.437   4.148 -0.3102  0.0649  0.2529
   51RES   C11021210   3.739   4.453   4.245 -0.0907 -0.5501 -0.1237
   51RES   C11121211   3.711   4.423   4.390  0.7449 -0.1955 -0.8940
   51RES   C11221212   3.712   4.271   4.423  0.1614  0.3190 -0.0366
   51RES   C11321213   3.693   4.228   4.567  0.6312  0.2377  0.3501
   51RES   H11421214   3.782   4.431   3.843  0.0994  1.9068  1.2513
   51RES   H11521215   3.813   4.356   4.001  0.9386 -0.6889 -0.8938
   51RES   H11621216   3.561   4.502   3.957  0.7919  2.5185  0.0621
   51RES   H11721217   3.596   4.332   4.135 -0.1434  0.1722 -1.0561
   51RES   H11821218   3.532   4.489   4.181 -0.7116 -0.4764  0.0310
   51RES   H11921219   3.825   4.396   4.212  1.2218  0.8569  0.7806
   51RES   H12021220   3.774   4.557   4.248  0.0043 -0.5773 -0.2975
   51RES   H12121221   3.627   4.481   4.429  2.7563  2.0877  0.2061
   51RES   H12221222   3.791   4.464   4.452 -0.6561  1.2954 -0.0073
   51RES   H12321223   3.628   4.230   4.366  0.9256 -2.1969  0.5696
   51RES   H12421224   3.799   4.218   4.386  0.0236 -1.1947  1.7092
   51RES   H12521225   3.596   4.267   4.598 -0.2307 -1.4765 -0.0988
   51RES   H12621226   3.698   4.119   4.570 -2.4634 -0.0383 -1.6365
   51RES   H12721227   3.761   4.275   4.637 -0.3363  1.2533  0.6224
   51RES   C12821228   3.714   4.633   4.005 -0.3017 -0.2756 -0.6069
   51RES   C12921229   3.715   4.708   3.871 -0.0573 -0.5206 -0.1859
   51RES   C13021230   3.824   4.820   3.871 -0.3548 -0.5458 -0.2428
   51RES   C13121231   3.806   4.946   3.968  0.7164 -0.3420  0.1023
   51RES   C13221232   3.891   5.063   3.936 -0.1951 -0.0118 -0.3395
   51RES   C13321233   3.856   5.136   3.800 -0.5722  0.5017 -0.3635
   51RES   C13421234   3.889   5.286   3.798  0.1750 -0.3530 -0.1674
   51RES   H13521235   3.653   4.692   4.073 -0.0117 -1.4558  0.6895
   51RES   H13621236   3.814   4.641   4.048 -0.6942  1.3380  0.0344
   51RES   H13721237   3.748   4.641   3.792 -0.4460 -0.1149 -0.6947
   51RES   H13821238   3.842   4.857   3.771  0.1642  2.3322  0.8625
   51RES   H13921239   3.928   4.790   3.883 -0.1605  0.9806  2.4339
   51RES   H14021240   3.822   4.922   4.073  0.3893 -0.6500  0.0836
   51RES   H14121241   3.702   4.976   3.959  0.3237 -0.6662  3.1549
   51RES   H14221242   3.999   5.048   3.929 -0.6324 -3.0293 -1.1546
   51RES   H14321243   3.863   5.135   4.013  2.5641  1.6186 -0.7952
   51RES   H14421244   3.750   5.114   3.783 -0.7191  0.3529  0.6916
   51RES   H14521245   3.915   5.082   3.727  1.7202  1.0297  1.0383
   51RES   H14621246   3.888   5.314   3.693  2.0996  1.2696  0.1997
   51RES   H14721247   3.992   5.308   3.827  0.0817  1.5541 -1.2101
   51RES   H14821248   3.820   5.348   3.855  1.4545  1.1908 -0.2351
   51RES   C14921249   3.573   4.751   3.828 -0.4572 -0.2910  0.4881
   51RES   C15021250   3.560   4.825   3.692  0.1528 -0.1488 -0.5412
   51RES   C15121251   3.405   4.863   3.677  0.2695  0.1481  0.3793
   51RES   C15221252   3.365   4.999   3.730 -0.3975 -0.0397  0.0513
   51RES   C15321253   3.217   5.036   3.687  0.0029  0.5095  0.4730
   51RES   C15421254   3.157   5.179   3.702 -0.0140 -0.4633  0.0276
   51RES   C15521255   3.238   5.290   3.632  0.1212  0.1639  0.2622
   51RES   H15621256   3.521   4.655   3.817 -1.0541  0.1084 -0.2065
   51RES   H15721257   3.521   4.799   3.911 -2.6043 -1.1723 -0.2960
   51RES   H15821258   3.616   4.918   3.698  0.7079 -0.4715 -0.6762
   51RES   H15921259   3.382   4.850   3.571 -1.0930  3.2834  0.2285
   51RES   H16021260   3.359   4.778   3.726 -1.7644  1.1674  0.2810
   51RES   H16121261   3.435   5.064   3.677  1.2510 -1.1994  0.7461
   51RES   H16221262   3.382   4.998   3.838 -1.5969  0.0986  0.2507
   51RES   H16321263   3.156   4.956   3.727 -0.0001  0.7728  1.0046
   51RES   H16421264   3.219   5.009   3.581  0.3734  1.7454  0.1453
   51RES   H16521265   3.144   5.211   3.806 -0.0014  0.8248 -0.3628
   51RES   H16621266   3.055   5.192   3.667 -0.0625  1.8945  0.9477
   51RES   H16721267   3.332   5.280   3.686  0.6515  1.0142 -0.5048
   51RES   H16821268   3.200   5.390   3.652 -0.5114 -0.5581  2.9431
   51RES   H16921269   3.275   5.283   3.530  2.1011 -3.3914  1.1243
   51RES   C17021270   3.602   4.744   3.574  0.1072 -0.8395 -0.4348
   51RES   C17121271   3.627   4.827   3.448 -0.1776 -0.1194 -0.0448
   51RES   C17221272   3.766   4.894   3.464  0.0167  0.0736  0.5750
   51RES   C17321273   3.806   4.971   3.334  0.0978 -0.0429  0.0048
   51RES   C17421274   3.929   5.060   3.361 -0.3243  0.0594  0.1514
   51RES   C17521275   3.946   5.164   3.244 -0.3869 -0.5496  0.0786
   51RES   C17621276   4.088   5.217   3.252 -0.3431 -0.0951  0.1039
   51RES   H17721277   3.518   4.676   3.561 -0.4540 -0.6709  2.1173
   51RES   H17821278   3.690   4.684   3.595  0.4145 -0.8981 -1.8735
   51RES   H17921279   3.561   4.913   3.439  1.2436  0.9579 -0.4867
   51RES   H18021280   3.848   4.826   3.486 -0.3197 -0.5792 -0.1832
   51RES   H18121281   3.754   4.971   3.541 -0.0596 -0.0021  0.6386
   51RES   H18221282   3.719   5.024   3.295  0.6285  0.9669  0.1742
   51RES   H18321283   3.842   4.913   3.249 -1.0729 -1.0857  0.2007
   51RES   H18421284   4.021   5.005   3.381 -0.9925 -0.6410  1.3840
   51RES   H18521285   3.919   5.121   3.451  1.2383 -0.4744  0.7115
   51RES   H18621286   3.874   5.246   3.252  0.8688  0.6743 -0.9592
   51RES   H18721287   3.935   5.121   3.144 -0.5492 -1.3131  0.4196
   51RES   H18821288   4.167   5.142   3.250  2.0191  2.3338 -0.3342
   51RES   H18921289   4.111   5.267   3.346  0.3692 -0.1422 -0.0417
   51RES   H19021290   4.110   5.275   3.162 -2.4950  1.4192  0.5167
   51RES   C19121291   3.614   4.759   3.303  0.1752  0.6045 -0.1819
   51RES   C19221292   3.476   4.691   3.266  0.4553 -0.3797 -0.2123
   51RES   C19321293   3.365   4.787   3.274  0.3101 -0.0299  0.0160
   51RES   C19421294   3.227   4.723   3.295  0.0332  0.7083  0.0956
   51RES   C19521295   3.216   4.636   3.419  0.2132 -0.2066 -0.4060
   51RES   C19621296   3.071   4.588   3.452  0.2107  0.0746 -0.0904
   51RES   C19721297   3.062   4.513   3.584 -0.6111  0.0820 -0.6505
   51RES   H19821298   3.686   4.677   3.298  0.6818  1.0471 -0.1010
   51RES   H19921299   3.635   4.822   3.217 -0.1451 -1.3289 -1.7231
   51RES   H20021300   3.462   4.611   3.339  1.0238 -2.2841 -2.1432
   51RES   H20121301   3.366   4.852   3.185  1.8059 -2.4335 -1.7917
   51RES   H20221302   3.373   4.862   3.353 -1.3806 -0.8546  0.9847
   51RES   H20321303   3.203   4.667   3.204 -1.3026  0.9924  0.2690
   51RES   H20421304   3.157   4.806   3.301  0.4999  1.1360 -0.3494
   51RES   H20521305   3.269   4.543   3.401 -0.0922 -0.6292  0.8920
   51RES   H20621306   3.256   4.686   3.507  0.1990 -1.2489  0.1899
   51RES   H20721307   3.047   4.525   3.366  1.2089  2.3138 -2.0452
   51RES   H20821308   2.995   4.666   3.446 -1.6973 -1.7413 -0.6247
   51RES   H20921309   2.964   4.471   3.603 -0.4069 -0.3541 -0.5500
   51RES   H21021310   3.104   4.572   3.666 -2.3196 -1.2488  1.2255
   51RES   H21121311   3.125   4.425   3.569 -0.5808  0.2358 -1.4174
   51RES   C21221312   3.480   4.629   3.128  0.4214  0.0179 -0.3031
   51RES   C21321313   3.554   4.497   3.115 -1.1588 -0.5271  0.6747
   51RES   C21421314   3.455   4.383   3.169 -0.1871 -0.2575 -0.4368
   51RES   C21521315   3.512   4.249   3.219 -0.3135 -0.3795 -0.1164
   51RES   C21621316   3.604   4.185   3.125 -0.8826  1.0789  0.9764
   51RES   C21721317   3.683   4.060   3.174  0.2606  0.0392  0.5101
   51RES   C21821318   3.800   4.096   3.267  0.5100  0.2091  0.2619
   51RES   H21921319   3.518   4.705   3.059 -1.5424  1.1881 -0.1574
   51RES   H22021320   3.378   4.616   3.091  0.4721  1.2830 -0.9393
   51RES   H22121321   3.645   4.503   3.175 -0.4270  0.1154 -0.4807
   51RES   H22221322   3.384   4.425   3.240 -1.5127 -1.4890 -1.0012
   51RES   H22321323   3.382   4.358   3.092 -0.7503 -0.8564  0.2827
   51RES   H22421324   3.432   4.178   3.239  1.0265 -1.7694  0.4108
   51RES   H22521325   3.567   4.269   3.310 -1.6260 -1.1020  0.8529
   51RES   H22621326   3.551   4.153   3.035  0.4132 -1.1914  0.9804
   51RES   H22721327   3.686   4.253   3.102  1.6135 -2.5482 -1.5530
   51RES   H22821328   3.621   3.989   3.228 -0.7269 -0.4278 -1.2082
   51RES   H22921329   3.730   4.027   3.081 -0.5448  1.4600 -0.4266
   51RES   H23021330   3.862   4.176   3.225  2.5113 -0.5980  1.6057
   51RES   H23121331   3.858   4.006   3.287 -1.3319 -1.1163 -0.2879
   51RES   H23221332   3.768   4.123   3.367  0.2095 -0.6202  0.3957
   51RES   C23321333   3.596   4.488   2.965  0.1221 -0.0590  0.1763
   51RES   C23421334   3.724   4.572   2.921  0.5557  0.0284 -1.1721
   51RES   C23521335   3.848   4.493   2.976  0.3478 -0.3593  0.6161
   51RES   C23621336   3.983   4.554   2.940  0.4255 -0.3881 -0.1284
   51RES   C23721337   4.000   4.694   3.006 -0.2569 -0.1952  0.1335
   51RES   C23821338   4.137   4.751   2.999 -0.3272 -0.6531 -0.0331
   51RES   C23921339   4.154   4.871   3.093  0.1904  0.1468  0.2492
   51RES   H24021340   3.507   4.525   2.914 -0.1750 -1.0752 -0.0492
   51RES   H24121341   3.611   4.385   2.933 -1.0735 -0.8161  1.9746
   51RES   H24221342   3.724   4.662   2.982  0.3560 -0.6827 -0.1075
   51RES   H24321343   3.842   4.397   2.925 -0.5135 -0.7251  1.3977
   51RES   H24421344   3.842   4.480   3.084  3.3990  0.8353  0.9843
   51RES   H24521345   3.997   4.570   2.833  0.1062 -2.1072 -0.4460
   51RES   H24621346   4.068   4.488   2.958  1.5202  1.0863  0.1510
   51RES   H24721347   3.971   4.702   3.111  2.0547 -0.6636  0.8318
   51RES   H24821348   3.935   4.760   2.949  0.8479 -3.2714 -5.0080
   51RES   H24921349   4.217   4.680   3.020 -0.2450 -1.2999 -2.3152
   51RES   H25021350   4.153   4.776   2.894  0.3981 -0.2145  0.1829
   51RES   H25121351   4.243   4.927   3.064  0.6276  0.2001  1.6304
   51RES   H25221352   4.075   4.943   3.073 -0.2748 -0.8135 -1.4343
   51RES   H25321353   4.176   4.847   3.197 -2.7741  0.4807  0.9837
   51RES   C25421354   3.720   4.615   2.771  0.3007 -0.2898 -0.2117
   51RES   C25521355   3.638   4.739   2.743  0.0841 -0.6999  0.0004
   51RES   C25621356   3.547   4.721   2.616 -0.9344 -0.2317 -0.4624
   51RES   C25721357   3.636   4.725   2.482  0.4599  0.5286 -0.7270
   51RES   C25821358   3.554   4.713   2.359 -0.9537  0.4976  0.7839
   51RES   C25921359   3.631   4.736   2.226  0.3676  0.4161  0.2094
   51RES   C26021360   3.716   4.622   2.179 -0.2981  0.4821  0.4303
   51RES   H26121361   3.671   4.534   2.717 -2.5045  0.1666  1.5763
   51RES   H26221362   3.820   4.625   2.727 -0.8024  0.9006 -2.5638
   51RES   H26321363   3.562   4.748   2.820  0.1176 -2.0603  0.2021
   51RES   H26421364   3.485   4.807   2.593 -0.2986  0.1936 -0.6121
   51RES   H26521365   3.483   4.634   2.632 -1.1360 -0.1213 -0.6673
   51RES   H26621366   3.683   4.823   2.475  0.8493  0.3139 -1.1472
   51RES   H26721367   3.714   4.650   2.492  0.5559  0.7880  0.4806
   51RES   H26821368   3.472   4.783   2.374 -4.0045 -2.5643 -0.6999
   51RES   H26921369   3.499   4.619   2.369  1.8586 -1.3085  0.0731
   51RES   H27021370   3.558   4.751   2.146 -1.3824 -1.8692  1.3161
   51RES   H27121371   3.686   4.830   2.233 -1.1781  1.3809 -0.1831
   51RES   H27221372   3.760   4.571   2.265 -1.5408 -2.1242 -0.4388
   51RES   H27321373   3.669   4.547   2.116 -0.8292  0.8894  0.3432
   51RES   H27421374   3.801   4.663   2.123 -0.6484  1.3868  0.5486
   51RES   C27521375   3.726   4.863   2.749  1.0440 -0.1838  1.4019
   51RES   C27621376   3.646   4.998   2.774  0.4790 -0.7863  0.0127
   51RES   C27721377   3.734   5.126   2.757 -0.2620 -0.3127  0.1597
   51RES   C27821378   3.771   5.142   2.612 -0.5772  0.0753  0.0864
   51RES   C27921379   3.827   5.281   2.570  0.1937  0.0526  0.1204
   51RES   C28021380   3.731   5.394   2.525  0.5951  0.3640  0.3822
   51RES   C28121381   3.822   5.506   2.474  0.1305  1.1272  0.1427
   51RES   H28221382   3.778   4.874   2.654  0.3609 -1.3169  0.8766
   51RES   H28321383   3.801   4.852   2.827  0.7945  1.3489  1.8602
   51RES   H28421384   3.566   5.007   2.701  2.6654 -3.4696 -2.8902
   51RES   H28521385   3.676   5.216   2.778  2.3025  0.8837  2.2965
   51RES   H28621386   3.822   5.118   2.820  0.0981 -1.7866 -0.5102
   51RES   H28721387   3.688   5.126   2.543  0.4290 -0.4997 -1.0112
   51RES   H28821388   3.847   5.070   2.582 -1.2185 -0.1392 -1.0490
   51RES   H28921389   3.888   5.257   2.482 -0.0652  0.2599 -0.1176
   51RES   H29021390   3.910   5.301   2.638 -0.0468  2.4787 -0.2803
   51RES   H29121391   3.662   5.353   2.451  1.0225 -1.0786  0.7682
   51RES   H29221392   3.676   5.434   2.611 -1.0749  1.7752 -1.2915
   51RES   H29321393   3.873   5.543   2.562  0.4241 -2.0880  1.4080
   51RES   H29421394   3.767   5.578   2.413 -0.6668 -0.7337 -1.3843
   51RES   H29521395   3.904   5.470   2.412  1.3047  1.0666  1.7044
   51RES   C29621396   3.591   4.999   2.918 -0.2727  0.1479 -1.5865
   51RES   C29721397   3.450   5.074   2.931  0.0892 -0.2970  0.0843
   51RES   C29821398   3.431   5.144   3.069  0.0052  0.3669 -0.9032
   51RES   C29921399   3.531   5.257   3.097 -0.2318 -0.1521 -0.7242
   51RES   C30021400   3.488   5.325   3.224 -0.1393  0.1555 -0.2490
   51RES   C30121401   3.613   5.343   3.315  0.3428 -0.2232 -0.7541
   51RES   C30221402   3.562   5.360   3.457 -0.1517  0.2734  0.7650
   51RES   H30321403   3.570   4.897   2.948 -0.0772  0.2028 -1.2640
   51RES   H30421404   3.668   5.035   2.986  0.1254 -0.5533 -1.6666
   51RES   H30521405   3.439   5.157   2.861 -0.2160 -1.1855 -0.9175
   51RES   H30621406   3.335   5.192   3.051 -0.3646 -0.0974 -0.1860
   51RES   H30721407   3.415   5.077   3.153 -0.0636  0.2911 -0.9761
   51RES   H30821408   3.544   5.329   3.016  3.6908  0.1836  0.1155
   51RES   H30921409   3.631   5.217   3.113 -0.4735 -0.3616  0.2347
   51RES   H31021410   3.404   5.284   3.280 -1.6820  1.3393 -1.6469
   51RES   H31121411   3.457   5.428   3.211  0.9474  0.6632  1.0541
   51RES   H31221412   3.682   5.259   3.308 -0.4220 -0.8460 -0.8542
   51RES   H31321413   3.666   5.435   3.294 -1.6828  0.8302 -1.3745
   51RES   H31421414   3.644   5.371   3.528 -0.7837  0.2163  1.5164
   51RES   H31521415   3.517   5.458   3.474  0.5617  0.7865 -0.3007
   51RES   H31621416   3.498   5.277   3.489  0.3403 -0.0161  1.0117
   51RES   C31721417   3.336   4.980   2.879 -0.0283  0.6159  0.9272
   51RES   C31821418   3.208   5.042   2.812  0.0676  0.9133 -0.8217
   51RES   C31921419   3.121   5.123   2.907  0.1994 -0.0088 -0.1329
   51RES   C32021420   3.083   5.066   3.041  0.1736  0.2597 -0.2329
   51RES   C32121421   3.019   5.171   3.126  0.3718  0.3099  0.7844
   51RES   C32221422   2.959   5.106   3.246  0.0336 -0.4727  0.2947
   51RES   C32321423   2.885   5.205   3.330  0.3777 -0.2947 -0.8409
   51RES   H32421424   3.307   4.903   2.951  2.0846 -0.3523  0.7755
   51RES   H32521425   3.383   4.917   2.803 -0.3298 -0.4882  1.6419
   51RES   H32621426   3.154   4.947   2.806  0.0478  0.7899  1.1403
   51RES   H32721427   3.035   5.151   2.846  0.8250  1.7416 -0.2329
   51RES   H32821428   3.169   5.220   2.926  1.2350 -0.9318  2.1835
   51RES   H32921429   3.171   5.030   3.094  0.2211 -0.6404 -0.9135
   51RES   H33021430   3.011   4.985   3.030 -0.8194  1.3437 -2.0421
   51RES   H33121431   2.947   5.225   3.066 -0.0822 -0.3535  0.7211
   51RES   H33221432   3.101   5.239   3.144 -0.9904  2.3398 -0.4739
   51RES   H33321433   3.031   5.057   3.311  2.4397 -1.4202 -2.9440
   51RES   H33421434   2.897   5.023   3.210 -2.1003  2.8944 -4.3363
   51RES   H33521435   2.862   5.155   3.425 -0.6061 -0.9502 -1.4168
   51RES   H33621436   2.787   5.212   3.283  0.6773  0.7837 -1.3231
   51RES   H33721437   2.932   5.303   3.338 -0.5117  0.0870 -0.1019
   51RES   C33821438   3.234   5.100   2.666  0.5591  0.5955  0.0115
   51RES   C33921439   3.107   5.103   2.575  0.3264 -0.9432  0.1613
   51RES   C34021440   3.047   4.963   2.546 -0.0042  0.2924 -0.2405
   51RES   C34121441   3.156   4.863   2.492  0.0818 -0.0804  0.1479
   51RES   C34221442   3.089   4.740   2.425 -0.7584  0.0512 -0.2422
   51RES   C34321443   3.191   4.622   2.410 -0.0214 -0.6514 -0.8170
   51RES   C34421444   3.133   4.511   2.330 -0.1248 -0.6435  0.7212
   51RES   H34521445   3.310   5.042   2.614 -0.2646 -0.2470 -0.2577
   51RES   H34621446   3.284   5.196   2.683 -1.2114  1.2997  1.4183
   51RES   H34721447   3.029   5.146   2.639 -0.4780 -0.0853 -1.3742
   51RES   H34821448   3.018   4.925   2.644  0.6272 -1.7972 -0.8407
   51RES   H34921449   2.963   4.968   2.477 -0.6374  0.9875  0.5624
   51RES   H35021450   3.224   4.831   2.572  2.8030  0.4063 -1.8887
   51RES   H35121451   3.219   4.915   2.419  0.4633 -2.6120 -1.3866
   51RES   H35221452   3.017   4.688   2.488  1.4037 -2.3532  0.2972
   51RES   H35321453   3.037   4.762   2.332  2.5388 -3.1753 -3.0263
   51RES   H35421454   3.267   4.671   2.349 -0.2469  0.4539 -0.2168
   51RES   H35521455   3.240   4.596   2.503  1.5810  1.0089 -1.1679
   51RES   H35621456   3.217   4.442   2.328 -0.2202 -0.7702  1.1709
   51RES   H35721457   3.100   4.541   2.230  0.9681  1.8638  1.0629
   51RES   H35821458   3.062   4.438   2.369 -1.0954 -1.4804 -2.4133
   51RES   C35921459   3.112   5.197   2.444  0.5482 -0.2918  0.0451
   51RES   C36021460   3.074   5.347   2.476  0.6216 -0.3651  0.5854
   51RES   C36121461   3.122   5.434   2.363 -0.5694 -0.0656 -0.6519
   51RES   C36221462   3.278   5.460   2.363  0.0554  0.0237  0.7916
   51RES   C36321463   3.342   5.529   2.238 -0.6108 -0.0230 -0.8099
   51RES   C36421464   3.491   5.530   2.230 -0.2137  0.1749  0.2771
   51RES   C36521465   3.527   5.562   2.082 -0.2615  0.5492  0.4695
   51RES   H36621466   3.047   5.159   2.365  0.8268  0.4065 -0.5219
   51RES   H36721467   3.206   5.196   2.390  1.2502  1.8355  1.1411
   51RES   H36821468   3.119   5.371   2.573 -0.8816  1.0741  0.9416
   51RES   H36921469   3.088   5.392   2.269 -2.1888 -2.5740  0.9866
   51RES   H37021470   3.071   5.530   2.372  0.4363  0.2860  1.9505
   51RES   H37121471   3.310   5.513   2.453  0.4938 -0.9341  1.2098
   51RES   H37221472   3.322   5.361   2.377  1.4066  0.5350  0.2234
   51RES   H37321473   3.305   5.463   2.160  0.6535 -1.9158  0.1377
   51RES   H37421474   3.301   5.624   2.204 -0.9720 -0.0929 -0.5618
   51RES   H37521475   3.541   5.583   2.311 -2.2652  3.0128 -0.2229
   51RES   H37621476   3.509   5.425   2.249 -1.6164 -0.3927 -1.3780
   51RES   H37721477   3.452   5.521   2.014 -0.2488 -0.9900  1.3433
   51RES   H37821478   3.538   5.668   2.062 -0.6494  0.9346  2.2553
   51RES   H37921479   3.625   5.517   2.063 -0.3177 -0.9078  3.3614
   51RES   C38021480   2.920   5.364   2.494 -0.9391  0.3114 -0.0327
   51RES   C38121481   2.880   5.498   2.570 -0.0040  0.6881 -0.2888
   51RES   C38221482   2.733   5.529   2.543 -0.4348  0.6006 -1.0320
   51RES   C38321483   2.699   5.593   2.411  0.4105 -0.1448  0.1376
   51RES   C38421484   2.552   5.634   2.411 -0.1607 -0.3860  0.5604
   51RES   C38521485   2.507   5.705   2.286  0.3634  0.2636  0.2136
   51RES   C38621486   2.366   5.767   2.282 -0.6193  0.5199 -0.2580
   51RES   H38721487   2.884   5.365   2.391  1.9717 -0.2751 -1.0755
   51RES   H38821488   2.882   5.273   2.539  0.8790 -0.1951  0.5046
   51RES   H38921489   2.947   5.577   2.535  1.4524  0.4008  1.7669
   51RES   H39021490   2.685   5.587   2.622 -1.1065 -2.2893  0.7581
   51RES   H39121491   2.684   5.432   2.547 -0.0363  0.3102 -2.9939
   51RES   H39221492   2.753   5.686   2.391 -0.1431  0.2067  0.2525
   51RES   H39321493   2.725   5.533   2.324 -2.1780 -1.0495 -0.0624
   51RES   H39421494   2.491   5.545   2.430 -0.0911 -0.3602  0.9037
   51RES   H39521495   2.535   5.711   2.485 -0.8550  1.3565 -1.3443
   51RES   H39621496   2.511   5.637   2.201  1.8941 -0.2842  0.7126
   51RES   H39721497   2.578   5.785   2.264  1.9181 -1.4573 -1.1181
   51RES   H39821498   2.343   5.801   2.182 -0.0318 -1.3680 -1.0561
   51RES   H39921499   2.372   5.848   2.355  2.4839 -2.2000  2.7012
   51RES   H40021500   2.297   5.693   2.324  2.7778 -0.8034  3.3482
   51RES   C40121501   2.917   5.491   2.718 -0.0200  0.0550  0.0870
   51RES   C40221502   2.920   5.626   2.798  1.2262  0.1712 -0.9393
   51RES   C40321503   2.941   5.592   2.945 -0.0439 -0.6240  0.3825
   51RES   C40421504   2.927   5.713   3.034  0.3935 -0.3949 -0.4365
   51RES   C40521505   2.947   5.670   3.183 -0.5750 -0.7011  0.0916
   51RES   C40621506   2.825   5.606   3.256 -0.5742  0.1060  0.3618
   51RES   C40721507   2.838   5.629   3.408  0.9278  0.2981 -0.1615
   51RES   H40821508   3.008   5.433   2.735 -0.0216 -0.1731 -0.6818
   51RES   H40921509   2.841   5.423   2.755 -0.0031 -0.6954 -1.2388
   51RES   H41021510   2.822   5.671   2.780  1.4926  0.5788 -1.3513
   51RES   H41121511   3.031   5.532   2.960 -0.4471 -0.7409  2.5381
   51RES   H41221512   2.864   5.522   2.978 -0.6291  0.0375  0.4553
   51RES   H41321513   2.827   5.749   3.013  0.4976 -0.7800 -1.6352
   51RES   H41421514   2.990   5.799   3.008 -1.2421  1.4728  1.6023
   51RES   H41521515   3.020   5.594   3.209 -1.1261 -0.7733  1.4722
   51RES   H41621516   2.974   5.762   3.234  2.1861 -0.6866 -1.3342
   51RES   H41721517   2.735   5.648   3.210 -0.6761  0.4874  0.9059
   51RES   H41821518   2.814   5.499   3.240 -1.0721 -0.0560  1.7476
   51RES   H41921519   2.920   5.570   3.450  0.0270 -0.7367  0.1654
   51RES   H42021520   2.747   5.590   3.453 -0.0177  0.3670 -1.9635
   51RES   H42121521   2.832   5.733   3.439 -0.7484  0.6383 -1.5593
   51RES   H42221522   2.987   5.706   2.769 -0.7874  1.8215 -1.1441
   52RES     C121523   0.374   5.123   2.238 -0.0205  0.0379 -0.0625
   52RES     C221524   0.424   5.114   2.098  0.3977 -0.5681 -0.1719
   52RES     C321525   0.564   5.048   2.103  0.3194 -0.5313 -0.0074
   52RES     C421526   0.579   4.908   2.175  0.6586 -0.3289  0.2837
   52RES     C521527   0.723   4.866   2.212 -1.4504  0.2746  0.7663
   52RES     C621528   0.816   4.844   2.088 -0.7853  0.4740 -0.2232
   52RES     C721529   0.790   4.716   2.006  0.1907  0.0354  0.2171
   52RES     H821530   0.346   5.027   2.282 -0.4143  0.4544  0.6035
   52RES     H921531   0.281   5.180   2.248 -0.4430 -0.6915  0.2271
   52RES    H1021532   0.356   5.039   2.057 -0.0938 -0.6036  0.7084
   52RES    H1121533   0.587   5.015   2.002  1.1695  1.2544 -0.4189
   52RES    H1221534   0.632   5.129   2.131  0.6510 -0.3184 -1.4016
   52RES    H1321535   0.532   4.908   2.273 -0.0868 -0.6630 -0.0669
   52RES    H1421536   0.534   4.825   2.119  1.9468 -0.2565 -0.8773
   52RES    H1521537   0.727   4.785   2.285  1.1953  0.1169  0.4655
   52RES    H1621538   0.766   4.947   2.272 -2.2006  1.2468  0.0015
   52RES    H1721539   0.918   4.843   2.126 -0.3691  0.4435 -1.3332
   52RES    H1821540   0.816   4.928   2.018  1.6444 -0.4395 -1.3856
   52RES    H1921541   0.822   4.628   2.062 -1.7635 -1.3176 -0.7511
   52RES    H2021542   0.868   4.712   1.931  1.8811  1.3850  1.8503
   52RES    H2121543   0.688   4.707   1.968  0.5096 -0.3297 -0.5558
   52RES    H2221544   0.442   5.156   2.316  0.5939  0.2997 -0.7054
   52RES    C2321545   0.425   5.253   2.013  1.1073  0.0350  0.3865
   52RES    C2421546   0.414   5.225   1.864  0.1404 -0.1829 -0.4835
   52RES    C2521547   0.545   5.244   1.794 -0.3234  0.2775 -0.0683
   52RES    C2621548   0.570   5.184   1.656  0.4369  0.3468 -0.2969
   52RES    C2721549   0.711   5.226   1.591 -0.0493  0.4659  0.0723
   52RES    C2821550   0.715   5.201   1.444 -0.0705 -0.2411  0.0631
   52RES    C2921551   0.827   5.268   1.373 -0.2861  0.6435 -0.0437
   52RES    H3021552   0.347   5.318   2.054 -0.3260 -0.5468 -1.3475
   52RES    H3121553   0.514   5.312   2.035  1.5760  0.3093 -2.1236
   52RES    H3221554   0.401   5.117   1.860  0.5421 -0.3055  1.3470
   52RES    H3321555   0.623   5.193   1.852  0.7324  2.0305  0.1056
   52RES    H3421556   0.571   5.350   1.796 -0.7691  0.3831  1.3364
   52RES    H3521557   0.489   5.203   1.585 -0.3797 -1.0174  0.2282
   52RES    H3621558   0.570   5.075   1.664 -2.5716  0.3388  0.2854
   52RES    H3721559   0.793   5.175   1.642  0.5348  1.1379 -0.1936
   52RES    H3821560   0.721   5.334   1.599  2.8723  0.1362  1.6408
   52RES    H3921561   0.619   5.232   1.401 -0.3510  0.2670  1.0430
   52RES    H4021562   0.719   5.095   1.419  0.6705 -0.4735  1.1358
   52RES    H4121563   0.921   5.227   1.409  0.2806 -0.7171 -2.9290
   52RES    H4221564   0.826   5.255   1.265  1.6637  1.3187 -0.1581
   52RES    H4321565   0.833   5.376   1.387  0.7442  0.4751  0.8243
   52RES    C4421566   0.298   5.305   1.796 -0.2214  0.2756 -0.8082
   52RES    C4521567   0.163   5.227   1.812  0.8773  0.8191 -0.4732
   52RES    C4621568   0.094   5.254   1.958 -0.7492 -0.9086  1.3614
   52RES    C4721569   7.685   5.192   1.967  0.5401  0.1206  0.0700
   52RES    C4821570   7.644   5.193   2.112  0.4349 -0.4830 -0.7244
   52RES    C4921571   7.621   5.343   2.161  0.4686 -0.0580 -0.0223
   52RES    C5021572   7.562   5.349   2.294  0.2628 -0.1733 -0.6645
   52RES    H5121573   0.324   5.324   1.692  0.7926 -1.3069 -0.8565
   52RES    H5221574   0.280   5.405   1.836 -2.0082  0.9743 -3.2361
   52RES    H5321575   0.193   5.125   1.789 -1.6676  0.0159 -0.3968
   52RES    H5421576   0.102   5.358   1.987 -1.6868 -0.6240  0.5836
   52RES    H5521577   0.166   5.198   2.018  2.3393  0.9417 -0.4324
   52RES    H5621578   7.610   5.244   1.908 -1.4788 -3.9230 -1.1114
   52RES    H5721579   7.689   5.088   1.935  0.8303  0.3266 -0.5728
   52RES    H5821580   7.703   5.136   2.184 -2.1713 -0.7839  1.2459
   52RES    H5921581   7.547   5.142   2.119 -0.7035  1.6530 -0.6661
   52RES    H6021582   7.545   5.397   2.103 -0.5618  0.6484  1.9342
   52RES    H6121583   7.715   5.399   2.161  0.5417 -0.1810  0.2151
   52RES    H6221584   7.623   5.307   2.374 -0.7647  0.3156  0.3843
   52RES    H6321585   7.461   5.308   2.289 -0.3610  1.5279 -2.7334
   52RES    H6421586   7.545   5.450   2.332  0.4308 -1.0261  1.7113
   52RES    C6521587   0.070   5.265   1.695  0.0039  0.1201  0.2347
   52RES    C6621588   0.051   5.184   1.569  0.5036 -0.0147 -0.2725
   52RES    C6721589   7.713   5.046   1.607  0.6669  0.3653 -0.4511
   52RES    C6821590   7.660   4.959   1.492  0.2399  0.3188 -0.1644
   52RES    C6921591   7.596   4.825   1.541 -0.0477 -0.3393  0.0836
   52RES    C7021592   7.534   4.741   1.428  0.4653  0.4978 -0.1610
   52RES    C7121593   7.631   4.680   1.332 -0.6405  0.9117  0.2397
   52RES    H7221594   7.706   5.315   1.729 -0.3889  0.1302 -0.8130
   52RES    H7321595   0.109   5.357   1.651 -1.0443  0.3399 -0.2561
   52RES    H7421596   7.714   5.241   1.502  1.8669  2.7063  0.6648
   52RES    H7521597   0.065   4.989   1.655 -0.9923  0.0597  2.0064
   52RES    H7621598   7.643   5.042   1.691  1.8835 -0.4833  0.5349
   52RES    H7721599   7.586   5.022   1.442 -1.8301  0.2386  2.6769
   52RES    H7821600   0.007   4.937   1.414 -1.8770 -2.0368 -1.5982
   52RES    H7921601   7.675   4.770   1.593 -0.0893  1.3552  1.9979
   52RES    H8021602   7.515   4.849   1.610  1.3238  1.2223  1.2132
   52RES    H8121603   7.473   4.804   1.365  0.0467 -0.8214 -1.1008
   52RES    H8221604   7.473   4.664   1.476  1.5200 -0.2917 -0.0650
   52RES    H8321605   7.703   4.745   1.281  1.0363 -0.7756  0.4071
   52RES    H8421606   7.702   4.610   1.375 -1.8725 -0.4214  0.1521
   52RES    H8521607   7.580   4.627   1.251  1.3331  1.1018 -1.1842
   52RES    C8621608   0.182   5.159   1.485  0.5351 -0.7998  0.0499
   52RES    C8721609   0.258   5.264   1.405  0.6839 -0.7306 -0.6600
   52RES    C8821610   0.339   5.202   1.285  0.0707  0.1612  0.5039
   52RES    C8921611   0.414   5.066   1.308 -0.0959 -0.6207  0.7725
   52RES    C9021612   0.511   5.048   1.185  0.3305  1.4448  0.2804
   52RES    C9121613   0.594   4.923   1.196  0.4800 -0.0820  0.1666
   52RES    C9221614   0.677   4.883   1.066 -0.2174  0.2140  0.3471
   52RES    H9321615   0.243   5.096   1.550 -0.1477 -1.1549  0.3624
   52RES    H9421616   0.147   5.092   1.406 -1.1911 -1.3427  1.2320
   52RES    H9521617   0.328   5.296   1.482 -1.2293  0.1831  0.7626
   52RES    H9621618   0.264   5.185   1.207 -1.4701 -3.1060  2.6010
   52RES    H9721619   0.417   5.271   1.255  0.7514 -1.0252 -0.5366
   52RES    H9821620   0.459   5.068   1.407  0.1770  1.1223  0.6341
   52RES    H9921621   0.352   4.977   1.321  0.2673 -0.8894  0.6734
   52RES   H10021622   0.588   5.125   1.176  1.1912  0.5449 -0.2015
   52RES   H10121623   0.456   5.040   1.091 -1.3465  0.8222  1.3013
   52RES   H10221624   0.659   4.917   1.283  2.2804 -1.7575 -1.2538
   52RES   H10321625   0.512   4.851   1.204  1.2504 -1.2007 -1.6386
   52RES   H10421626   0.752   4.959   1.047 -0.3487  0.0060 -1.0118
   52RES   H10521627   0.610   4.894   0.981 -0.0762  0.6638  0.2903
   52RES   H10621628   0.710   4.779   1.070 -0.0343  0.2820  0.6285
   52RES   C10721629   0.159   5.376   1.360 -0.4163  0.0086  0.1377
   52RES   C10821630   0.235   5.495   1.283 -0.5294 -0.1836 -0.3393
   52RES   C10921631   0.126   5.583   1.211  0.2681  0.0100 -0.0155
   52RES   C11021632   0.041   5.677   1.302  0.0872 -0.1081  0.9080
   52RES   C11121633   7.613   5.668   1.287  0.0588  0.1516 -0.7129
   52RES   C11221634   7.570   5.739   1.157  0.2433  0.2986  0.4903
   52RES   C11321635   7.419   5.763   1.171  0.4964 -0.4022 -0.2722
   52RES   H11421636   0.111   5.421   1.447 -0.0806  0.0814  0.2865
   52RES   H11521637   0.090   5.319   1.298 -2.4405  0.3999  1.9325
   52RES   H11621638   0.289   5.448   1.201  0.2400 -1.5063  0.9004
   52RES   H11721639   0.060   5.523   1.148 -0.7770  0.6752  0.4286
   52RES   H11821640   0.181   5.652   1.147  2.6892 -0.8123  1.1063
   52RES   H11921641   0.064   5.667   1.408  0.7352 -0.7703  0.7089
   52RES   H12021642   0.072   5.779   1.282  0.4117 -0.1918  0.9910
   52RES   H12121643   7.575   5.717   1.376 -1.1954  1.6555 -2.0457
   52RES   H12221644   7.572   5.567   1.287 -0.3804  0.3289 -1.2363
   52RES   H12321645   7.620   5.836   1.152 -1.4338  1.1697  0.0108
   52RES   H12421646   7.597   5.691   1.064 -1.1589  0.5655 -0.0698
   52RES   H12521647   7.385   5.824   1.087 -0.0085  0.3869  0.4976
   52RES   H12621648   7.370   5.666   1.163  0.9197 -0.6734  0.3496
   52RES   H12721649   7.396   5.809   1.267  0.0766  1.4431 -1.2385
   52RES   C12821650   0.338   5.570   1.371 -0.1200 -0.3191 -0.1685
   52RES   C12921651   0.441   5.648   1.292 -0.5049  0.3094  0.7102
   52RES   C13021652   0.546   5.545   1.253  1.1321  0.0199  0.0718
   52RES   C13121653   0.635   5.589   1.134  0.1734  0.7272 -0.0936
   52RES   C13221654   0.556   5.608   1.003 -0.9995 -0.0106 -0.1834
   52RES   C13321655   0.466   5.492   0.952  0.3413 -0.1907  0.3809
   52RES   C13421656   0.536   5.357   0.940  0.1025 -0.3394  0.3405
   52RES   H13521657   0.278   5.638   1.432 -3.1379  0.6014 -3.9355
   52RES   H13621658   0.387   5.499   1.437  1.7500 -0.2295 -1.4289
   52RES   H13721659   0.391   5.688   1.204  1.2675  1.6247  0.2780
   52RES   H13821660   0.492   5.462   1.207  1.9348 -1.1000  1.1158
   52RES   H13921661   0.601   5.503   1.337  0.6851 -0.9845 -0.1314
   52RES   H14021662   0.713   5.514   1.120  0.6485  1.3309 -0.7752
   52RES   H14121663   0.691   5.681   1.153  1.7107 -0.3269  0.5467
   52RES   H14221664   0.632   5.627   0.927 -2.6403 -1.6766 -2.2806
   52RES   H14321665   0.491   5.695   1.009 -2.9053 -1.3520 -0.9330
   52RES   H14421666   0.436   5.506   0.848  0.5092  0.1611  0.3787
   52RES   H14521667   0.374   5.484   1.010 -0.4938 -0.4636 -0.9503
   52RES   H14621668   0.566   5.321   1.038 -0.9036 -0.6308  0.5403
   52RES   H14721669   0.616   5.350   0.865 -0.0133  2.4548 -0.0700
   52RES   H14821670   0.459   5.289   0.903  1.4205 -0.5510 -2.2057
   52RES   C14921671   0.512   5.758   1.373  0.4633  0.2143 -0.3946
   52RES   C15021672   0.450   5.896   1.365 -0.1964  0.3951  0.0424
   52RES   C15121673   0.480   5.969   1.226  0.4745  0.2613 -0.3994
   52RES   C15221674   0.364   6.044   1.151 -0.1172  0.3697  0.0168
   52RES   C15321675   0.368   6.047   1.001 -0.6517  0.1730  0.0887
   52RES   C15421676   0.444   6.170   0.937  0.8931  0.3752 -0.5626
   52RES   C15521677   0.460   6.158   0.787 -0.1741 -0.2378  0.3838
   52RES   H15621678   0.504   5.725   1.476 -1.0161 -0.6085 -0.7586
   52RES   H15721679   0.617   5.776   1.347  0.8727 -1.4330  0.0944
   52RES   H15821680   0.342   5.888   1.372  0.0283 -1.0186  2.5135
   52RES   H15921681   0.556   6.046   1.244  0.7354 -0.0385 -0.2025
   52RES   H16021682   0.520   5.894   1.158 -0.2479 -2.5525  2.1466
   52RES   H16121683   0.337   6.139   1.198  1.4685 -0.2572  2.2739
   52RES   H16221684   0.279   5.976   1.163  0.0039  0.1048 -0.6360
   52RES   H16321685   0.263   6.043   0.969 -0.1289  0.0367 -1.6441
   52RES   H16421686   0.424   5.963   0.959  1.6211  1.4420  0.5355
   52RES   H16521687   0.530   6.190   1.000 -0.9628  0.8876  1.8981
   52RES   H16621688   0.372   6.249   0.959  0.9049  0.6470 -1.4707
   52RES   H16721689   0.374   6.120   0.731  0.4321  2.1717 -2.2795
   52RES   H16821690   0.534   6.081   0.765  0.4063  1.1038 -2.4884
   52RES   H16921691   0.497   6.252   0.747  1.5749  0.0446  2.5526
   52RES   C17021692   0.496   5.988   1.479  0.2135  0.3946  0.0032
   52RES   C17121693   0.437   5.956   1.623 -0.0799 -0.2241  0.3604
   52RES   C17221694   0.533   6.013   1.727 -0.3182  0.5511  0.3403
   52RES   C17321695   0.673   5.934   1.743 -0.0074  0.0861  0.2372
   52RES   C17421696   0.665   5.789   1.789 -0.2714  0.2678 -0.2158
   52RES   C17521697   0.600   5.761   1.929 -0.6628  0.2373  0.2917
   52RES   C17621698   0.560   5.617   1.952 -0.0268  0.0544 -0.1496
   52RES   H17721699   0.464   6.091   1.461  0.7099  0.4802 -0.3986
   52RES   H17821700   0.605   5.993   1.485  0.0639  2.1208  1.8590
   52RES   H17921701   0.418   5.848   1.627 -2.3117  0.1581  0.6620
   52RES   H18021702   0.486   6.020   1.825 -0.1165 -0.4804  0.5128
   52RES   H18121703   0.563   6.117   1.713  1.9359 -0.2714 -1.1692
   52RES   H18221704   0.742   5.980   1.813 -0.8658 -1.3298  2.0504
   52RES   H18321705   0.729   5.941   1.649  0.9936 -0.4468  0.7930
   52RES   H18421706   0.765   5.745   1.795  0.9167  3.0078  0.7399
   52RES   H18521707   0.611   5.734   1.712 -1.1912  0.1413  0.5054
   52RES   H18621708   0.497   5.793   1.919 -0.7307 -0.3721 -1.1622
   52RES   H18721709   0.644   5.808   2.017  2.9934 -0.3383 -1.1065
   52RES   H18821710   0.652   5.559   1.963  0.5439  0.7084 -1.4054
   52RES   H18921711   0.491   5.576   1.878  2.3299  1.6260 -3.3379
   52RES   H19021712   0.519   5.607   2.053 -4.0016 -0.2419 -1.6895
   52RES   C19121713   0.294   6.009   1.637 -0.6756  0.0858  0.4161
   52RES   C19221714   0.215   5.963   1.759 -0.3070 -0.1989 -0.6443
   52RES   C19321715   0.105   6.068   1.772  0.3461 -0.2487  0.3210
   52RES   C19421716   0.155   6.194   1.860 -0.9320 -0.3256  0.4447
   52RES   C19521717   0.040   6.287   1.905  0.1225  0.1648  0.6235
   52RES   C19621718   7.685   6.240   2.018  0.4522 -0.4768 -0.4008
   52RES   C19721719   0.011   6.261   2.167  0.1802  0.2723 -0.4283
   52RES   H19821720   0.224   5.992   1.555 -0.5661 -1.4794  0.6299
   52RES   H19921721   0.312   6.117   1.643 -0.3729  0.0662 -0.1410
   52RES   H20021722   0.281   5.956   1.845 -0.7530  1.2751 -0.1624
   52RES   H20121723   0.017   6.033   1.826 -0.3339  2.2297  0.8690
   52RES   H20221724   0.068   6.090   1.672  1.6302 -0.0425 -0.1278
   52RES   H20321725   0.223   6.254   1.801  0.4282 -1.7284  0.5592
   52RES   H20421726   0.210   6.161   1.948 -0.8347  3.9064  2.0772
   52RES   H20521727   0.089   6.381   1.929 -0.3598  0.7752 -0.7778
   52RES   H20621728   7.698   6.304   1.823  2.1116 -0.9496 -1.3195
   52RES   H20721729   7.666   6.135   1.998 -0.0086 -0.6032  0.6608
   52RES   H20821730   7.581   6.273   2.016  0.4267 -0.5168 -3.9873
   52RES   H20921731   0.117   6.238   2.177  0.4078  0.0521 -2.8836
   52RES   H21021732   7.682   6.198   2.236  0.5684 -0.5294 -0.8413
   52RES   H21121733   0.001   6.368   2.187  0.6039  0.0571  1.0060
   52RES   C21221734   0.160   5.820   1.740 -0.0519 -0.2891  0.7397
   52RES   C21321735   0.079   5.772   1.859  0.6128 -0.1977 -0.1433
   52RES   C21421736   7.718   5.648   1.825  0.3632 -0.6298 -0.1661
   52RES   C21521737   7.588   5.689   1.761 -0.4416  0.3620 -0.0148
   52RES   C21621738   7.520   5.570   1.689  0.2888 -0.1625  0.1212
   52RES   C21721739   7.402   5.619   1.601 -0.1856 -0.5540  0.5042
   52RES   C21821740   7.357   5.511   1.503  0.3082 -1.4369  0.1744
   52RES   H21921741   0.236   5.745   1.716 -0.3046 -0.1815 -0.4004
   52RES   H22021742   0.093   5.820   1.654 -0.8906 -1.0498  1.3862
   52RES   H22121743   0.002   5.842   1.890  1.2639 -0.7303  2.8529
   52RES   H22221744   0.043   5.576   1.761  0.8707 -2.8747  2.6739
   52RES   H22321745   7.701   5.580   1.908 -0.3449 -0.3428 -0.0747
   52RES   H22421746   7.615   5.767   1.690  1.2066 -0.5033 -0.3655
   52RES   H22521747   7.520   5.735   1.832  0.7071  1.3998  0.4023
   52RES   H22621748   7.592   5.529   1.618  1.3839  1.0406  0.5293
   52RES   H22721749   7.482   5.500   1.764 -0.9872 -0.7226 -1.0257
   52RES   H22821750   7.328   5.669   1.664 -2.1190 -2.2676 -0.3609
   52RES   H22921751   7.443   5.703   1.544 -0.4264  1.6931  3.4824
   52RES   H23021752   7.434   5.440   1.472  0.7789 -1.6615  1.8177
   52RES   H23121753   7.310   5.551   1.413  2.8380 -2.3915 -1.6223
   52RES   H23221754   7.278   5.462   1.560  0.3799 -1.2818  0.4080
   52RES   C23321755   0.186   5.724   1.969 -0.2756 -0.4636 -0.8795
   52RES   C23421756   0.118   5.683   2.111  0.5417  0.1318 -0.5390
   52RES   C23521757   0.222   5.612   2.197 -0.0080  0.4066  0.0457
   52RES   C23621758   0.178   5.556   2.334  0.2729 -0.7135 -0.0470
   52RES   C23721759   0.279   5.447   2.381  0.7482 -0.2199 -0.3643
   52RES   C23821760   0.246   5.378   2.507  0.4476 -0.3600 -0.5484
   52RES   C23921761   0.217   5.469   2.626  0.1700 -0.2984  0.1627
   52RES   H24021762   0.263   5.799   1.987 -2.5424  1.3812  1.4548
   52RES   H24121763   0.234   5.635   1.928  0.5282 -0.9319  1.0568
   52RES   H24221764   0.048   5.601   2.090  1.0610  0.1549 -2.5480
   52RES   H24321765   0.307   5.679   2.209  0.1330 -0.2839  3.4009
   52RES   H24421766   0.249   5.527   2.135  0.3343  1.8624 -1.8513
   52RES   H24521767   0.075   5.522   2.323  0.8142 -1.2438 -4.3876
   52RES   H24621768   0.172   5.641   2.402 -0.7488 -0.6792 -0.1765
   52RES   H24721769   0.382   5.483   2.384  0.3158  1.0518 -0.2019
   52RES   H24821770   0.280   5.376   2.299 -0.9403 -1.5061  0.7044
   52RES   H24921771   0.164   5.311   2.484  0.1528 -1.1388  2.6015
   52RES   H25021772   0.336   5.320   2.527 -0.1601 -0.5383  1.7916
   52RES   H25121773   0.216   5.405   2.714  0.8414 -0.1378  0.2903
   52RES   H25221774   0.284   5.555   2.614  1.2735 -1.3563 -1.4743
   52RES   H25321775   0.118   5.514   2.627 -0.1384 -0.9552 -0.7009
   52RES   C25421776   0.054   5.800   2.179  0.8107  0.5321  0.3178
   52RES   C25521777   7.637   5.775   2.239  0.6654  0.3423  0.5037
   52RES   C25621778   7.532   5.768   2.127  0.5413  0.2838  0.8681
   52RES   C25721779   7.397   5.706   2.175 -0.2887  0.2877  0.6313
   52RES   C25821780   7.335   5.628   2.057 -0.3659  0.3814 -0.2098
   52RES   C25921781   7.198   5.575   2.094 -0.4599 -0.5314 -0.4013
   52RES   C26021782   7.113   5.531   1.979  0.4535 -0.1046  1.0630
   52RES   H26121783   0.042   5.885   2.112 -1.2681  1.0217  1.3058
   52RES   H26221784   0.128   5.828   2.254  1.6335 -1.9354  0.4827
   52RES   H26321785   7.639   5.687   2.303  1.0169  0.9543  1.3568
   52RES   H26421786   7.574   5.698   2.055 -0.6450 -0.3113  0.7495
   52RES   H26521787   7.522   5.867   2.082 -2.8279 -0.1762  0.4903
   52RES   H26621788   7.408   5.637   2.258  1.0704  0.3753  0.5289
   52RES   H26721789   7.325   5.781   2.207 -1.5829  0.2743 -2.0594
   52RES   H26821790   7.393   5.542   2.024 -0.5732 -0.6180  1.9306
   52RES   H26921791   7.318   5.700   1.977 -0.4240  0.3268 -0.2462
   52RES   H27021792   7.213   5.498   2.169 -1.6522 -1.2051 -0.8316
   52RES   H27121793   7.146   5.648   2.156  1.6671  0.1464  0.6345
   52RES   H27221794   7.006   5.521   1.994 -0.0955  1.1358 -1.6710
   52RES   H27321795   7.133   5.592   1.891 -0.7028 -3.5122 -1.7093
   52RES   H27421796   7.129   5.427   1.948 -1.1180 -0.6313  1.9488
   52RES   C27521797   7.599   5.885   2.339 -0.8312  1.2018 -0.0473
   52RES   C27621798   7.680   5.897   2.479  0.0399  0.1541  0.3496
   52RES   C27721799   7.600   5.871   2.604  0.9616  0.4705  0.1616
   52RES   C27821800   7.546   5.722   2.623 -0.1926 -0.4766  0.0556
   52RES   C27921801   7.401   5.708   2.578  0.5423 -0.8071  0.1243
   52RES   C28021802   7.327   5.580   2.630 -0.5735  0.4447  0.1985
   52RES   C28121803   7.200   5.552   2.551  0.6628  0.3680  0.0218
   52RES   H28221804   7.492   5.889   2.359 -0.5845 -0.9056  1.9371
   52RES   H28321805   7.625   5.974   2.283  0.8135  1.8583  1.6550
   52RES   H28421806   0.021   5.813   2.490 -1.4046 -1.0862  0.0378
   52RES   H28521807   7.666   5.889   2.689  1.1915 -1.5559  0.4266
   52RES   H28621808   7.512   5.933   2.621 -0.4399 -0.6927 -2.5355
   52RES   H28721809   7.546   5.696   2.729 -1.1584 -0.9698 -0.0532
   52RES   H28821810   7.611   5.643   2.585  0.3786 -0.2345  0.5251
   52RES   H28921811   7.403   5.694   2.470 -1.0933 -0.1115 -0.0085
   52RES   H29021812   7.349   5.800   2.604  1.7881 -0.0698  0.0366
   52RES   H29121813   7.393   5.494   2.619  1.2999  1.7249  1.1572
   52RES   H29221814   7.302   5.593   2.735 -0.8854  0.7776  0.0837
   52RES   H29321815   7.145   5.462   2.581 -2.1536  2.5270  1.5341
   52RES   H29421816   7.210   5.529   2.445  0.3840  0.8486 -0.1090
   52RES   H29521817   7.136   5.640   2.559  0.3554  0.0505  1.1322
   52RES   C29621818   0.041   6.028   2.484 -0.2519 -0.6882 -0.2005
   52RES   C29721819   0.171   6.038   2.580 -0.0417 -0.1666 -0.4177
   52RES   C29821820   0.221   6.188   2.584  0.6349 -0.8371  0.1826
   52RES   C29921821   0.258   6.266   2.458 -0.1110  0.2982 -0.1210
   52RES   C30021822   0.323   6.404   2.473  0.4607  0.3357  0.0727
   52RES   C30121823   0.457   6.410   2.540 -0.2990 -0.8739  0.7067
   52RES   C30221824   0.508   6.558   2.552 -0.2092  0.0889  0.5045
   52RES   H30321825   0.074   6.059   2.385 -1.0768  1.2286  0.0978
   52RES   H30421826   7.697   6.110   2.503 -0.9319 -1.3682  0.2419
   52RES   H30521827   0.142   6.003   2.680  2.3136 -2.2307 -0.4031
   52RES   H30621828   0.144   6.246   2.635  2.3876  1.1486  0.6712
   52RES   H30721829   0.305   6.191   2.653 -0.7096 -0.6839  1.8406
   52RES   H30821830   0.165   6.290   2.405 -0.6491  0.3788  0.8587
   52RES   H30921831   0.323   6.208   2.391 -0.0902 -1.9062  1.7393
   52RES   H31021832   0.252   6.471   2.523 -0.1501 -0.4873  0.3128
   52RES   H31121833   0.336   6.454   2.378 -0.7874  0.0303 -0.2639
   52RES   H31221834   0.457   6.348   2.630  0.2756 -0.6282  0.8824
   52RES   H31321835   0.527   6.355   2.478 -0.3668 -0.1206 -0.0537
   52RES   H31421836   0.551   6.601   2.462  0.1622 -0.8676  0.2242
   52RES   H31521837   0.437   6.632   2.589  0.0540  0.6073 -0.0147
   52RES   H31621838   0.596   6.556   2.615 -0.6004 -0.1578  1.0460
   52RES   C31721839   0.277   5.937   2.527 -0.3447 -0.1465 -0.0003
   52RES   C31821840   0.411   5.926   2.610  0.0469  1.3751 -0.2703
   52RES   C31921841   0.376   5.869   2.755  0.1194 -0.0863  1.0985
   52RES   C32021842   0.486   5.885   2.864  0.1372 -0.2764  0.5744
   52RES   C32121843   0.424   5.826   2.994 -0.0462  0.7945 -0.4254
   52RES   C32221844   0.537   5.827   3.104  0.0264 -0.0683  0.2596
   52RES   C32321845   0.512   5.729   3.215 -0.0663 -0.4127 -0.5167
   52RES   H32421846   0.307   5.971   2.428 -1.1887 -0.6870 -0.4479
   52RES   H32521847   0.245   5.834   2.512  0.8883 -0.6436  0.7650
   52RES   H32621848   0.449   6.027   2.623  0.5030  1.2074 -0.2882
   52RES   H32721849   0.347   5.764   2.749  2.6639 -0.7503 -0.5345
   52RES   H32821850   0.284   5.905   2.800  0.4245  1.5282  0.4771
   52RES   H32921851   0.515   5.989   2.877  1.1918 -0.7254  1.8891
   52RES   H33021852   0.585   5.841   2.852  0.7917  0.9101  1.5821
   52RES   H33121853   0.382   5.729   2.971  3.0677 -0.5294 -0.7917
   52RES   H33221854   0.339   5.888   3.022  0.1995  0.8294  0.2596
   52RES   H33321855   0.549   5.925   3.149 -1.1414  0.3167 -0.2533
   52RES   H33421856   0.636   5.813   3.060  1.2457  0.4045  2.8054
   52RES   H33521857   0.583   5.746   3.295 -0.8604 -0.7980  0.2801
   52RES   H33621858   0.521   5.628   3.174  1.5990 -1.4317  2.2231
   52RES   H33721859   0.414   5.745   3.260  1.6172  2.3368  2.3599
   52RES   C33821860   0.517   5.835   2.545 -0.2000  0.3067 -0.4548
   52RES   C33921861   0.657   5.898   2.533 -0.1661  0.4453 -0.1366
   52RES   C34021862   0.668   6.027   2.443  0.5681 -0.3619  0.5926
   52RES   C34121863   0.611   6.013   2.304  0.8037 -0.2216 -0.0229
   52RES   C34221864   0.645   6.142   2.229  0.5363  0.5668 -0.0746
   52RES   C34321865   0.597   6.167   2.081  0.2591  0.6418 -0.2039
   52RES   C34421866   0.445   6.193   2.066 -0.0221  0.5552 -0.5289
   52RES   H34521867   0.493   5.806   2.443 -1.0345  2.2560 -0.8267
   52RES   H34621868   0.509   5.735   2.588 -2.7302  0.7141  0.0604
   52RES   H34721869   0.681   5.931   2.634 -0.1900  0.5664 -0.1698
   52RES   H34821870   0.637   6.116   2.498  0.9395  0.7917 -1.0311
   52RES   H34921871   0.773   6.045   2.419  0.2259  0.8521 -0.0570
   52RES   H35021872   0.504   5.993   2.308  0.6664  0.6557  0.9502
   52RES   H35121873   0.638   5.924   2.247  1.2629 -1.0053  1.3762
   52RES   H35221874   0.620   6.233   2.282  0.8555  0.8180 -0.3493
   52RES   H35321875   0.753   6.144   2.214  0.7261  0.3940  1.2084
   52RES   H35421876   0.642   6.261   2.049  1.3487  0.4982  0.8786
   52RES   H35521877   0.635   6.090   2.014  0.2181 -0.5286  1.0929
   52RES   H35621878   0.433   6.250   1.974 -0.0746  0.3321 -0.6583
   52RES   H35721879   0.399   6.258   2.141 -1.8405 -0.6583 -0.5435
   52RES   H35821880   0.394   6.097   2.062 -1.6478  1.1960  2.7517
   52RES   C35921881   0.760   5.795   2.485  0.1144 -0.1323  0.4037
   52RES   C36021882   0.813   5.705   2.600  0.1156  0.1765 -0.0336
   52RES   C36121883   0.901   5.589   2.546 -0.1911  0.4108  0.3676
   52RES   C36221884   0.812   5.468   2.513 -0.0825 -0.0806 -0.1567
   52RES   C36321885   0.875   5.339   2.465 -0.4620 -0.4533 -0.4454
   52RES   C36421886   0.776   5.238   2.407  0.3500 -0.6257 -0.4135
   52RES   C36521887   0.680   5.164   2.508 -0.2201 -0.1177 -0.3683
   52RES   H36621888   0.846   5.845   2.442  0.3352 -0.5809  0.3146
   52RES   H36721889   0.722   5.736   2.401 -0.8330  0.4283  0.4274
   52RES   H36821890   0.722   5.661   2.641  0.2845  0.5487  0.7582
   52RES   H36921891   0.951   5.629   2.457 -0.1520  0.0592  0.2303
   52RES   H37021892   0.968   5.548   2.622  0.9558 -3.1221 -2.3965
   52RES   H37121893   0.744   5.443   2.594 -0.0414  0.9856  0.2130
   52RES   H37221894   0.729   5.492   2.446 -0.8974 -1.3728  0.3756
   52RES   H37321895   0.946   5.360   2.385  1.2121 -2.0628  0.5756
   52RES   H37421896   0.932   5.292   2.545 -0.2167  1.5032  0.5454
   52RES   H37521897   0.713   5.298   2.342 -1.7318 -2.7111 -0.4020
   52RES   H37621898   0.832   5.162   2.353 -1.5562 -2.1463 -0.3112
   52RES   H37721899   0.741   5.121   2.587 -0.9270 -0.4379  0.0138
   52RES   H37821900   0.625   5.241   2.562  0.9753 -0.0864  0.8382
   52RES   H37921901   0.604   5.097   2.468 -0.7245 -0.6858  1.4533
   52RES   C38021902   0.881   5.773   2.716  0.2603  0.1648  0.0866
   52RES   C38121903   0.979   5.889   2.681 -0.3600 -0.0760 -0.2216
   52RES   C38221904   1.048   5.970   2.797 -0.2965 -0.3055 -1.0653
   52RES   C38321905   0.951   6.046   2.886 -0.1423  0.5894  0.3258
   52RES   C38421906   1.025   6.134   2.985  0.3113 -0.1091 -0.4047
   52RES   C38521907   0.930   6.238   3.057  0.5899 -0.8741  0.2372
   52RES   C38621908   0.824   6.174   3.151 -0.6247  0.3642  0.1552
   52RES   H38721909   0.799   5.808   2.779  0.2700 -0.3358  0.3740
   52RES   H38821910   0.946   5.705   2.771 -1.6360 -1.5274  0.2998
   52RES   H38921911   0.912   5.955   2.626  1.3404  1.2267 -0.7598
   52RES   H39021912   1.118   6.043   2.757 -0.7548  0.5015 -0.4205
   52RES   H39121913   1.113   5.902   2.853  1.6199  1.8810 -0.5850
   52RES   H39221914   0.888   6.110   2.825  1.5200  1.2503 -0.7229
   52RES   H39321915   0.895   5.966   2.935 -0.7424 -0.0500 -1.3878
   52RES   H39421916   1.082   6.077   3.057  2.2962  0.0450 -1.8124
   52RES   H39521917   1.103   6.187   2.930 -0.3763 -1.5866 -2.8994
   52RES   H39621918   0.881   6.311   2.992  1.2157  0.5229  1.2879
   52RES   H39721919   0.995   6.294   3.125  0.8682 -0.7602 -0.1244
   52RES   H39821920   0.745   6.128   3.091 -0.1432  1.1797 -1.1253
   52RES   H39921921   0.782   6.251   3.214 -1.3395 -0.2184  0.3958
   52RES   H40021922   0.865   6.102   3.222  0.0905  0.0362 -0.5643
   52RES   C40121923   1.101   5.846   2.595 -0.2469  0.6243  0.4594
   52RES   C40221924   1.157   5.952   2.492 -0.8475 -0.7051  0.1158
   52RES   C40321925   1.277   5.895   2.415  0.5453 -0.8169  0.3103
   52RES   C40421926   1.352   5.998   2.336 -0.3447  0.2230 -0.3560
   52RES   C40521927   1.460   5.932   2.242  0.0178  0.7005 -0.4330
   52RES   C40621928   1.529   6.029   2.152 -0.3954  0.3604 -0.2535
   52RES   C40721929   1.618   5.956   2.044 -0.1110 -0.1031 -0.1846
   52RES   H40821930   1.073   5.764   2.528 -2.1807  0.1489  1.7933
   52RES   H40921931   1.178   5.801   2.657  0.1692  1.4248  0.5363
   52RES   H41021932   1.193   6.039   2.548  1.9455 -0.8325 -1.3691
   52RES   H41121933   1.247   5.817   2.344 -1.7401  0.0373  0.2961
   52RES   H41221934   1.340   5.846   2.490  0.0006  0.5537  1.6875
   52RES   H41321935   1.400   6.070   2.402 -0.6917 -0.2565  0.4199
   52RES   H41421936   1.286   6.065   2.280 -1.1886  0.6912  1.1580
   52RES   H41521937   1.533   5.872   2.296 -0.8415  0.1832  0.1770
   52RES   H41621938   1.418   5.854   2.178 -0.3079 -0.6842  1.4066
   52RES   H41721939   1.459   6.096   2.102 -1.6413  0.5176  1.6524
   52RES   H41821940   1.586   6.097   2.215  1.1069 -0.1725 -1.0225
   52RES   H41921941   1.702   5.907   2.094 -1.5437 -0.8528  1.5527
   52RES   H42021942   1.641   6.027   1.964 -1.4194 -0.2851 -0.7380
   52RES   H42121943   1.557   5.881   1.993 -0.1434  1.5666 -2.6844
   52RES   H42221944   1.076   5.988   2.428 -2.2035 -5.0746 -0.7560
   53RES     C121945   5.289   3.093   1.131  0.4865  0.0832  0.1893
   53RES     C221946   5.398   3.004   1.186  0.4009  0.0495 -0.2565
   53RES     C321947   5.335   2.866   1.243 -0.3238 -0.1943 -0.2594
   53RES     C421948   5.443   2.762   1.289  0.4717  0.1677 -0.2957
   53RES     C521949   5.398   2.626   1.339 -0.8347 -0.0516 -0.6872
   53RES     C621950   5.325   2.553   1.215  0.0385 -0.2671 -0.7385
   53RES     C721951   5.324   2.396   1.238  0.0762  0.9102  0.6221
   53RES     H821952   5.222   3.036   1.067 -0.1636 -0.0811  1.0200
   53RES     H921953   5.318   3.186   1.082  4.5394 -0.3963  1.4140
   53RES    H1021954   5.457   2.975   1.098 -0.7081 -2.9123 -0.1035
   53RES    H1121955   5.271   2.882   1.329 -1.0411  1.6231 -1.1071
   53RES    H1221956   5.276   2.813   1.168  1.3004  1.2063 -2.6134
   53RES    H1321957   5.503   2.740   1.201 -1.5199 -1.7564 -1.1853
   53RES    H1421958   5.508   2.806   1.365  0.6377  0.2412 -0.4785
   53RES    H1521959   5.333   2.644   1.424 -0.2185 -1.4060  0.0806
   53RES    H1621960   5.478   2.564   1.379  1.3834  0.8670 -3.5124
   53RES    H1721961   5.377   2.573   1.121  1.4446 -0.4249 -0.0081
   53RES    H1821962   5.226   2.595   1.199 -0.3712 -0.2013  1.7918
   53RES    H1921963   5.422   2.349   1.252  0.3396  0.7522 -1.6872
   53RES    H2021964   5.277   2.335   1.161  1.2248  1.8322 -0.8314
   53RES    H2121965   5.264   2.370   1.325  0.3711 -0.1481  0.5226
   53RES    H2221966   5.222   3.127   1.210 -1.1093 -0.2370 -0.9987
   53RES    C2321967   5.493   3.076   1.280 -0.6783  0.5527  0.2112
   53RES    C2421968   5.583   3.173   1.190  0.3726  0.5611 -0.0536
   53RES    C2521969   5.703   3.101   1.128 -0.2050  0.4408 -0.4634
   53RES    C2621970   5.812   3.051   1.220 -0.4390  0.0577 -0.2766
   53RES    C2721971   5.919   2.984   1.135 -0.0259  0.2561 -0.2565
   53RES    C2821972   6.011   2.888   1.220  0.9482 -0.3011  0.3081
   53RES    C2921973   6.126   2.828   1.153  0.7079  0.0461  0.2245
   53RES    H3021974   5.440   3.124   1.362  1.3327 -1.4660  2.8290
   53RES    H3121975   5.560   3.007   1.334 -0.8127  1.2226  1.2497
   53RES    H3221976   5.523   3.193   1.102  1.2612  0.1009 -0.7733
   53RES    H3321977   5.745   3.167   1.052  0.6545  0.9320  0.4149
   53RES    H3421978   5.666   3.016   1.071  0.0232 -0.5623  0.8678
   53RES    H3521979   5.763   2.989   1.295 -1.2436  0.6147 -0.3366
   53RES    H3621980   5.850   3.139   1.270  0.7470 -0.9398  0.6106
   53RES    H3721981   5.978   3.069   1.103  0.9735 -0.4796 -0.3826
   53RES    H3821982   5.876   2.924   1.054  0.1831 -0.4158  0.1232
   53RES    H3921983   5.949   2.805   1.255 -0.1067  1.6068  3.2157
   53RES    H4021984   6.030   2.939   1.315 -0.9720  1.1020 -0.0341
   53RES    H4121985   6.172   2.904   1.091 -0.1512  0.2027 -0.2276
   53RES    H4221986   6.202   2.785   1.218  3.2553  2.2589 -1.1943
   53RES    H4321987   6.098   2.749   1.083  1.4874 -0.7837  0.8370
   53RES    C4421988   5.627   3.303   1.265  0.1757 -1.1799 -0.6645
   53RES    C4521989   5.519   3.394   1.332  0.3318  0.2518 -0.2817
   53RES    C4621990   5.575   3.467   1.449 -0.6872  0.3367 -0.2595
   53RES    C4721991   5.669   3.578   1.408 -0.2494 -0.0979 -0.3109
   53RES    C4821992   5.773   3.618   1.519  0.3167 -0.1418 -0.2066
   53RES    C4921993   5.698   3.721   1.616  0.2394  0.3417  0.5751
   53RES    C5021994   5.614   3.661   1.730  0.0138  0.5849 -0.3507
   53RES    H5121995   5.685   3.366   1.198 -1.0635  1.3265  0.5556
   53RES    H5221996   5.694   3.268   1.344 -1.2271  0.3664  1.2523
   53RES    H5321997   5.442   3.334   1.381 -0.3079  2.1003  1.0868
   53RES    H5421998   5.604   3.392   1.522  0.0746 -1.1253 -2.0289
   53RES    H5521999   5.486   3.508   1.496 -0.1858 -0.1176  1.1124
   53RES    H5622000   5.728   3.548   1.322  0.3466  0.9746 -0.2841
   53RES    H5722001   5.612   3.663   1.370  2.2265  0.6891 -2.4707
   53RES    H5822002   5.853   3.667   1.462  2.5945 -2.9680  0.4780
   53RES    H5922003   5.813   3.543   1.587  1.0486 -1.6409 -2.2418
   53RES    H6022004   5.636   3.799   1.571  1.3279  1.1226  0.3980
   53RES    H6122005   5.773   3.777   1.673  0.9635 -0.8839  0.8442
   53RES    H6222006   5.669   3.605   1.805 -0.0239  1.0119  0.0014
   53RES    H6322007   5.554   3.588   1.677  2.6562 -1.4331 -0.6665
   53RES    H6422008   5.545   3.729   1.781  0.3467  0.9737 -0.4084
   53RES    C6522009   5.443   3.478   1.235  0.2836  0.4288 -0.2807
   53RES    C6622010   5.337   3.572   1.280 -0.1183  0.2674  0.0078
   53RES    C6722011   5.220   3.508   1.362 -0.0685  0.3082 -0.2052
   53RES    C6822012   5.118   3.432   1.287 -0.1092  0.5698  0.3045
   53RES    C6922013   5.010   3.357   1.368  0.4533 -1.0593 -0.1016
   53RES    C7022014   4.893   3.278   1.286 -0.4816 -0.5112 -0.2840
   53RES    C7122015   4.802   3.377   1.216 -1.0820  0.4015 -0.0481
   53RES    H7222016   5.515   3.537   1.177  0.4725  3.1719  2.6445
   53RES    H7322017   5.388   3.410   1.169  1.7560 -0.0435 -1.0571
   53RES    H7422018   5.385   3.636   1.355  0.4574 -0.8441  0.6073
   53RES    H7522019   5.262   3.443   1.438  3.8083 -1.1368 -3.3766
   53RES    H7622020   5.169   3.578   1.427 -1.7062 -1.9408  1.0033
   53RES    H7722021   5.074   3.486   1.203  0.0356 -2.7131 -1.9658
   53RES    H7822022   5.170   3.359   1.225 -1.3981  0.5809 -0.8194
   53RES    H7922023   5.064   3.291   1.436  1.9401 -0.9672 -1.1631
   53RES    H8022024   4.970   3.438   1.429  1.3348 -0.0956 -0.7909
   53RES    H8122025   4.836   3.222   1.359  3.2058 -2.3718  1.2699
   53RES    H8222026   4.937   3.202   1.221  1.9856  2.3806 -2.1444
   53RES    H8322027   4.735   3.309   1.164  0.5176  0.5240 -2.3318
   53RES    H8422028   4.735   3.437   1.278 -1.0292  0.3120  0.0951
   53RES    H8522029   4.852   3.448   1.150  1.1355 -0.5877  0.5052
   53RES    C8622030   5.283   3.670   1.172  0.2804 -0.8148  0.0855
   53RES    C8722031   5.179   3.777   1.220 -0.7017 -0.0127 -0.3716
   53RES    C8822032   5.231   3.863   1.332 -0.0408  0.0384  0.5748
   53RES    C8922033   5.367   3.932   1.309  0.5303  0.3765  0.7285
   53RES    C9022034   5.367   4.077   1.350 -0.0449  0.4322 -0.5109
   53RES    C9122035   5.508   4.138   1.341  0.3675 -0.2848 -0.1926
   53RES    C9222036   5.537   4.268   1.419 -0.0747 -0.0871  0.2602
   53RES    H9322037   5.371   3.716   1.126 -1.2688  1.4347 -0.7008
   53RES    H9422038   5.245   3.612   1.088 -0.9445  1.8573 -1.2742
   53RES    H9522039   5.098   3.720   1.264 -0.3485  1.6707  2.5776
   53RES    H9622040   5.159   3.940   1.358 -0.6653 -0.5000  0.4442
   53RES    H9722041   5.225   3.799   1.419  1.9561 -1.6212 -0.4493
   53RES    H9822042   5.433   3.874   1.374 -0.2376 -0.8969  0.3813
   53RES    H9922043   5.403   3.931   1.206  1.0227  0.4927  0.8969
   53RES   H10022044   5.317   4.075   1.446  0.5730 -1.5309 -0.1896
   53RES   H10122045   5.308   4.139   1.283 -0.0443 -0.8168 -1.6896
   53RES   H10222046   5.580   4.075   1.394 -1.6879 -2.0523  0.5569
   53RES   H10322047   5.530   4.161   1.236 -0.9000  0.3121 -0.3375
   53RES   H10422048   5.523   4.256   1.527 -0.0706  1.5896  0.4594
   53RES   H10522049   5.476   4.352   1.385 -2.7244 -1.4918  1.3136
   53RES   H10622050   5.640   4.298   1.403 -0.0713  0.7529  1.7070
   53RES   C10722051   5.134   3.867   1.103 -0.0509  0.0722  0.0144
   53RES   C10822052   5.092   3.794   0.967 -0.2428  0.1774 -0.0833
   53RES   C10922053   4.948   3.735   0.987 -0.3298  0.5876 -0.2695
   53RES   C11022054   4.897   3.645   0.876  0.3638 -0.4363 -0.1516
   53RES   C11122055   4.755   3.585   0.888 -0.0264  0.2165  0.0331
   53RES   C11222056   4.752   3.440   0.852  0.7573  0.0164 -0.2711
   53RES   C11322057   4.758   3.420   0.698  0.5893 -0.3611  0.2375
   53RES   H11422058   5.216   3.937   1.086 -0.8264  1.5278  2.0600
   53RES   H11522059   5.048   3.931   1.121 -2.2091 -2.7964  0.3496
   53RES   H11622060   5.160   3.712   0.944  0.8224  0.7106  1.0540
   53RES   H11722061   4.879   3.818   0.997 -2.2754 -0.8319 -1.6202
   53RES   H11822062   4.934   3.677   1.079 -2.7798  0.0345 -0.9566
   53RES   H11922063   4.896   3.701   0.782 -1.2788  1.4844  0.9865
   53RES   H12022064   4.973   3.567   0.871 -0.8282 -1.5856 -0.5790
   53RES   H12122065   4.680   3.652   0.846  0.2581  1.9028  2.0881
   53RES   H12222066   4.735   3.578   0.995  0.6311  0.2786  0.1638
   53RES   H12322067   4.839   3.388   0.892  0.6842  0.6867  0.7917
   53RES   H12422068   4.671   3.380   0.893 -0.7785  0.4959 -2.5087
   53RES   H12522069   4.856   3.422   0.650  0.2230  0.9157 -0.4669
   53RES   H12622070   4.709   3.323   0.685  3.0757 -1.8861  1.8076
   53RES   H12722071   4.695   3.491   0.644  0.5743 -0.1705  0.5052
   53RES   C12822072   5.093   3.892   0.847 -0.0017 -0.0019  0.0133
   53RES   C12922073   5.241   3.929   0.799  0.5841  0.2879  0.1471
   53RES   C13022074   5.245   4.080   0.771  0.0485  0.4060  0.7976
   53RES   C13122075   5.253   4.167   0.900  0.1765 -0.4149 -0.1245
   53RES   C13222076   5.289   4.314   0.859  0.5329  0.2746  0.3615
   53RES   C13322077   5.291   4.429   0.959 -0.1831 -0.2552  0.2967
   53RES   C13422078   5.389   4.403   1.076 -0.7508 -0.8457  0.5192
   53RES   H13522079   5.045   3.831   0.770  0.0329 -0.1962  0.1462
   53RES   H13622080   5.029   3.977   0.870  1.0765  1.1772 -1.2786
   53RES   H13722081   5.312   3.905   0.878  0.2931  0.7495  0.5542
   53RES   H13822082   5.167   4.104   0.699 -0.2070 -2.1540  0.1665
   53RES   H13922083   5.328   4.104   0.705 -1.1171  0.2217 -0.7693
   53RES   H14022084   5.329   4.129   0.969 -0.3978  1.8492  1.8201
   53RES   H14122085   5.164   4.163   0.963  0.3689 -1.7110  0.0773
   53RES   H14222086   5.214   4.349   0.789 -0.6185 -1.6190  0.6157
   53RES   H14322087   5.387   4.313   0.810 -0.2401  0.6113 -1.2223
   53RES   H14422088   5.187   4.439   0.990 -0.9048  0.9886 -2.4030
   53RES   H14522089   5.322   4.520   0.907 -0.6249 -0.1072  0.2944
   53RES   H14622090   5.477   4.402   1.011 -1.5131 -1.3075 -0.5278
   53RES   H14722091   5.372   4.313   1.135  1.2472  0.4762  3.1966
   53RES   H14822092   5.409   4.492   1.136  1.3394 -0.9508  0.0063
   53RES   C14922093   5.282   3.840   0.685  1.1316 -0.1019 -0.1164
   53RES   C15022094   5.432   3.808   0.664  0.0691 -0.2631 -0.2862
   53RES   C15122095   5.485   3.819   0.514 -0.7277 -0.2558 -0.2984
   53RES   C15222096   5.549   3.944   0.470  0.4872 -0.4478  0.5485
   53RES   C15322097   5.563   3.957   0.317 -0.2916 -0.3399 -1.1120
   53RES   C15422098   5.626   4.093   0.265  0.2193 -0.1410  0.7080
   53RES   C15522099   5.777   4.068   0.272  0.1647  0.0918 -0.0885
   53RES   H15622100   5.229   3.745   0.693  1.0033 -0.2278 -2.2212
   53RES   H15722101   5.247   3.880   0.589 -1.2731  0.0533  0.7725
   53RES   H15822102   5.479   3.893   0.714  1.0403 -1.1759  0.3732
   53RES   H15922103   5.549   3.734   0.490 -0.3401 -0.1683  0.4185
   53RES   H16022104   5.402   3.812   0.444 -1.7888 -0.7793  0.9867
   53RES   H16122105   5.649   3.939   0.513 -0.0987 -0.2258  1.9581
   53RES   H16222106   5.491   4.025   0.513  2.1086 -0.2537  2.4145
   53RES   H16322107   5.466   3.949   0.269 -0.0851  1.5894 -1.8633
   53RES   H16422108   5.618   3.868   0.284  1.4580  0.3054 -0.0530
   53RES   H16522109   5.595   4.173   0.331  1.0817 -0.9632  2.1438
   53RES   H16622110   5.588   4.114   0.165  1.7965  0.0695  0.1391
   53RES   H16722111   5.831   4.149   0.225  0.7626  0.5570  1.3765
   53RES   H16822112   5.797   3.983   0.207 -0.1075  0.4489 -0.6464
   53RES   H16922113   5.805   4.053   0.376 -0.5193  1.3750  0.2899
   53RES   C17022114   5.474   3.677   0.724  0.1261  0.3285 -0.7380
   53RES   C17122115   5.632   3.670   0.750 -0.0865 -0.1931  0.0582
   53RES   C17222116   5.687   3.785   0.842  0.0631 -0.0774 -0.7492
   53RES   C17322117   5.615   3.797   0.984 -0.5145 -0.1925  0.8540
   53RES   C17422118   5.675   3.914   1.065 -0.1377  0.3205  0.5830
   53RES   C17522119   5.819   3.899   1.111  0.1828  0.2328 -1.2657
   53RES   C17622120   5.822   3.829   1.252  0.2433 -0.2811 -0.1053
   53RES   H17722121   5.446   3.593   0.660 -1.2112 -0.1182  0.3995
   53RES   H17822122   5.418   3.655   0.815  0.7787  1.0638 -0.1475
   53RES   H17922123   5.690   3.692   0.660  1.2831  1.0177  1.2020
   53RES   H18022124   5.666   3.879   0.790 -1.4360  0.3744  0.6178
   53RES   H18122125   5.794   3.779   0.856 -0.1387 -0.0441  0.9093
   53RES   H18222126   5.611   3.703   1.038 -1.5149  0.3367  1.7200
   53RES   H18322127   5.509   3.816   0.968 -0.6292  1.1477  2.9892
   53RES   H18422128   5.602   3.927   1.145 -0.8356  0.6414 -0.0982
   53RES   H18522129   5.665   4.009   1.013 -1.7046  0.1626  0.5636
   53RES   H18622130   5.870   3.995   1.121  1.2296 -0.5649  1.3076
   53RES   H18722131   5.878   3.843   1.038  0.1084  0.0602 -1.1931
   53RES   H18822132   5.817   3.720   1.241 -1.7430 -0.2985  0.7800
   53RES   H18922133   5.734   3.869   1.303 -0.2359  0.6392 -1.6325
   53RES   H19022134   5.912   3.860   1.306  0.4000  0.1181 -0.5987
   53RES   C19122135   5.687   3.529   0.787  0.0533 -0.1905 -0.3616
   53RES   C19222136   5.838   3.509   0.804  0.8050  0.0809  0.7515
   53RES   C19322137   5.888   3.499   0.950  0.1600 -0.0775 -0.0522
   53RES   C19422138   6.038   3.514   0.978  1.0420  0.1246 -0.1357
   53RES   C19522139   6.084   3.482   1.119  0.1152 -0.2589  0.3535
   53RES   C19622140   6.229   3.518   1.137  0.9241  0.5748 -0.2831
   53RES   C19722141   6.282   3.475   1.269 -0.1591  0.4452  0.4366
   53RES   H19822142   5.649   3.466   0.706  0.0501 -0.5909 -0.0491
   53RES   H19922143   5.638   3.502   0.880 -0.8166  2.3977 -0.0234
   53RES   H20022144   5.875   3.607   0.772  1.4020 -1.4943 -3.7486
   53RES   H20122145   5.855   3.402   0.988  0.1055 -0.7837 -1.8701
   53RES   H20222146   5.826   3.569   1.006 -1.0959 -2.3630  1.5003
   53RES   H20322147   6.069   3.612   0.941 -3.2081  1.9239  0.7986
   53RES   H20422148   6.092   3.448   0.910 -0.6513 -0.8563 -0.5487
   53RES   H20522149   6.023   3.533   1.195 -0.6489 -2.0391  0.9676
   53RES   H20622150   6.066   3.376   1.135 -0.9036 -0.4820 -2.0840
   53RES   H20722151   6.225   3.626   1.143 -0.1367  0.5048  0.3396
   53RES   H20822152   6.296   3.494   1.054  1.0862 -0.1210  0.0460
   53RES   H20922153   6.209   3.487   1.350 -0.4160 -3.2260  0.8654
   53RES   H21022154   6.380   3.520   1.283 -0.0805  1.2303 -2.3184
   53RES   H21122155   6.319   3.372   1.272  2.3888  1.2349 -1.8745
   53RES   C21222156   5.887   3.392   0.715  0.0025  0.3153 -0.3284
   53RES   C21322157   5.872   3.239   0.748 -0.5868 -0.5549 -0.2679
   53RES   C21422158   5.727   3.194   0.726 -0.3352 -0.1677  0.1967
   53RES   C21522159   5.696   3.038   0.751  0.4347  0.6548 -0.1852
   53RES   C21622160   5.555   3.020   0.788  0.3645  0.1735 -0.2908
   53RES   C21722161   5.502   2.877   0.819  0.2255  0.1499 -0.1833
   53RES   C21822162   5.351   2.867   0.819  0.8171  0.6239  0.5219
   53RES   H21922163   5.995   3.403   0.726  0.3868 -1.4540 -1.9514
   53RES   H22022164   5.852   3.406   0.613 -0.5496  2.2243  0.1123
   53RES   H22122165   5.904   3.216   0.849  0.1942  0.6783 -0.2260
   53RES   H22222166   5.675   3.255   0.800  0.1277  0.8533 -0.3032
   53RES   H22322167   5.698   3.225   0.626  0.0635  0.7280  0.3533
   53RES   H22422168   5.764   2.986   0.818 -0.4885  0.2129  0.4200
   53RES   H22522169   5.707   2.989   0.654  2.9596 -0.3996  0.5940
   53RES   H22622170   5.543   3.091   0.870 -0.8060  2.1460 -2.1174
   53RES   H22722171   5.492   3.059   0.708  0.3627  1.2305  0.2247
   53RES   H22822172   5.549   2.814   0.744  1.4137 -0.8692  1.4119
   53RES   H22922173   5.541   2.837   0.912 -0.7674  0.9161  0.5791
   53RES   H23022174   5.304   2.901   0.911 -3.0345 -0.2674 -1.0030
   53RES   H23122175   5.336   2.760   0.804  2.0222  0.3499  1.2244
   53RES   H23222176   5.311   2.921   0.732  0.2651  0.0474  0.4158
   53RES   C23322177   5.964   3.151   0.657  0.5642 -0.1985 -0.5090
   53RES   C23422178   6.113   3.181   0.644  0.1099 -0.0858  0.0245
   53RES   C23522179   6.181   3.154   0.781  0.6312 -0.4866  0.3150
   53RES   C23622180   6.308   3.229   0.814 -0.5237 -0.0341 -0.8009
   53RES   C23722181   6.366   3.192   0.954 -0.9254 -0.0257  0.2457
   53RES   C23822182   6.511   3.224   0.965 -0.0439 -0.2517 -0.1070
   53RES   C23922183   6.565   3.197   1.102  0.1922  0.6136 -0.2113
   53RES   H24022184   5.931   3.156   0.553 -0.2216  0.0073 -0.2587
   53RES   H24122185   5.954   3.044   0.676  0.1676 -0.1918 -0.6724
   53RES   H24222186   6.120   3.287   0.621 -2.8805  0.3679  0.9826
   53RES   H24322187   6.206   3.048   0.773  3.1788  0.0701  0.3476
   53RES   H24422188   6.111   3.155   0.865 -0.7761  0.2889 -0.8585
   53RES   H24522189   6.294   3.336   0.799 -2.0610 -0.2350 -0.9082
   53RES   H24622190   6.380   3.212   0.735  0.7911 -1.4608  0.6641
   53RES   H24722191   6.358   3.083   0.962 -1.1573 -0.1566 -1.4380
   53RES   H24822192   6.312   3.238   1.036 -0.7273 -1.9505  1.4761
   53RES   H24922193   6.563   3.167   0.887 -2.0877  0.1220 -1.7727
   53RES   H25022194   6.537   3.328   0.950  1.1679 -0.6327 -0.7604
   53RES   H25122195   6.668   3.231   1.108  0.1264  0.6317  1.0221
   53RES   H25222196   6.508   3.248   1.181 -1.2126  1.1883 -1.5757
   53RES   H25322197   6.567   3.090   1.120  0.0238  0.5402 -0.6256
   53RES   C25422198   6.176   3.089   0.529 -0.7782 -0.5366 -0.1239
   53RES   C25522199   6.293   3.156   0.444 -0.5138  0.2716  0.5476
   53RES   C25622200   6.259   3.290   0.383 -0.3151  0.5989 -0.4101
   53RES   C25722201   6.139   3.274   0.288 -0.0703  0.3834  0.2641
   53RES   C25822202   6.152   3.391   0.178 -0.6357 -0.3409 -0.4884
   53RES   C25922203   6.042   3.394   0.074  0.0025  0.2914 -0.0731
   53RES   C26022204   6.060   3.525   7.719 -0.3439  0.2161  0.4125
   53RES   H26122205   6.098   3.069   0.457  0.8298 -1.2615 -1.7047
   53RES   H26222206   6.210   2.992   0.565 -1.7791 -0.7920  0.1420
   53RES   H26322207   6.370   3.187   0.515  0.1295 -2.7917  1.2798
   53RES   H26422208   6.348   3.325   0.330  0.3486 -0.6282 -0.1018
   53RES   H26522209   6.236   3.362   0.461 -0.3867  1.9633 -1.6641
   53RES   H26622210   6.135   3.177   0.239 -0.2436  0.4572  0.1295
   53RES   H26722211   6.052   3.284   0.353  0.0012 -1.2710  0.6259
   53RES   H26822212   6.248   3.376   0.129  0.1802 -0.7973  1.2188
   53RES   H26922213   6.144   3.479   0.242  0.8972  0.2675 -1.1039
   53RES   H27022214   6.054   3.305   0.012  2.9494 -0.0844  0.9425
   53RES   H27122215   5.944   3.397   0.121  0.3592  0.0223  0.6842
   53RES   H27222216   5.973   3.538   7.654 -1.1890  0.0413  1.4889
   53RES   H27322217   6.071   3.620   0.044 -0.5586  0.1223  0.6343
   53RES   H27422218   6.144   3.523   7.650 -0.5898  0.4013  0.1097
   53RES   C27522219   6.354   3.050   0.342 -0.2221 -0.7474 -1.3172
   53RES   C27622220   6.456   2.950   0.385  0.7061  0.7710  0.2688
   53RES   C27722221   6.595   3.018   0.424 -0.7059  1.0189  0.5419
   53RES   C27822222   6.678   2.942   0.533  0.2980  0.4726 -0.6458
   53RES   C27922223   6.624   2.952   0.679  0.1575 -0.0891 -0.1748
   53RES   C28022224   6.700   2.855   0.780 -0.7144  0.2554 -0.3951
   53RES   C28122225   6.638   2.854   0.919 -0.3028 -0.1077 -0.0108
   53RES   H28222226   6.408   3.094   0.258 -1.3641  1.0011 -1.1461
   53RES   H28322227   6.266   3.005   0.294 -1.2388 -2.3368  1.9110
   53RES   H28422228   6.430   2.897   0.477  1.2403  0.1411  0.0627
   53RES   H28522229   6.645   3.003   0.329 -0.1169 -0.0976  1.0225
   53RES   H28622230   6.583   3.124   0.444 -1.8319  1.0020 -0.0017
   53RES   H28722231   6.779   2.984   0.529  1.3882 -2.0769 -1.2785
   53RES   H28822232   6.690   2.837   0.505 -0.9330 -0.5877  2.5029
   53RES   H28922233   6.516   2.937   0.682  0.3440 -1.2745  1.2539
   53RES   H29022234   6.639   3.053   0.718  1.2224 -0.4916  0.4758
   53RES   H29122235   6.701   2.752   0.745  1.0145  0.4684 -1.0431
   53RES   H29222236   6.797   2.905   0.792  0.1958 -1.1509 -1.7221
   53RES   H29322237   6.640   2.957   0.952 -1.1722  0.0587 -0.4606
   53RES   H29422238   6.686   2.784   0.987  0.7823  1.3035  0.6848
   53RES   H29522239   6.538   2.812   0.912 -0.6156  0.2338  2.1513
   53RES   C29622240   6.482   2.841   0.282  0.2277 -0.5920  0.8687
   53RES   C29722241   6.364   2.737   0.264  0.3088  0.0421 -0.8859
   53RES   C29822242   6.395   2.585   0.272 -0.0161  0.7125 -0.4309
   53RES   C29922243   6.441   2.538   0.414  0.3328 -0.1326  0.4236
   53RES   C30022244   6.468   2.385   0.414 -0.7335  0.3794 -0.1200
   53RES   C30122245   6.543   2.327   0.539 -0.2422 -0.0324 -1.0704
   53RES   C30222246   6.587   2.185   0.511 -0.5202  0.3440 -0.2342
   53RES   H30322247   6.515   2.872   0.183 -0.4020  0.6234  1.0300
   53RES   H30422248   6.570   2.791   0.323 -0.6500 -1.5849  1.5665
   53RES   H30522249   6.289   2.753   0.341  1.3079  0.3563  0.0447
   53RES   H30622250   6.297   2.537   0.263  0.9163 -1.1797 -0.7799
   53RES   H30722251   6.454   2.543   0.191  0.8144  1.3088 -0.1474
   53RES   H30822252   6.367   2.561   0.492  2.3086  0.9448  2.0482
   53RES   H30922253   6.532   2.593   0.441 -0.1896  0.9721 -0.0067
   53RES   H31022254   6.532   2.362   0.329 -0.3278 -1.6805  0.7007
   53RES   H31122255   6.375   2.330   0.397  0.3815 -0.9913 -1.9537
   53RES   H31222256   6.626   2.396   0.552 -0.4487  0.2392 -1.1933
   53RES   H31322257   6.485   2.321   0.632 -1.3843 -0.1493 -1.7807
   53RES   H31422258   6.637   2.169   0.416  0.3052 -1.2814  0.4554
   53RES   H31522259   6.658   2.144   0.583  1.5094  0.3812 -2.1641
   53RES   H31622260   6.494   2.129   0.506 -1.5318  1.9707 -0.2678
   53RES   C31722261   6.296   2.765   0.133  0.1400  0.3781  0.1489
   53RES   C31822262   6.146   2.712   0.099  0.3442 -0.5553  0.1720
   53RES   C31922263   6.038   2.807   0.146 -0.3208 -0.2853  0.4908
   53RES   C32022264   6.031   2.947   0.078  0.2716  0.0820 -0.2889
   53RES   C32122265   5.914   3.035   0.128  0.5371  0.1994  0.4057
   53RES   C32222266   5.771   3.003   0.073  0.8781  1.3604 -0.4909
   53RES   C32322267   5.665   3.112   0.091  0.7385  0.6623 -0.0622
   53RES   H32422268   6.366   2.733   0.057 -1.5367  2.2322 -2.2532
   53RES   H32522269   6.303   2.872   0.113  3.5223 -0.1602 -1.8922
   53RES   H32622270   6.141   2.620   0.157 -1.0912 -0.0125  0.9338
   53RES   H32722271   6.060   2.825   0.251  1.0620  0.1067  0.1463
   53RES   H32822272   5.944   2.752   0.147 -0.4751 -0.2596 -3.1611
   53RES   H32922273   6.021   2.942   7.696  1.8966  0.8733 -0.4972
   53RES   H33022274   6.122   3.004   0.097 -0.0212 -0.1289  1.9278
   53RES   H33122275   5.928   3.136   0.089  2.2221 -0.3918 -0.5838
   53RES   H33222276   5.912   3.040   0.236  0.2902  1.2244  0.3531
   53RES   H33322277   5.730   2.919   0.129 -2.1645  1.0032 -3.0915
   53RES   H33422278   5.790   2.966   7.699  1.0011 -2.6062  0.9001
   53RES   H33522279   5.569   3.083   0.048  0.7050 -0.7961  0.9729
   53RES   H33622280   5.698   3.209   0.053  0.6461  0.1911 -1.3755
   53RES   H33722281   5.641   3.131   0.195  0.0302  1.5403 -0.3772
   53RES   C33822282   6.130   2.663   7.680  0.6724  0.1405  0.2165
   53RES   C33922283   5.988   2.609   7.642  0.5334  0.4640 -0.8084
   53RES   C34022284   5.961   2.482   7.719 -0.7015 -0.3756 -0.6281
   53RES   C34122285   6.059   2.366   7.703  1.0875 -0.8660  0.6309
   53RES   C34222286   5.997   2.238   0.027  0.5878  0.3925 -0.2281
   53RES   C34322287   5.882   2.185   7.669  0.3785 -0.4074 -0.3260
   53RES   C34422288   5.875   2.034   7.689 -0.4129  0.1421  0.3193
   53RES   H34522289   6.209   2.592   7.654 -0.4238  0.1581 -3.4411
   53RES   H34622290   6.160   2.745   7.615  1.4790 -0.5822 -0.3380
   53RES   H34722291   5.915   2.685   7.671  2.1091  2.4854 -2.0042
   53RES   H34822292   5.953   2.506   0.098 -0.0828 -1.4933 -0.3112
   53RES   H34922293   5.860   2.448   7.693  0.0198 -1.9715 -1.4208
   53RES   H35022294   6.151   2.392   0.030  1.6959  1.2257 -1.3492
   53RES   H35122295   6.080   2.358   7.597 -2.9603 -2.2023 -0.1289
   53RES   H35222296   6.083   2.174   0.048 -0.6518 -0.6677  1.6838
   53RES   H35322297   5.962   2.258   0.128 -0.5365 -0.3491 -0.4758
   53RES   H35422298   5.785   2.232   7.690  0.6440 -0.3264  0.7298
   53RES   H35522299   5.894   2.215   7.564  2.4213  1.4906  0.4096
   53RES   H35622300   5.803   1.991   7.620  0.7103 -0.3386 -0.5614
   53RES   H35722301   5.839   2.010   0.062 -1.8443  0.5265 -0.0915
   53RES   H35822302   5.968   1.981   7.674  0.1738  0.8153  1.4834
   53RES   C35922303   5.965   2.595   7.492 -0.5593 -0.0099 -0.1009
   53RES   C36022304   5.831   2.554   7.427 -0.7876  0.2240  0.8864
   53RES   C36122305   5.720   2.649   7.460 -0.1093  0.3252  0.0580
   53RES   C36222306   5.723   2.795   7.425  0.0281 -0.8855  0.3775
   53RES   C36322307   5.594   2.873   7.443 -0.8298 -0.0367 -0.3722
   53RES   C36422308   5.599   3.017   7.381  0.8562 -0.7893  0.2158
   53RES   C36522309   5.469   3.099   7.400  0.1626 -0.8510  0.0734
   53RES   H36622310   6.047   2.526   7.474  1.0936  1.2433  2.3953
   53RES   H36722311   5.993   2.691   7.447 -0.3392 -0.1714 -0.3105
   53RES   H36822312   5.800   2.465   7.481 -2.9820  0.5108  0.1240
   53RES   H36922313   5.629   2.615   7.411 -0.7511 -0.3736  1.6869
   53RES   H37022314   5.696   2.633   7.565 -1.8914  0.5872 -0.2980
   53RES   H37122315   5.808   2.841   7.477  0.7418  1.2320 -2.5284
   53RES   H37222316   5.741   2.798   7.318  1.0334  0.2034  0.5591
   53RES   H37322317   5.514   2.806   7.411 -0.4954 -0.8477  0.4488
   53RES   H37422318   5.568   2.882   7.548 -1.4350 -1.2082 -0.4089
   53RES   H37522319   5.694   3.062   7.410  1.6915 -3.6186  2.1010
   53RES   H37622320   5.619   2.990   7.277  0.8865 -2.4286  0.6296
   53RES   H37722321   5.436   3.098   7.504  0.3009 -1.4883  0.1077
   53RES   H37822322   5.463   3.204   7.370  0.8772 -0.3533  1.6124
   53RES   H37922323   5.387   3.050   7.347 -0.4275  0.8719 -0.6629
   53RES   C38022324   5.866   2.534   7.280 -0.0983 -0.1283  0.5972
   53RES   C38122325   5.767   2.459   7.187  0.2471  0.1626 -0.2002
   53RES   C38222326   5.829   2.450   7.043 -0.5020 -1.0637 -0.1304
   53RES   C38322327   5.835   2.583   6.955  0.7936 -0.0822  0.1857
   53RES   C38422328   5.885   2.558   6.813 -0.3518 -0.4582  0.0938
   53RES   C38522329   5.900   2.690   6.727  0.7309 -0.1607 -0.6058
   53RES   C38622330   5.766   2.755   6.693  0.5441 -0.5814  0.3748
   53RES   H38722331   5.879   2.632   7.234  0.9306 -1.2858 -1.6593
   53RES   H38822332   5.960   2.480   7.272 -0.1789 -0.0959 -0.6960
   53RES   H38922333   5.672   2.513   7.192  1.3140  1.9625  1.6421
   53RES   H39022334   5.774   2.374   6.988 -1.4794 -0.2055 -0.3441
   53RES   H39122335   5.927   2.405   7.063 -0.1177  0.1491  0.7858
   53RES   H39222336   5.740   2.637   6.961 -0.0893 -1.4054 -1.4757
   53RES   H39322337   5.901   2.661   6.992  0.2948  0.4039  0.0655
   53RES   H39422338   5.969   2.489   6.814 -0.6269 -0.8418 -1.4892
   53RES   H39522339   5.804   2.506   6.761 -1.3445  2.2715 -1.2513
   53RES   H39622340   5.950   2.667   6.632 -1.1248 -1.8407 -1.2082
   53RES   H39722341   5.949   2.769   6.783  0.7052  0.7523 -1.8395
   53RES   H39822342   5.785   2.842   6.630  2.0537  0.2973  1.9902
   53RES   H39922343   5.712   2.793   6.780  0.7205 -0.0737  0.2654
   53RES   H40022344   5.693   2.689   6.646 -1.2993  2.9984 -1.9893
   53RES   C40122345   5.737   2.315   7.233  0.0465 -0.2821 -0.5142
   53RES   C40222346   5.606   2.253   7.182 -0.7608  0.1627 -0.3176
   53RES   C40322347   5.603   2.108   7.219  0.2807  0.0760  0.4634
   53RES   C40422348   5.594   2.077   7.372 -1.0470  0.2110  0.4081
   53RES   C40522349   5.609   1.929   7.404  0.1082  0.3176  0.5144
   53RES   C40622350   5.543   1.885   7.534 -0.7569 -0.2865  0.2185
   53RES   C40722351   5.595   1.747   7.591  0.2865 -0.8527  0.7664
   53RES   H40822352   5.728   2.319   7.342  3.0385 -1.0982 -0.1929
   53RES   H40922353   5.817   2.245   7.208  0.4303  0.4874 -1.4672
   53RES   H41022354   5.593   2.258   7.074  1.3292 -1.2178 -0.6455
   53RES   H41122355   5.676   2.047   7.165 -0.9308  0.7431 -1.9751
   53RES   H41222356   5.518   2.062   7.168  0.7108 -0.6043  0.3523
   53RES   H41322357   5.501   2.121   7.409  0.2874  2.2506  1.4523
   53RES   H41422358   5.664   2.135   7.431  1.5877 -1.8999 -0.5747
   53RES   H41522359   5.557   1.863   7.334 -3.0190  1.6728  1.4776
   53RES   H41622360   5.715   1.902   7.406  0.1125  0.2186 -0.5995
   53RES   H41722361   5.544   1.960   7.613  0.8525 -1.1913  1.0705
   53RES   H41822362   5.438   1.868   7.510 -0.3081 -0.4124 -1.7745
   53RES   H41922363   5.532   1.710   7.672  0.8703 -1.5155  0.9293
   53RES   H42022364   5.694   1.759   7.635 -0.3671  2.9747  1.4027
   53RES   H42122365   5.603   1.673   7.512 -0.6725 -1.1385  0.9306
   53RES   H42222366   5.518   2.307   7.218 -1.0236  0.5231 -1.4990
   54RES     C122367   4.560   0.234   5.255  0.1087 -0.2547  0.2386
   54RES     C222368   4.555   0.161   5.120  0.3332  0.9602 -0.0106
   54RES     C322369   4.679   0.181   5.031  0.1928 -0.1558  0.2789
   54RES     C422370   4.806   0.113   5.097  0.3464 -0.1281  0.1698
   54RES     C522371   4.910   0.075   4.988 -0.7918 -0.3671 -0.3836
   54RES     C622372   5.027   7.718   5.041  0.5317 -0.6991  0.1494
   54RES     C722373   5.109   7.669   4.926  0.1041  0.6024 -0.2843
   54RES     H822374   4.583   0.338   5.231 -0.7896 -0.1192 -0.0185
   54RES     H922375   4.646   0.199   5.313  1.5820  1.6212 -0.7438
   54RES    H1022376   4.540   0.054   5.138  1.2722  0.4991 -1.8215
   54RES    H1122377   4.679   0.143   4.928  0.6772 -0.9458  0.5680
   54RES    H1222378   4.699   0.285   5.006  1.1055 -0.7602 -1.6217
   54RES    H1322379   4.853   0.187   5.162  1.1949  1.5828 -2.3000
   54RES    H1422380   4.772   0.032   5.161  0.8854  0.1118  0.7674
   54RES    H1522381   4.944   0.162   4.931 -2.1238  1.2508  1.2100
   54RES    H1622382   4.858   0.013   4.915 -2.6519  0.0523  0.5584
   54RES    H1722383   4.985   7.638   5.101  0.9524 -0.6365  0.5282
   54RES    H1822384   5.086   0.048   5.113  0.2394 -0.9210  0.5601
   54RES    H1922385   5.055   7.589   4.874  0.4872 -0.9425  1.6400
   54RES    H2022386   5.210   7.643   4.957  0.0494 -3.0575 -2.8359
   54RES    H2122387   5.117   0.009   4.840  0.1630  2.0354  0.8192
   54RES    H2222388   4.463   0.224   5.303  0.6410 -0.5473  1.2633
   54RES    C2322389   4.431   0.183   5.037  0.2234 -0.2245 -0.1042
   54RES    C2422390   4.410   0.084   4.922 -0.0532  0.3800 -0.5393
   54RES    C2522391   4.293   0.119   4.826  0.7090 -0.1475  0.2096
   54RES    C2622392   4.321   0.234   4.731  0.4666  0.5031 -0.3092
   54RES    C2722393   4.214   0.255   4.628 -0.1042 -0.3848 -0.1028
   54RES    C2822394   4.244   0.352   4.516  0.6720  0.3521 -0.5795
   54RES    C2922395   4.113   0.378   4.436 -0.2684 -0.9029 -0.3176
   54RES    H3022396   4.335   0.185   5.089  0.5771  1.7300  0.5105
   54RES    H3122397   4.437   0.284   4.997 -0.1713  0.0826  0.6193
   54RES    H3222398   4.488   0.072   4.847 -2.4922  1.0469 -3.2701
   54RES    H3322399   4.198   0.133   4.879 -0.1392 -1.9291 -0.7985
   54RES    H3422400   4.274   0.030   4.766  3.0407  0.3902 -1.4033
   54RES    H3522401   4.411   0.210   4.674  0.7848  0.0883  0.3547
   54RES    H3622402   4.332   0.327   4.786  0.0554  0.0254  0.5979
   54RES    H3722403   4.124   0.286   4.682  0.3883  3.4068 -1.3002
   54RES    H3822404   4.187   0.154   4.597 -0.5588 -1.1164  2.5611
   54RES    H3922405   4.321   0.312   4.449  2.0910  4.7448 -1.7486
   54RES    H4022406   4.284   0.449   4.548  0.3829  0.0905  0.5833
   54RES    H4122407   4.047   0.456   4.474  1.3474  1.3358 -1.9723
   54RES    H4222408   4.150   0.404   4.337 -0.0520 -3.2742 -0.8764
   54RES    H4322409   4.056   0.286   4.421 -0.5011 -0.4469 -2.4109
   54RES    C4422410   4.372   7.672   4.978  0.7216  0.1032  1.0949
   54RES    C4522411   4.455   7.547   4.918  0.8595 -0.3656  0.3398
   54RES    C4622412   4.413   7.511   4.773 -0.4938  0.1895 -0.7864
   54RES    C4722413   4.273   7.460   4.759  0.1696  0.3396  0.2374
   54RES    C4822414   4.227   7.432   4.609 -0.3678  0.1811 -0.3255
   54RES    C4922415   4.230   7.564   4.530 -0.2261 -0.0183  0.4456
   54RES    C5022416   4.159   7.546   4.397 -0.5198 -0.2712 -0.1188
   54RES    H5122417   4.267   7.641   4.975 -0.1146  2.8660 -0.0177
   54RES    H5222418   4.389   7.660   5.085  0.0284 -2.2961  0.9832
   54RES    H5322419   4.421   7.460   4.975  2.1066 -2.1274 -1.5523
   54RES    H5422420   4.466   7.425   4.731  1.5139  0.3614  1.2911
   54RES    H5522421   4.440   7.596   4.710  0.1370  0.6262  0.0591
   54RES    H5622422   4.253   7.371   4.819 -1.3367 -1.1984 -2.4689
   54RES    H5722423   4.206   7.535   4.803 -0.2903  0.0625  0.0083
   54RES    H5822424   4.133   7.377   4.617 -0.9023  0.9847 -0.9932
   54RES    H5922425   4.299   7.367   4.559  1.2208  1.2063  0.6164
   54RES    H6022426   4.326   7.607   4.502 -0.7649  1.3760  0.6762
   54RES    H6122427   4.170   7.635   4.587 -0.5167 -0.2714  0.4550
   54RES    H6222428   4.195   7.454   4.349 -0.0902  0.6877 -1.6595
   54RES    H6322429   4.172   7.632   4.331  0.5793  1.2422  2.0269
   54RES    H6422430   4.053   7.543   4.423 -0.7338 -1.1759 -1.0340
   54RES    C6522431   4.604   7.539   4.957 -0.1711 -0.0681 -0.0480
   54RES    C6622432   4.666   7.396   4.966 -0.1599  0.3063 -0.3147
   54RES    C6722433   4.671   7.337   5.105 -0.5497  0.3530 -0.7133
   54RES    C6822434   4.765   7.418   5.206 -0.5307 -0.7085 -0.0451
   54RES    C6922435   4.762   7.352   5.347  0.4001 -0.0091  0.3638
   54RES    C7022436   4.633   7.367   5.426  0.0918  0.2272 -0.4270
   54RES    C7122437   4.640   7.327   5.572  0.2853 -0.1676  0.2908
   54RES    H7222438   4.659   7.601   4.887  1.8323 -0.2512  1.3342
   54RES    H7322439   4.622   7.593   5.050 -1.1355 -3.1174  1.9938
   54RES    H7422440   4.600   7.324   4.918 -1.0056  0.9008 -0.0502
   54RES    H7522441   4.573   7.334   5.153 -0.0357  3.2308  0.6451
   54RES    H7622442   4.693   7.230   5.107 -0.3699  0.3995  0.1150
   54RES    H7722443   4.865   7.443   5.170 -2.0785  3.7340 -1.5534
   54RES    H7822444   4.720   7.514   5.229 -0.9167 -0.1050 -3.1325
   54RES    H7922445   4.780   7.245   5.335  1.9726  0.3853 -0.9801
   54RES    H8022446   4.845   7.393   5.404 -0.3957  0.0080  1.5187
   54RES    H8122447   4.558   7.303   5.379  0.7487  1.3833 -3.1284
   54RES    H8222448   4.587   7.465   5.417  1.5305  0.9020 -0.5059
   54RES    H8322449   4.672   7.224   5.589 -0.2110 -0.9660 -3.3858
   54RES    H8422450   4.709   7.389   5.630  0.8785 -0.7044  0.1677
   54RES    H8522451   4.542   7.324   5.620 -0.4246  1.3957 -1.0118
   54RES    C8622452   4.800   7.387   4.896 -0.2813  0.5629 -0.1748
   54RES    C8722453   4.792   7.348   4.743  0.7693 -0.8430  0.1003
   54RES    C8822454   4.869   7.440   4.646 -1.3897  0.5313 -1.5009
   54RES    C8922455   4.820   7.436   4.505 -0.6182 -0.4374 -0.0435
   54RES    C9022456   4.669   7.476   4.479 -0.0804 -0.2660 -0.1440
   54RES    C9122457   4.631   7.474   4.330  0.8823  0.7283  0.1458
   54RES    C9222458   4.619   7.331   4.262 -0.0652 -0.0475  0.3784
   54RES    H9322459   4.866   7.474   4.899  0.2445  0.2284 -1.5322
   54RES    H9422460   4.871   7.314   4.936 -1.7398  0.1083  1.6130
   54RES    H9522461   4.687   7.376   4.737  1.3475  1.2847 -0.5680
   54RES    H9622462   4.859   7.541   4.687 -2.5199  0.0116 -0.4713
   54RES    H9722463   4.972   7.406   4.655 -1.5909  0.5744  1.2732
   54RES    H9822464   4.888   7.504   4.455 -0.5540  0.1936  0.8961
   54RES    H9922465   4.843   7.333   4.476 -1.2283 -0.8008  0.7486
   54RES   H10022466   4.648   7.575   4.519 -0.3477 -0.4258  0.1096
   54RES   H10122467   4.618   7.407   4.546  1.3846 -0.4275  0.8297
   54RES   H10222468   4.537   7.527   4.318  1.8550  2.2793 -0.8418
   54RES   H10322469   4.701   7.527   4.266 -1.5401  1.9329 -1.5829
   54RES   H10422470   4.576   7.258   4.331 -3.1276  0.8274 -0.5226
   54RES   H10522471   4.711   7.285   4.226 -1.0348 -0.9731 -0.9846
   54RES   H10622472   4.557   7.330   4.172 -1.0598  0.9131  1.0544
   54RES   C10722473   4.834   7.200   4.719 -0.0262 -0.0945  0.0655
   54RES   C10822474   4.753   7.099   4.794  0.0068  0.6767  0.1010
   54RES   C10922475   4.604   7.090   4.739 -0.0490  0.2124  1.0007
   54RES   C11022476   4.503   7.043   4.840 -0.1004  1.0399 -0.7217
   54RES   C11122477   4.357   7.051   4.800 -0.4730 -0.7897  0.1680
   54RES   C11222478   4.262   7.012   4.912 -0.6750  0.3151 -0.0220
   54RES   C11322479   4.119   7.015   4.866  0.4390 -0.1007 -0.1338
   54RES   H11422480   4.939   7.180   4.742 -0.2245 -2.0914 -0.6923
   54RES   H11522481   4.826   7.163   4.617  0.9103 -2.0361  0.6728
   54RES   H11622482   4.746   7.115   4.901  0.6522 -0.3856  0.3134
   54RES   H11722483   4.604   7.029   4.648 -2.6299  0.1515  1.0153
   54RES   H11822484   4.570   7.190   4.709  1.8288  0.2273 -1.2608
   54RES   H11922485   4.526   6.939   4.863 -2.0762  0.6481 -0.4043
   54RES   H12022486   4.513   7.095   4.935 -0.5903 -1.5195  0.7729
   54RES   H12122487   4.331   6.981   4.719 -0.3105  0.6007 -1.1110
   54RES   H12222488   4.339   7.155   4.774  0.3943 -0.4527  0.9265
   54RES   H12322489   4.286   6.912   4.948  0.0787  0.9759  1.3278
   54RES   H12422490   4.274   7.069   5.004  2.8738 -1.6211  0.7988
   54RES   H12522491   4.087   7.118   4.847  0.8637  0.1315  0.4142
   54RES   H12622492   4.094   6.963   4.774  1.4930  0.6092 -0.8278
   54RES   H12722493   4.056   6.971   4.943 -1.1507 -0.5561 -1.6553
   54RES   C12822494   4.826   6.963   4.784 -1.0487 -0.0042 -0.3148
   54RES   C12922495   4.937   6.943   4.888  0.0542  0.5800 -0.0068
   54RES   C13022496   5.080   6.896   4.837 -0.6250  0.2803  0.2594
   54RES   C13122497   5.157   7.010   4.756 -1.2099  0.7836  0.4674
   54RES   C13222498   5.193   7.119   4.855 -0.2942  0.5017 -0.0963
   54RES   C13322499   5.261   7.235   4.788  0.0787  0.3479 -0.3641
   54RES   C13422500   5.321   7.340   4.887  0.9790 -0.0462  0.4831
   54RES   H13522501   4.763   6.874   4.794 -0.0141 -0.6072  0.9895
   54RES   H13622502   4.882   6.945   4.693  1.5436  3.0388  0.6030
   54RES   H13722503   4.939   7.036   4.945 -0.4864  0.0189  0.9419
   54RES   H13822504   5.081   6.803   4.780 -1.5177 -0.5873  1.6564
   54RES   H13922505   5.142   6.864   4.920 -0.9942  0.7349  0.7103
   54RES   H14022506   5.097   7.040   4.671 -0.8263 -1.3557 -0.5745
   54RES   H14122507   5.247   6.984   4.700 -1.3690  2.4752 -0.6083
   54RES   H14222508   5.269   7.089   4.926  0.5969 -0.4444 -1.4321
   54RES   H14322509   5.103   7.160   4.903 -0.5567  1.2549 -1.2216
   54RES   H14422510   5.200   7.282   4.710 -1.4793 -2.4327 -0.8727
   54RES   H14522511   5.348   7.187   4.743 -0.1470  0.2584 -0.7040
   54RES   H14622512   5.237   7.398   4.924  0.9771  0.1530  0.1743
   54RES   H14722513   5.385   7.407   4.829  0.4655  0.7504  0.8312
   54RES   H14822514   5.362   7.291   4.975  2.3643 -0.2240 -0.2330
   54RES   C14922515   4.888   6.847   5.003  0.1412 -0.2877 -0.7581
   54RES   C15022516   4.807   6.913   5.125  0.0885  0.3947  0.5074
   54RES   C15122517   4.894   7.013   5.202 -0.1691 -0.0169 -0.2769
   54RES   C15222518   5.038   6.976   5.253  0.1252  0.5259  0.5556
   54RES   C15322519   5.100   7.101   5.317 -0.2485 -0.0419 -0.1733
   54RES   C15422520   5.118   7.229   5.223 -1.0711  0.6804 -0.3578
   54RES   C15522521   5.204   7.344   5.278 -0.3990 -0.4494  0.3795
   54RES   H15622522   4.841   6.757   4.963 -0.1201 -1.0665  1.2672
   54RES   H15722523   4.975   6.802   5.050 -0.6706 -0.3731  0.6956
   54RES   H15822524   4.726   6.973   5.083  0.1702  0.0972 -0.0899
   54RES   H15922525   4.901   7.105   5.145  1.2473  0.3575  0.4702
   54RES   H16022526   4.839   7.040   5.293  1.9452  1.5689  0.5619
   54RES   H16122527   5.103   6.940   5.173  0.2535 -0.8458  1.2703
   54RES   H16222528   5.028   6.901   5.330  1.3561 -0.4829 -0.2376
   54RES   H16322529   5.195   7.076   5.364 -0.5916  2.9069  2.3289
   54RES   H16422530   5.030   7.131   5.396 -0.7562  0.0875 -0.6682
   54RES   H16522531   5.023   7.261   5.182 -1.2595  1.3930  0.6233
   54RES   H16622532   5.180   7.194   5.140 -1.3993 -0.7248 -0.0224
   54RES   H16722533   5.172   7.371   5.379  1.8425 -0.9150  1.2279
   54RES   H16822534   5.191   7.428   5.210  0.3867 -0.9505 -0.4005
   54RES   H16922535   5.310   7.322   5.268  0.2884  2.9244 -0.3119
   54RES   C17022536   4.754   6.797   5.217  0.1242 -0.4514 -0.2429
   54RES   C17122537   4.607   6.748   5.190 -0.4119 -0.3571 -0.1082
   54RES   C17222538   4.515   6.869   5.185 -0.2145  0.2811  0.7690
   54RES   C17322539   4.519   6.950   5.320  0.2548  0.1087  1.7687
   54RES   C17422540   4.401   7.043   5.333  0.1457  0.0023 -0.0801
   54RES   C17522541   4.379   7.085   5.482  0.7691 -0.2564  0.0817
   54RES   C17622542   4.252   7.176   5.491  0.3948  0.0836 -0.0139
   54RES   H17722543   4.751   6.832   5.320  1.4642 -0.1763 -0.2866
   54RES   H17822544   4.834   6.723   5.226  0.2458 -0.2232  0.5793
   54RES   H17922545   4.589   6.676   5.270  1.0755 -0.8105 -0.1690
   54RES   H18022546   4.416   6.829   5.163  0.7811 -1.1729 -1.1902
   54RES   H18122547   4.536   6.944   5.110 -0.8737  0.5475  0.8443
   54RES   H18222548   4.611   7.009   5.333  1.1852 -0.2232 -2.6976
   54RES   H18322549   4.507   6.882   5.405  0.9969 -1.5325  0.5796
   54RES   H18422550   4.305   7.001   5.303  1.2184 -2.1679 -0.5608
   54RES   H18522551   4.419   7.138   5.282  0.3503  0.8249  1.5078
   54RES   H18622552   4.470   7.135   5.517  0.7315 -0.1460  0.0224
   54RES   H18722553   4.370   6.997   5.546  1.0798  0.8346  1.6851
   54RES   H18822554   4.244   7.213   5.593  0.0532 -0.9369  0.3338
   54RES   H18922555   4.164   7.115   5.471  0.4727  0.3666 -1.2895
   54RES   H19022556   4.247   7.257   5.418 -1.9957 -1.1115 -1.2420
   54RES   C19122557   4.598   6.671   5.052  0.0808  0.2917  0.4215
   54RES   C19222558   4.470   6.597   5.018  0.7001 -0.7342 -0.1929
   54RES   C19322559   4.445   6.591   4.867  0.0349 -0.3260  0.0581
   54RES   C19422560   4.308   6.537   4.831  0.6925 -0.2649  0.6512
   54RES   C19522561   4.264   6.571   4.698  0.5423  0.2786  0.5767
   54RES   C19622562   4.146   6.479   4.641 -0.0117 -0.1955  0.1892
   54RES   C19722563   4.116   6.497   4.490  0.1852  0.8727 -0.0647
   54RES   H19822564   4.676   6.595   5.048 -0.7713 -0.5188 -1.5828
   54RES   H19922565   4.611   6.744   4.973  1.1671  1.5547  1.7447
   54RES   H20022566   4.384   6.650   5.061 -0.3209 -1.3002 -1.4994
   54RES   H20122567   4.523   6.533   4.818 -1.6237 -0.4425 -2.4925
   54RES   H20222568   4.458   6.685   4.813 -4.2030  0.4422  0.2171
   54RES   H20322569   4.236   6.566   4.908 -0.1728 -0.6234 -0.0078
   54RES   H20422570   4.335   6.432   4.836  0.6860 -0.3318 -0.6081
   54RES   H20522571   4.227   6.673   4.710  1.8261  0.7370  0.7025
   54RES   H20622572   4.351   6.572   4.632  0.1772  1.9266  0.0966
   54RES   H20722573   4.054   6.496   4.697  0.1696  1.9111 -0.1164
   54RES   H20822574   4.151   6.372   4.658  1.4097 -0.1826 -0.1265
   54RES   H20922575   4.038   6.424   4.466 -0.1542  0.9417  0.8127
   54RES   H21022576   4.195   6.462   4.424  0.0817  2.2038 -0.9228
   54RES   H21122577   4.090   6.599   4.461  0.4280  1.6906  2.4998
   54RES   C21222578   4.477   6.450   5.067  0.2316  0.3783 -0.1126
   54RES   C21322579   4.482   6.425   5.221  0.9085 -0.0338 -0.4447
   54RES   C21422580   4.338   6.460   5.265  0.1796 -0.1042  0.1116
   54RES   C21522581   4.301   6.448   5.414  0.0157  0.5192  0.2252
   54RES   C21622582   4.154   6.482   5.442 -1.0289  0.1507  0.3827
   54RES   C21722583   4.119   6.631   5.430  0.0067 -1.0976  0.1065
   54RES   C21822584   3.988   6.671   5.503 -0.0672  0.1323  0.0605
   54RES   H21922585   4.560   6.392   5.025  0.0579  0.6877 -0.8917
   54RES   H22022586   4.392   6.393   5.030 -0.1715 -0.8269  2.5774
   54RES   H22122587   4.548   6.484   5.285 -1.9742 -0.1934  2.8151
   54RES   H22222588   4.323   6.562   5.228  0.7299 -1.0422 -2.7998
   54RES   H22322589   4.269   6.395   5.211  0.8610 -0.6595 -0.0870
   54RES   H22422590   4.361   6.512   5.478 -0.5408 -0.6917  1.9848
   54RES   H22522591   4.304   6.342   5.441 -2.5208  0.4564  0.3634
   54RES   H22622592   4.087   6.424   5.379 -1.4567 -0.7793  1.6930
   54RES   H22722593   4.138   6.451   5.545  2.0256 -0.9403  0.5925
   54RES   H22822594   4.199   6.687   5.478 -1.1933  2.8785 -2.2640
   54RES   H22922595   4.117   6.655   5.324  0.1353 -2.5329 -0.2266
   54RES   H23022596   3.897   6.624   5.466 -0.6083  0.4649  0.9562
   54RES   H23122597   3.961   6.774   5.478 -1.8790  0.1052  1.7384
   54RES   H23222598   3.995   6.656   5.611 -3.4669 -0.6182  0.2512
   54RES   C23322599   4.519   6.284   5.265 -0.5481  0.4573 -0.9577
   54RES   C23422600   4.639   6.212   5.192 -0.1870  1.0520  0.3417
   54RES   C23522601   4.777   6.288   5.193 -0.6099  0.5330 -0.1714
   54RES   C23622602   4.877   6.227   5.095 -0.6671 -0.3381  0.7498
   54RES   C23722603   4.982   6.326   5.044  0.0324 -0.0558 -0.0458
   54RES   C23822604   5.066   6.394   5.151  0.1156 -0.4088  0.1184
   54RES   C23922605   5.176   6.480   5.077  0.9007  0.1499 -0.3639
   54RES   H24022606   4.437   6.220   5.231 -0.3909  0.1826 -0.8288
   54RES   H24122607   4.535   6.289   5.372 -0.7343 -1.1121 -0.8324
   54RES   H24222608   4.611   6.204   5.087  0.5264  0.4489  0.1936
   54RES   H24322609   4.828   6.272   5.288 -1.1708  3.1189  0.6292
   54RES   H24422610   4.773   6.396   5.178  0.4962  0.8346  1.5742
   54RES   H24522611   4.823   6.183   5.011 -0.1486  1.5506 -0.6223
   54RES   H24622612   4.926   6.138   5.135  2.3513  0.2772 -1.4003
   54RES   H24722613   4.939   6.411   4.991 -1.8858 -1.4093 -0.6948
   54RES   H24822614   5.035   6.268   4.968 -0.3745  0.6223 -0.8622
   54RES   H24922615   5.016   6.439   5.236  0.6683  0.4044  0.0204
   54RES   H25022616   5.119   6.315   5.205  2.4570  0.6264 -0.6069
   54RES   H25122617   5.238   6.529   5.152 -1.6200  3.2464 -0.1760
   54RES   H25222618   5.239   6.411   5.021 -1.2048 -0.5059 -2.0102
   54RES   H25322619   5.139   6.554   5.005  1.3111  1.7339  1.0226
   54RES   C25422620   4.637   6.058   5.231 -0.3637  0.0167 -0.3113
   54RES   C25522621   4.528   5.964   5.176 -0.1843  0.3849  0.8927
   54RES   C25622622   4.480   5.865   5.279  0.4020  0.8127 -0.0578
   54RES   C25722623   4.590   5.781   5.333 -0.0018 -0.0143 -0.4928
   54RES   C25822624   4.548   5.708   5.454 -0.2548 -0.7712 -0.0239
   54RES   C25922625   4.662   5.653   5.531 -0.5001 -0.2741  0.1806
   54RES   C26022626   4.718   5.761   5.632 -0.4398  0.5898  0.2424
   54RES   H26122627   4.619   6.074   5.337  1.8499  2.9191 -0.3133
   54RES   H26222628   4.739   6.019   5.235  0.6967  2.5625 -1.4760
   54RES   H26322629   4.436   6.014   5.144 -0.0126  0.6012  0.7335
   54RES   H26422630   4.401   5.806   5.233  0.2596  1.1885 -0.3001
   54RES   H26522631   4.433   5.920   5.361  0.6666  0.9001  0.0368
   54RES   H26622632   4.610   5.714   5.249 -0.9331 -1.0186  0.0806
   54RES   H26722633   4.676   5.841   5.363  0.5396 -1.2420  0.4388
   54RES   H26822634   4.497   5.617   5.422  1.9363 -1.8335 -0.6147
   54RES   H26922635   4.486   5.782   5.504 -1.4008 -1.2080 -0.7810
   54RES   H27022636   4.634   5.566   5.590 -0.6545 -0.6089 -0.3851
   54RES   H27122637   4.739   5.615   5.464  2.2266 -0.8969  3.4992
   54RES   H27222638   4.790   5.716   5.700 -0.2213 -0.3634 -0.6120
   54RES   H27322639   4.775   5.840   5.582 -2.4732  0.6811 -1.9887
   54RES   H27422640   4.632   5.800   5.686 -1.6076  0.2931 -1.3773
   54RES   C27522641   4.569   5.896   5.042  0.0681 -0.1175  0.1141
   54RES   C27622642   4.529   5.970   4.916  0.1491  0.0826  0.3386
   54RES   C27722643   4.373   5.970   4.897  0.2361 -0.4263  0.1417
   54RES   C27822644   4.313   6.104   4.861 -0.5445 -0.2117  0.5584
   54RES   C27922645   4.161   6.126   4.878  0.4522  0.1593  0.0208
   54RES   C28022646   4.123   6.175   5.021 -0.1079  0.3030  0.1957
   54RES   C28122647   3.986   6.129   5.080  0.0016  0.5665  0.3887
   54RES   H28222648   4.520   5.798   5.040  0.3671 -0.3282  2.0695
   54RES   H28322649   4.674   5.870   5.048  0.4647  1.5502  0.6844
   54RES   H28422650   4.570   6.070   4.927  1.6167 -0.2257 -1.9328
   54RES   H28522651   4.332   5.896   4.828 -1.1675 -0.7071  1.2700
   54RES   H28622652   4.325   5.929   4.986 -0.5402 -0.3952 -0.2620
   54RES   H28722653   4.335   6.115   4.755  0.3054 -1.1486  0.6259
   54RES   H28822654   4.358   6.187   4.915 -2.3810  0.4125  1.1513
   54RES   H28922655   4.107   6.032   4.863  0.0671  0.5521 -1.0977
   54RES   H29022656   4.117   6.196   4.807 -0.7267  0.0003  0.5835
   54RES   H29122657   4.203   6.140   5.086 -2.2085 -2.6288  1.2771
   54RES   H29222658   4.126   6.283   5.035 -0.3252  0.3786 -0.3321
   54RES   H29322659   3.952   6.027   5.059  0.2438  0.8154 -1.2675
   54RES   H29422660   3.909   6.182   5.024 -1.1924 -0.1012  1.3590
   54RES   H29522661   3.974   6.147   5.187  2.1680 -0.7281  0.8811
   54RES   C29622662   4.610   5.915   4.803 -0.1616  0.4202  0.4818
   54RES   C29722663   4.730   6.003   4.758  0.6422 -0.5921 -0.2064
   54RES   C29822664   4.688   6.125   4.671 -0.3196  0.3192 -0.4028
   54RES   C29922665   4.791   6.245   4.681  0.5575  0.3276 -0.1104
   54RES   C30022666   4.712   6.376   4.657 -0.0060  0.6455  0.4147
   54RES   C30122667   4.794   6.497   4.646  0.6858  0.4228 -0.1703
   54RES   C30222668   4.709   6.622   4.616 -0.2736 -0.7729  0.4089
   54RES   H30322669   4.641   5.818   4.843 -2.4490 -1.5075 -2.2005
   54RES   H30422670   4.543   5.894   4.720  2.4989  0.7636 -1.8272
   54RES   H30522671   4.770   6.036   4.854  0.3847  1.2852 -0.7166
   54RES   H30622672   4.666   6.107   4.566 -1.9020 -0.7008  0.0903
   54RES   H30722673   4.599   6.167   4.718 -0.6378  0.2629 -0.9617
   54RES   H30822674   4.851   6.231   4.590 -2.1864 -2.0397 -1.6384
   54RES   H30922675   4.852   6.244   4.772  0.8576 -1.1107 -0.3068
   54RES   H31022676   4.639   6.389   4.737  1.4808 -1.1740  2.1359
   54RES   H31122677   4.659   6.360   4.563  0.8901  0.5514 -0.0847
   54RES   H31222678   4.834   6.494   4.747  1.4030 -0.2997 -0.4678
   54RES   H31322679   4.869   6.474   4.571  0.9510 -1.9916  0.7866
   54RES   H31422680   4.666   6.609   4.516  0.5411  1.0225 -0.1903
   54RES   H31522681   4.618   6.630   4.676  1.2980  2.5252  2.4683
   54RES   H31622682   4.763   6.716   4.625 -0.8149 -0.4686  0.4823
   54RES   C31722683   4.834   5.916   4.695 -0.2218 -0.5236 -0.2738
   54RES   C31822684   4.968   5.914   4.772  0.6050 -0.0162  0.2396
   54RES   C31922685   4.963   5.809   4.876 -0.1243  0.3370  0.0355
   54RES   C32022686   5.026   5.853   5.010  0.5839 -0.5505  0.5263
   54RES   C32122687   5.028   5.734   5.103 -0.6139  0.6280  0.4307
   54RES   C32222688   5.064   5.776   5.247  0.3423  0.2483  0.1361
   54RES   C32322689   5.197   5.842   5.255 -0.4557 -0.4589 -0.0774
   54RES   H32422690   4.841   5.951   4.592  1.9836 -1.2301 -0.3840
   54RES   H32522691   4.802   5.815   4.671  0.5639 -0.4707 -1.5718
   54RES   H32622692   4.992   6.016   4.803  3.3304  0.9187 -4.5076
   54RES   H32722693   5.028   5.731   4.837 -0.3246 -0.0732  0.5235
   54RES   H32822694   4.867   5.763   4.901  0.4289  0.0783  1.7270
   54RES   H32922695   4.968   5.939   5.044 -0.4352 -1.1128  0.2306
   54RES   H33022696   5.126   5.894   4.999  0.1157  0.2464 -0.9517
   54RES   H33122697   5.103   5.666   5.062 -0.1320  0.1860  1.9934
   54RES   H33222698   4.937   5.676   5.093  1.2203 -2.4345  0.6572
   54RES   H33322699   5.067   5.682   5.302  0.0448  0.0569 -0.1692
   54RES   H33422700   4.989   5.836   5.298  1.7061  0.2688  2.1575
   54RES   H33522701   5.184   5.946   5.223  2.3553 -0.3741 -1.0896
   54RES   H33622702   5.275   5.784   5.207 -0.3816  1.2935 -2.1300
   54RES   H33722703   5.234   5.849   5.358 -0.3705 -1.0888 -0.0686
   54RES   C33822704   5.094   5.912   4.683 -0.0956  0.5046  0.3525
   54RES   C33922705   5.100   6.009   4.558 -0.3244 -0.0985  0.0868
   54RES   C34022706   5.068   5.937   4.429  0.0302 -0.3781  0.3603
   54RES   C34122707   5.027   6.028   4.310 -0.1463 -0.4178 -0.6164
   54RES   C34222708   4.969   5.953   4.194  0.3872 -0.2137 -0.1626
   54RES   C34322709   4.913   6.041   4.075  0.1040 -0.3367  0.1204
   54RES   C34422710   4.861   5.962   3.954 -0.8402 -0.1587  0.1658
   54RES   H34522711   5.105   5.809   4.650 -0.4560  1.0743 -1.5961
   54RES   H34622712   5.183   5.925   4.745 -1.0639  0.0355  1.8871
   54RES   H34722713   5.023   6.086   4.563 -1.6351 -1.2853 -1.4420
   54RES   H34822714   5.153   5.879   4.392  0.5255 -0.0016  0.9133
   54RES   H34922715   4.983   5.869   4.441 -3.5595  3.8990  0.7149
   54RES   H35022716   5.111   6.082   4.267 -0.5013  0.0867 -0.6820
   54RES   H35122717   4.960   6.104   4.351 -0.1505 -1.8867  2.1634
   54RES   H35222718   5.039   5.883   4.149 -0.3265 -1.2382  0.2881
   54RES   H35322719   4.892   5.884   4.230 -1.2177  1.9679  0.6997
   54RES   H35422720   4.829   6.103   4.110 -0.4757 -1.7279  1.2300
   54RES   H35522721   5.002   6.096   4.046  1.1433 -1.4199  1.2461
   54RES   H35622722   4.943   5.914   3.900 -1.4650 -1.5550  0.4523
   54RES   H35722723   4.823   6.034   3.882 -2.0086 -1.4592 -0.5460
   54RES   H35822724   4.779   5.896   3.981 -0.3454 -0.1241  1.8002
   54RES   C35922725   5.233   6.087   4.548 -0.2581  0.3063 -0.3263
   54RES   C36022726   5.251   6.218   4.640  0.4140  0.1814 -0.0511
   54RES   C36122727   5.271   6.190   4.796  0.4928  0.2524 -0.1554
   54RES   C36222728   5.403   6.134   4.850  0.3209  0.0962 -0.2930
   54RES   C36322729   5.390   6.114   4.995 -0.8760 -0.4538 -0.3693
   54RES   C36422730   5.527   6.076   5.055  0.3318  0.2825  0.3813
   54RES   C36522731   5.535   6.035   5.200  0.4596 -0.4304 -0.1574
   54RES   H36622732   5.250   6.122   4.445  0.1646 -1.1314 -0.7476
   54RES   H36722733   5.318   6.027   4.579 -0.7388  0.5440  1.4846
   54RES   H36822734   5.157   6.271   4.628  0.3568  0.2317  0.5983
   54RES   H36922735   5.247   6.284   4.847  0.4171  1.5515 -2.5001
   54RES   H37022736   5.189   6.128   4.831  0.7637 -0.2266 -0.3611
   54RES   H37122737   5.424   6.041   4.796 -1.3155 -1.9347  2.3959
   54RES   H37222738   5.486   6.202   4.830  0.2833 -0.5474 -2.8175
   54RES   H37322739   5.373   6.217   5.027 -1.9299 -0.8307  0.3122
   54RES   H37422740   5.313   6.042   5.023 -1.7574  0.6813  0.1809
   54RES   H37522741   5.556   5.987   5.000  1.0566  1.1171 -0.6081
   54RES   H37622742   5.599   6.153   5.028  1.0848  0.5208  2.9117
   54RES   H37722743   5.631   5.995   5.231  0.0896  0.2678  1.9147
   54RES   H37822744   5.521   6.118   5.269 -1.1849 -1.9880  1.4162
   54RES   H37922745   5.457   5.959   5.209  0.1394 -0.3059 -1.6870
   54RES   C38022746   5.368   6.308   4.582 -0.0256 -0.1663 -0.3176
   54RES   C38122747   5.382   6.454   4.641 -0.1701  0.1339  0.3668
   54RES   C38222748   5.512   6.523   4.585 -0.0941 -0.5219 -1.1506
   54RES   C38322749   5.588   6.625   4.675  0.1617  0.4344 -0.4076
   54RES   C38422750   5.737   6.664   4.629  0.6361  0.2660 -0.4921
   54RES   C38522751   5.749   6.730   4.487 -0.0224  0.3417  0.2003
   54RES   C38622752   5.751   6.629   4.373  0.3016 -0.4012  0.1806
   54RES   H38722753   5.460   6.250   4.589  0.0641  0.1909  1.7306
   54RES   H38822754   5.352   6.321   4.475  0.8896 -1.6397 -0.6392
   54RES   H38922755   5.408   6.440   4.746 -1.9273  1.5261  1.0293
   54RES   H39022756   5.494   6.569   4.488 -1.1232  0.9377 -0.2731
   54RES   H39122757   5.580   6.439   4.567  1.0884  0.6077 -2.1532
   54RES   H39222758   5.533   6.719   4.677 -0.3027  0.1479  0.1135
   54RES   H39322759   5.602   6.584   4.775 -0.3320  2.1628  0.3871
   54RES   H39422760   5.765   6.738   4.705 -0.3341 -0.8786  0.9985
   54RES   H39522761   5.803   6.578   4.620 -1.2306 -1.1464 -0.9114
   54RES   H39622762   5.830   6.803   4.490  0.0832  0.1804  3.5526
   54RES   H39722763   5.656   6.786   4.473 -0.7744 -0.6203  1.1456
   54RES   H39822764   5.664   6.563   4.375 -0.1380 -0.0784 -3.6575
   54RES   H39922765   5.839   6.570   4.347  0.0082 -0.1268 -1.5137
   54RES   H40022766   5.739   6.673   4.274  0.4132  1.4894  0.9854
   54RES   C40122767   5.260   6.547   4.635  0.4459 -0.2469  0.4112
   54RES   C40222768   5.213   6.581   4.494 -0.0361 -0.9263 -0.0389
   54RES   C40322769   5.088   6.676   4.498  0.7104 -0.0559  0.3467
   54RES   C40422770   5.064   6.747   4.371  0.4224 -0.1753  0.3860
   54RES   C40522771   4.946   6.840   4.387  0.0184 -0.2864 -0.0433
   54RES   C40622772   4.902   6.909   4.259  0.8132  0.8287 -0.1902
   54RES   C40722773   4.780   6.991   4.270 -0.0150  0.8649  0.1271
   54RES   H40822774   5.295   6.641   4.677  4.4417 -0.7907 -1.4361
   54RES   H40922775   5.170   6.509   4.681 -1.7872  3.1607 -0.9657
   54RES   H41022776   5.196   6.495   4.429  1.6711 -1.3853  0.0834
   54RES   H41122777   5.104   6.755   4.572 -2.3366  0.2234  0.7788
   54RES   H41222778   5.004   6.619   4.538  0.3256  1.2117  1.3901
   54RES   H41322779   5.054   6.683   4.282  3.7543  1.0905 -0.9436
   54RES   H41422780   5.148   6.811   4.345  0.1101  0.5573  1.1752
   54RES   H41522781   4.861   6.788   4.430  0.7404 -0.9961  0.5435
   54RES   H41622782   4.959   6.919   4.462 -3.5238  1.1395 -0.8329
   54RES   H41722783   4.990   6.960   4.221  0.4723  1.1659 -0.5364
   54RES   H41822784   4.884   6.824   4.194  1.1019  0.1846  0.5671
   54RES   H41922785   4.762   7.025   4.169 -0.6813  0.2545  0.0315
   54RES   H42022786   4.802   7.082   4.326 -1.5323  1.6906 -0.5960
   54RES   H42122787   4.693   6.934   4.303  0.3549  1.5611  2.4265
   54RES   H42222788   5.288   6.642   4.445  0.4044  0.1879  1.9693
   55RES     C122789   3.012   1.930   0.294  0.1712  0.1714  0.4989
   55RES     C222790   2.945   2.038   0.209  0.2673  0.9120 -0.8081
   55RES     C322791   2.873   2.137   0.305 -0.0737  0.0807 -0.0307
   55RES     C422792   2.969   2.228   0.379  0.3555 -0.2973  0.6325
   55RES     C522793   2.922   2.364   0.442 -1.2356 -0.3005  0.2324
   55RES     C622794   2.823   2.451   0.366  0.3906 -0.3712 -0.0687
   55RES     C722795   2.785   2.575   0.443 -0.4864  0.2755 -0.0689
   55RES     H822796   3.094   1.983   0.343 -2.1793  1.3035  3.3640
   55RES     H922797   3.043   1.844   0.234 -1.2914  1.6444 -2.4735
   55RES    H1022798   3.017   2.096   0.151  1.0125  2.1554  1.2887
   55RES    H1122799   2.791   2.194   0.260  0.2488  1.6842  1.3410
   55RES    H1222800   2.826   2.087   0.389  0.0209  0.3462  0.1787
   55RES    H1322801   3.027   2.173   0.453 -1.1865 -1.5852  0.9147
   55RES    H1422802   3.035   2.255   0.297  0.1272  0.7452  0.7876
   55RES    H1522803   3.008   2.427   0.463 -2.0002  0.5782  0.7350
   55RES    H1622804   2.885   2.336   0.541 -2.6364  0.7513  0.0087
   55RES    H1722805   2.738   2.390   0.337  0.1108 -0.8519  1.7304
   55RES    H1822806   2.881   2.486   0.281  2.8757  0.6814  1.9724
   55RES    H1922807   2.753   2.559   0.545  1.3092 -1.4084  0.2629
   55RES    H2022808   2.702   2.628   0.396 -1.4615  1.4066  2.8578
   55RES    H2122809   2.872   2.641   0.446  0.7147 -1.3274  0.9519
   55RES    H2222810   2.932   1.892   0.357 -0.2821 -1.8598 -1.2139
   55RES    C2322811   2.833   1.983   0.103 -0.8804 -0.3160 -0.8400
   55RES    C2422812   2.896   1.911   7.704  0.0884  0.2595  0.5064
   55RES    C2522813   2.971   2.011   7.600 -0.0437 -0.3244 -0.7020
   55RES    C2622814   3.086   1.956   7.519  0.4178 -0.0720  0.1995
   55RES    C2722815   3.137   2.053   7.411  0.3775 -0.4015 -0.3666
   55RES    C2822816   3.246   2.001   7.324 -0.5510  0.4088  0.2360
   55RES    C2922817   3.262   2.085   7.200 -0.0706  0.7077 -0.2771
   55RES    H3022818   2.763   1.926   0.163  0.9459 -1.3128  0.3882
   55RES    H3122819   2.768   2.060   0.062 -1.7915  0.2624  1.5913
   55RES    H3222820   2.971   1.840   0.012 -0.2575  0.0336  0.7895
   55RES    H3322821   3.005   2.100   7.653  0.1293 -0.6123 -0.3236
   55RES    H3422822   2.894   2.047   7.532 -2.5244 -1.7294  1.2569
   55RES    H3522823   3.062   1.864   7.464  0.3634 -0.3274  0.6527
   55RES    H3622824   3.164   1.927   7.589  1.6699 -0.2402 -1.2247
   55RES    H3722825   3.170   2.149   7.452  1.0487 -0.9768  0.4479
   55RES    H3822826   3.054   2.087   7.350  1.1745  3.5006  0.5675
   55RES    H3922827   3.219   1.897   7.304  1.1101 -0.8747  4.0879
   55RES    H4022828   3.335   1.998   7.386 -0.6893 -0.4943  0.3941
   55RES    H4122829   3.352   2.048   7.152 -0.9532 -0.7768 -0.8281
   55RES    H4222830   3.183   2.078   7.125  0.6548 -0.1191 -0.9797
   55RES    H4322831   3.269   2.187   7.236 -3.6886  0.8130  0.3091
   55RES    C4422832   2.787   1.835   7.634 -0.3750 -0.1356 -0.5226
   55RES    C4522833   2.788   1.681   7.618 -0.4867 -0.2273 -0.0316
   55RES    C4622834   2.789   1.612   0.029 -0.0080  0.8284 -0.0504
   55RES    C4722835   2.864   1.484   0.034  0.1195 -0.7978  0.9941
   55RES    C4822836   3.012   1.502   0.043  0.0070  0.1373 -0.7512
   55RES    C4922837   3.086   1.370   0.067  0.2719  0.0338  0.2599
   55RES    C5022838   3.229   1.394   0.112  0.0106 -0.2706  0.6687
   55RES    H5122839   2.774   1.888   7.539  0.2515 -0.0245 -0.5514
   55RES    H5222840   2.692   1.859   7.681 -0.2896  0.2712 -0.5488
   55RES    H5322841   2.881   1.655   7.567  0.6063  0.6197  1.4688
   55RES    H5422842   2.689   1.587   0.063  1.6887 -1.4830  3.6576
   55RES    H5522843   2.837   1.670   0.108 -0.1383  0.0937  0.5712
   55RES    H5622844   2.837   1.428   0.124  0.7709 -0.6708  1.2745
   55RES    H5722845   2.834   1.424   7.675 -0.3227 -1.0845  1.3422
   55RES    H5822846   3.029   1.574   0.123  1.3899  0.3199 -1.1965
   55RES    H5922847   3.037   1.547   7.673 -1.7389 -0.2203 -1.3909
   55RES    H6022848   3.087   1.313   7.700 -3.1739  1.7078 -0.8819
   55RES    H6122849   3.034   1.304   0.136 -1.2777  1.8845  0.9086
   55RES    H6222850   3.265   1.299   0.151  0.9646  0.6199  2.0015
   55RES    H6322851   3.237   1.470   0.190 -0.6796  2.5097 -1.8960
   55RES    H6422852   3.295   1.424   0.030  0.1269  0.3863  0.9973
   55RES    C6522853   2.663   1.632   7.529 -0.4186 -0.0997 -0.0323
   55RES    C6622854   2.676   1.663   7.372 -0.5496 -0.2808 -0.2993
   55RES    C6722855   2.567   1.585   7.301  0.1919  0.4804 -0.1718
   55RES    C6822856   2.424   1.629   7.319 -0.5265 -0.3218 -0.1905
   55RES    C6922857   2.326   1.572   7.210  0.4553 -0.2372  0.1853
   55RES    C7022858   2.181   1.602   7.246 -0.3697 -0.5173 -0.7175
   55RES    C7122859   2.074   1.565   7.146  0.1663 -0.1691  0.2459
   55RES    H7222860   2.664   1.524   7.539 -0.2612  0.1700  3.3998
   55RES    H7322861   2.566   1.668   7.563  0.0522 -0.9075  2.2307
   55RES    H7422862   2.648   1.767   7.354 -2.8286 -0.3224  2.5576
   55RES    H7522863   2.593   1.580   7.195  2.2177 -2.0320  0.4118
   55RES    H7622864   2.576   1.482   7.336 -0.2023  0.4310 -0.2155
   55RES    H7722865   2.390   1.589   7.415  2.6351  0.1735  1.2042
   55RES    H7822866   2.416   1.738   7.317 -1.1027 -0.3414  0.8002
   55RES    H7922867   2.354   1.607   7.111  0.2508  0.5588  0.4044
   55RES    H8022868   2.341   1.464   7.205 -0.9593 -0.3613 -2.2314
   55RES    H8122869   2.173   1.710   7.251 -0.1976 -0.5885  1.1469
   55RES    H8222870   2.137   1.559   7.335 -3.4124  0.0734 -1.8934
   55RES    H8322871   1.972   1.575   7.182  0.2549  0.0721  0.4309
   55RES    H8422872   2.082   1.631   7.059 -2.2175  1.6892  1.3798
   55RES    H8522873   2.087   1.462   7.113  1.0880  0.2516 -0.7677
   55RES    C8622874   2.817   1.627   7.321  1.0788 -0.4409 -0.3528
   55RES    C8722875   2.844   1.622   7.175 -0.2012 -0.4335 -0.1258
   55RES    C8822876   2.813   1.757   7.106  0.6074 -0.3842 -0.0653
   55RES    C8922877   2.896   1.878   7.152  0.6470  0.6728 -0.0839
   55RES    C9022878   2.858   2.022   7.102 -0.0380 -0.2686  0.0162
   55RES    C9122879   2.753   2.091   7.193 -0.2663  0.5837  0.4615
   55RES    C9222880   2.715   2.229   7.135 -0.2293 -0.2324  0.0166
   55RES    H9322881   2.894   1.687   7.370  1.1299 -1.6904  1.1410
   55RES    H9422882   2.843   1.532   7.367  0.7963 -0.9457 -1.2429
   55RES    H9522883   2.784   1.552   7.117 -0.7967 -2.4025  2.7680
   55RES    H9622884   2.817   1.730   7.000  0.3042 -0.7395  0.0108
   55RES    H9722885   2.706   1.775   7.122  1.1477  2.3959  0.7164
   55RES    H9822886   2.910   1.890   7.260 -0.5236  0.4860  0.0914
   55RES    H9922887   3.001   1.859   7.128  0.4859 -1.5435  0.8296
   55RES   H10022888   2.813   2.016   7.003 -0.5650  0.3586  0.2172
   55RES   H10122889   2.944   2.089   7.107  0.8361 -1.3966  0.0855
   55RES   H10222890   2.669   2.022   7.198  1.4491 -1.4940  0.9795
   55RES   H10322891   2.787   2.100   7.296  0.7680  1.2835  0.0670
   55RES   H10422892   2.793   2.302   7.117 -0.8690  0.3195 -0.5440
   55RES   H10522893   2.645   2.274   7.205  0.1650  0.6082 -0.1306
   55RES   H10622894   2.668   2.206   7.039 -0.0045 -0.2306 -0.0954
   55RES   C10722895   2.989   1.565   7.156  0.0446  0.0938 -0.2862
   55RES   C10822896   3.032   1.540   7.011 -0.5269  0.6604 -0.1857
   55RES   C10922897   3.178   1.569   6.991 -0.0585 -0.6121 -0.5649
   55RES   C11022898   3.220   1.718   7.011 -0.7356 -0.1064 -0.6717
   55RES   C11122899   3.181   1.813   6.904  0.0699 -0.6588 -0.3482
   55RES   C11222900   3.255   1.803   6.764  0.1331  0.1330 -0.6574
   55RES   C11322901   3.402   1.837   6.773  0.3450  0.7256  0.3093
   55RES   H11422902   3.006   1.475   7.215 -0.8719  0.2415  0.2188
   55RES   H11522903   3.054   1.637   7.206 -0.6356  0.5909 -0.1054
   55RES   H11622904   2.967   1.604   6.951  0.3611  0.1116 -1.7430
   55RES   H11722905   3.213   1.531   6.895  3.6533 -0.5643  0.6782
   55RES   H11822906   3.232   1.516   7.070  1.2931  0.4098 -0.7860
   55RES   H11922907   3.200   1.761   7.109  2.6370 -2.4554  1.1466
   55RES   H12022908   3.328   1.720   7.024 -0.5448  2.0927 -2.3659
   55RES   H12122909   3.200   1.910   6.949  0.4689 -1.1682  0.5936
   55RES   H12222910   3.072   1.819   6.897  0.2086 -0.7394 -3.4829
   55RES   H12322911   3.241   1.703   6.724  0.0613 -0.5759  1.0847
   55RES   H12422912   3.218   1.872   6.688  2.0667 -0.2814 -2.0075
   55RES   H12522913   3.422   1.944   6.768  1.0050  0.5755 -0.5846
   55RES   H12622914   3.447   1.783   6.856  1.9283  1.8210  0.2039
   55RES   H12722915   3.446   1.781   6.690  0.6187  3.1088 -1.1934
   55RES   C12822916   2.984   1.396   6.959 -0.6971  0.3555  0.1420
   55RES   C12922917   2.993   1.392   6.802 -0.0643 -0.5749 -0.2246
   55RES   C13022918   2.861   1.427   6.739  0.1004 -0.4556  0.6832
   55RES   C13122919   2.755   1.323   6.747 -0.2751  0.3694  0.8634
   55RES   C13222920   2.612   1.370   6.704 -0.5951 -0.1887  0.4075
   55RES   C13322921   2.566   1.502   6.767  0.1114  0.0095 -0.1028
   55RES   C13422922   2.557   1.505   6.910 -0.6087 -0.0752  0.0608
   55RES   H13522923   3.053   1.319   6.995  0.4747  1.5209  0.4186
   55RES   H13622924   2.883   1.378   6.995  0.0519  0.8032  2.5415
   55RES   H13722925   3.062   1.471   6.773 -0.8775  1.0024  2.0686
   55RES   H13822926   2.888   1.441   6.635 -1.6078 -0.7165  0.1852
   55RES   H13922927   2.825   1.519   6.785 -1.6339 -0.8354  0.1219
   55RES   H14022928   2.749   1.277   6.846 -0.6880 -1.5576 -0.0456
   55RES   H14122929   2.779   1.240   6.681 -1.2800  1.7844 -1.3182
   55RES   H14222930   2.538   1.291   6.712  0.8444 -1.6034 -0.0030
   55RES   H14322931   2.615   1.383   6.596 -0.0349  0.4051  0.4889
   55RES   H14422932   2.472   1.538   6.725 -1.8374 -3.1963  1.2967
   55RES   H14522933   2.634   1.578   6.728 -0.2384  0.9032  0.9854
   55RES   H14622934   2.558   1.606   6.952 -1.3145  0.4243 -1.1139
   55RES   H14722935   2.637   1.449   6.959  3.7358  3.1536 -2.8592
   55RES   H14822936   2.466   1.457   6.946 -0.6985  1.1307  1.5102
   55RES   C14922937   3.049   1.260   6.747  0.0505  0.0933 -0.0851
   55RES   C15022938   3.207   1.254   6.754  0.2628  0.4861  0.0759
   55RES   C15122939   3.265   1.329   6.627 -0.3432 -0.1965  0.3456
   55RES   C15222940   3.405   1.393   6.651  0.0125 -1.7037 -0.3110
   55RES   C15322941   3.448   1.485   6.542 -0.2809  0.4826 -0.0598
   55RES   C15422942   3.594   1.532   6.546  0.3946 -0.1699 -0.2295
   55RES   C15522943   3.630   1.614   6.423 -0.0773  0.1345 -0.7652
   55RES   H15622944   2.995   1.177   6.792  1.2896 -0.8098 -0.2375
   55RES   H15722945   3.024   1.262   6.641  0.7952 -1.2201 -0.2927
   55RES   H15822946   3.245   1.290   6.849 -0.3587 -0.8768  0.8603
   55RES   H15922947   3.276   1.267   6.538 -2.2046  0.9025 -0.7008
   55RES   H16022948   3.194   1.408   6.601 -0.2880 -0.2758 -0.0511
   55RES   H16122949   3.471   1.306   6.655  0.6936 -1.2319 -1.0695
   55RES   H16222950   3.420   1.458   6.737  0.0994 -0.2634 -1.3868
   55RES   H16322951   3.374   1.565   6.538 -0.2395  0.4920 -0.7104
   55RES   H16422952   3.430   1.441   6.443  0.8540  1.1405 -0.5740
   55RES   H16522953   3.653   1.441   6.552 -1.7389 -1.9401 -4.7339
   55RES   H16622954   3.621   1.591   6.634  3.0904 -0.7428 -0.6085
   55RES   H16722955   3.558   1.593   6.344 -1.2597 -1.5896  0.6996
   55RES   H16822956   3.730   1.587   6.390  0.2148  0.7241 -0.3622
   55RES   H16922957   3.610   1.720   6.436 -0.0282  0.2617 -1.7375
   55RES   C17022958   3.250   1.110   6.741 -0.6405  0.2641  0.3050
   55RES   C17122959   3.224   1.028   6.863 -0.1555  0.1785  0.5658
   55RES   C17222960   3.137   0.905   6.823 -0.0077 -0.4345  0.2588
   55RES   C17322961   3.051   0.827   6.933  0.2180  0.1563  0.5307
   55RES   C17422962   2.933   0.739   6.887  0.3206  0.0623  0.1624
   55RES   C17522963   2.819   0.724   6.987 -0.1678  0.5099 -0.1311
   55RES   C17622964   2.856   0.621   7.096  0.4383 -0.0065  0.3922
   55RES   H17722965   3.358   1.111   6.729 -0.4433  0.5817  1.9605
   55RES   H17822966   3.210   1.066   6.650  1.1938 -1.9586  0.5506
   55RES   H17922967   3.171   1.089   6.936 -2.3112  1.1973 -1.7518
   55RES   H18022968   3.208   0.836   6.778  1.6945  0.7056  1.1498
   55RES   H18122969   3.070   0.927   6.740 -0.4285 -3.5929 -0.3108
   55RES   H18222970   3.016   0.905   7.001 -2.9277 -0.9657  0.2811
   55RES   H18322971   3.118   0.764   6.990 -0.6550 -3.2925 -2.0891
   55RES   H18422972   2.961   0.636   6.865  0.5874 -0.1702  1.5556
   55RES   H18522973   2.897   0.786   6.795 -0.0754  0.7324  0.6486
   55RES   H18622974   2.725   0.686   6.948 -0.3984  0.0286  0.8738
   55RES   H18722975   2.793   0.816   7.039  1.6376  0.5782  0.6927
   55RES   H18822976   2.833   0.517   7.073 -2.1925  0.6012  0.1240
   55RES   H18922977   2.801   0.635   7.189  0.8433 -0.1112  0.6526
   55RES   H19022978   2.960   0.640   7.125  0.8508 -0.4187 -0.8122
   55RES   C19122979   3.353   0.973   6.925 -0.7395  0.1719  0.2718
   55RES   C19222980   3.449   1.067   6.989 -0.6646 -0.7924  0.0118
   55RES   C19322981   3.389   1.122   7.120  0.4276  0.3167  0.4848
   55RES   C19422982   3.438   1.255   7.166 -0.1990 -0.4223  0.4393
   55RES   C19522983   3.365   1.310   7.289  0.4845 -0.7630  0.0477
   55RES   C19622984   3.412   1.452   7.325 -0.2710 -0.5125  0.0722
   55RES   C19722985   3.353   1.514   7.447 -0.3847  0.3616  0.0128
   55RES   H19822986   3.400   0.917   6.844 -0.5127  0.4315  0.2251
   55RES   H19922987   3.333   0.901   7.005  1.7480 -1.1259 -0.2420
   55RES   H20022988   3.485   1.146   6.923 -1.5541  1.0199  1.6348
   55RES   H20122989   3.401   1.050   7.201  0.0729 -0.3043 -0.0054
   55RES   H20222990   3.282   1.140   7.105  0.8667  1.8127 -0.8607
   55RES   H20322991   3.431   1.329   7.086 -3.1573 -1.6956 -0.5846
   55RES   H20422992   3.544   1.238   7.186 -0.2008  0.3161  1.1178
   55RES   H20522993   3.257   1.310   7.273  0.7475 -1.2332 -1.9615
   55RES   H20622994   3.389   1.242   7.371 -0.2517 -1.7702 -0.5523
   55RES   H20722995   3.397   1.514   7.237 -2.0912 -0.2060  0.5903
   55RES   H20822996   3.519   1.453   7.349 -0.4217 -0.9653  0.7652
   55RES   H20922997   3.394   1.612   7.471  1.5744 -0.4875  0.1977
   55RES   H21022998   3.358   1.465   7.544 -3.0963 -0.6825 -0.3138
   55RES   H21122999   3.248   1.539   7.430 -0.3479  0.6902  0.2586
   55RES   C21223000   3.580   1.004   7.027  0.3358  0.7349 -0.5569
   55RES   C21323001   3.676   0.974   6.911 -0.0730 -0.0313  0.9127
   55RES   C21423002   3.719   1.099   6.827 -0.6695  0.2190 -0.0419
   55RES   C21523003   3.781   1.214   6.916  0.0820  0.5366  0.3908
   55RES   C21623004   3.839   1.322   6.833 -0.1306  0.2122 -0.1786
   55RES   C21723005   3.862   1.452   6.910  0.4417  0.4385 -0.3052
   55RES   C21823006   3.938   1.561   6.828 -0.6235  0.5010  0.2389
   55RES   H21923007   3.559   0.913   7.083 -0.8255  1.0343 -0.4936
   55RES   H22023008   3.636   1.074   7.089  0.6586  0.3427 -0.4007
   55RES   H22123009   3.619   0.914   6.840 -1.8012  0.2577  2.0293
   55RES   H22223010   3.789   1.062   6.752 -1.6280  0.7696 -1.2246
   55RES   H22323011   3.634   1.147   6.778  0.3851  1.0598 -1.0680
   55RES   H22423012   3.859   1.177   6.981 -1.0826 -2.2722  0.2464
   55RES   H22523013   3.698   1.260   6.970 -1.0316  0.9122 -1.5907
   55RES   H22623014   3.940   1.293   6.804 -0.4974 -2.0263  0.6617
   55RES   H22723015   3.791   1.325   6.735  0.2551  2.3344 -0.3334
   55RES   H22823016   3.762   1.491   6.925 -0.1819 -1.4370  0.4988
   55RES   H22923017   3.899   1.434   7.011 -2.1375  0.9530  0.7774
   55RES   H23023018   3.964   1.649   6.886 -2.2761  0.6630  0.7758
   55RES   H23123019   3.880   1.577   6.737 -0.6764 -0.5084  0.0866
   55RES   H23223020   4.027   1.509   6.794 -0.1314 -0.7951  3.3431
   55RES   C23323021   3.804   0.894   6.957 -0.2797  0.5835 -0.0639
   55RES   C23423022   3.783   0.744   7.001  0.1920 -0.2640  0.1720
   55RES   C23523023   3.729   0.662   6.884  0.3550  0.5883 -0.2667
   55RES   C23623024   3.831   0.635   6.771 -0.2635 -0.6674 -0.6269
   55RES   C23723025   3.763   0.557   6.660 -0.0594  0.2335 -0.1581
   55RES   C23823026   3.853   0.517   6.542  0.5199  0.2444  0.1767
   55RES   C23923027   3.780   0.432   6.444  0.6081 -0.7207 -0.5079
   55RES   H24023028   3.852   0.937   7.045  2.0446  1.9805 -1.9549
   55RES   H24123029   3.880   0.896   6.880 -1.8381 -1.2458 -1.6800
   55RES   H24223030   3.709   0.744   7.081 -0.9095 -1.0042 -0.8124
   55RES   H24323031   3.641   0.709   6.841 -0.1157  0.8254  0.9206
   55RES   H24423032   3.701   0.565   6.926  0.6037  0.1676 -1.0667
   55RES   H24523033   3.919   0.579   6.804  2.0089  1.9162 -2.0664
   55RES   H24623034   3.861   0.731   6.729  0.7543 -1.0152 -0.7065
   55RES   H24723035   3.677   0.614   6.623 -1.0267 -1.1383 -0.0700
   55RES   H24823036   3.732   0.459   6.696  0.7442 -1.1673 -3.0870
   55RES   H24923037   3.876   0.609   6.487  4.1409 -0.3340  0.5532
   55RES   H25023038   3.943   0.458   6.561  0.9383  0.2903 -1.5087
   55RES   H25123039   3.841   0.414   6.355  0.3240 -1.5509 -0.5434
   55RES   H25223040   3.763   0.338   6.496  1.0348 -1.1985 -1.2165
   55RES   H25323041   3.684   0.472   6.413  0.4267 -1.6971 -1.2423
   55RES   C25423042   3.906   0.683   7.070 -0.9646  0.7872 -0.4050
   55RES   C25523043   3.899   0.541   7.135  0.0090  0.0859 -0.2102
   55RES   C25623044   3.813   0.529   7.259 -0.2054 -0.0303 -0.1234
   55RES   C25723045   3.823   0.645   7.364 -0.3131  0.4362 -0.5687
   55RES   C25823046   3.779   0.622   7.513  0.4804 -0.3976 -0.6971
   55RES   C25923047   3.626   0.598   7.522  0.2097  0.2749  0.0230
   55RES   C26023048   3.586   0.567   7.660 -0.0317  0.0771  0.5681
   55RES   H26123049   3.940   0.758   7.141  1.5373 -0.3083 -0.4268
   55RES   H26223050   3.985   0.687   6.994 -1.8855  2.2624 -1.3328
   55RES   H26323051   3.856   0.477   7.058 -0.0864 -1.0973  0.8262
   55RES   H26423052   3.831   0.432   7.306  0.1275 -0.5395 -1.2942
   55RES   H26523053   3.708   0.513   7.234 -0.2111 -1.1928  0.5873
   55RES   H26623054   3.923   0.687   7.368  0.6224 -1.8507  0.8284
   55RES   H26723055   3.764   0.723   7.316  0.8132 -0.2034 -3.1066
   55RES   H26823056   3.818   0.707   7.570  3.2623 -2.4072  0.5076
   55RES   H26923057   3.829   0.531   7.545  2.5442  1.0753  0.4122
   55RES   H27023058   3.580   0.683   7.471  3.1663  0.7827 -1.9341
   55RES   H27123059   3.593   0.518   7.456 -2.8261  0.9727  0.6364
   55RES   H27223060   3.625   0.635   0.009  0.0804 -1.2002  1.6770
   55RES   H27323061   3.478   0.556   7.668 -0.3180  1.0167 -1.7101
   55RES   H27423062   3.630   0.467   7.666  1.6999  0.6995 -1.4276
   55RES   C27523063   4.035   0.476   7.168  0.0917  0.7364 -0.1545
   55RES   C27623064   4.110   0.434   7.042  0.3730  0.3830 -0.2264
   55RES   C27723065   4.062   0.299   6.990  0.3922  0.1864  0.0105
   55RES   C27823066   4.114   0.255   6.858 -0.2032 -0.9174 -0.1116
   55RES   C27923067   4.041   0.133   6.794 -0.8721  0.1217 -0.1372
   55RES   C28023068   4.102   0.093   6.655  0.3678 -0.2103  0.3543
   55RES   C28123069   4.045   7.683   6.611 -0.3388  0.0640  0.4497
   55RES   H28223070   4.040   0.383   7.224  0.8338 -0.0989 -1.5950
   55RES   H28323071   4.082   0.552   7.230 -0.9852  2.5676 -1.5149
   55RES   H28423072   4.092   0.505   6.961  2.0476  0.8553 -0.1912
   55RES   H28523073   4.091   0.224   7.063 -0.8836  2.2465  2.7368
   55RES   H28623074   3.953   0.295   6.994  0.5105 -1.2960  2.0137
   55RES   H28723075   4.219   0.227   6.869 -0.2098 -0.9429 -0.1146
   55RES   H28823076   4.090   0.342   6.798 -0.5236 -0.4880  0.6433
   55RES   H28923077   3.936   0.162   6.798 -1.5232 -1.9071 -1.6602
   55RES   H29023078   4.060   0.055   6.867 -0.5948  0.8382  0.5612
   55RES   H29123079   4.073   0.165   6.578 -2.1179 -2.0765 -0.5277
   55RES   H29223080   4.210   0.084   6.660  0.4793  1.3814  1.1407
   55RES   H29323081   4.023   7.621   6.698  0.9860 -1.8128 -0.5176
   55RES   H29423082   4.104   7.627   6.538  0.7979  0.2707  1.2001
   55RES   H29523083   3.953   7.705   6.555 -0.4882  0.4888  0.8589
   55RES   C29623084   4.262   0.427   7.068 -0.3834 -0.7004 -0.1960
   55RES   C29723085   4.340   0.557   7.087 -0.6942  0.4503 -0.1727
   55RES   C29823086   4.368   0.638   6.962 -0.0833 -0.1441  0.0943
   55RES   C29923087   4.252   0.720   6.906  0.8724  0.2570  0.3711
   55RES   C30023088   4.297   0.838   6.824 -0.3720 -0.3034  0.2532
   55RES   C30123089   4.181   0.915   6.763 -0.2585 -0.2042  0.4613
   55RES   C30223090   4.217   1.033   6.673  0.3316  0.0201 -0.3541
   55RES   H30323091   4.264   0.372   7.162 -1.5898  0.6759  0.6677
   55RES   H30423092   4.311   0.381   6.983  1.2943 -0.0629  0.4037
   55RES   H30523093   4.284   0.624   7.152  0.0572  0.9219  0.0045
   55RES   H30623094   4.449   0.707   6.986 -0.3023  0.2184 -0.2117
   55RES   H30723095   4.408   0.578   6.881 -1.4532  1.7658 -2.0948
   55RES   H30823096   4.179   0.751   6.981  0.4512 -0.3856  0.2323
   55RES   H30923097   4.195   0.658   6.836  1.2445  0.9879 -0.5986
   55RES   H31023098   4.370   0.806   6.750  1.5653 -0.8130  2.3192
   55RES   H31123099   4.361   0.907   6.878 -0.2895 -1.3816  1.5520
   55RES   H31223100   4.121   0.852   6.698  0.6932  1.7186 -2.3801
   55RES   H31323101   4.127   0.961   6.846 -0.0156  0.9786 -0.0186
   55RES   H31423102   4.293   1.001   6.602 -1.3591 -0.6398 -1.8876
   55RES   H31523103   4.129   1.073   6.624 -0.2316 -1.9784 -1.0184
   55RES   H31623104   4.247   1.118   6.734 -1.8940  1.1617 -0.7888
   55RES   C31723105   4.481   0.516   7.157  0.9288  0.2333 -0.5802
   55RES   C31823106   4.543   0.624   7.246 -0.4338 -0.3736 -0.9118
   55RES   C31923107   4.452   0.679   7.363  0.3865  0.6775 -0.1434
   55RES   C32023108   4.449   0.838   7.371  0.4593  0.5253 -0.2994
   55RES   C32123109   4.403   0.905   7.238  0.0074 -0.1115 -0.0717
   55RES   C32223110   4.318   1.031   7.242 -0.1944  0.0008  0.7890
   55RES   C32323111   4.328   1.115   7.109  0.2783 -0.1354 -0.4095
   55RES   H32423112   4.556   0.505   7.079  1.2321  2.0088 -0.5504
   55RES   H32523113   4.472   0.424   7.214  1.2620 -0.1163 -1.0897
   55RES   H32623114   4.564   0.710   7.182 -0.0906  0.9667  0.9459
   55RES   H32723115   4.466   0.636   7.462 -1.6841  2.0364  0.7544
   55RES   H32823116   4.354   0.636   7.343  0.2498  0.3814  1.1252
   55RES   H32923117   4.535   0.884   7.419  1.5912 -0.9562 -0.8778
   55RES   H33023118   4.373   0.865   7.444  0.4345 -0.9241  0.2335
   55RES   H33123119   4.337   0.845   7.175 -0.0837  0.2872 -0.3583
   55RES   H33223120   4.496   0.921   7.182  0.4012  0.9339  0.8620
   55RES   H33323121   4.335   1.107   7.318 -0.9153  2.7807 -1.7111
   55RES   H33423122   4.220   0.993   7.267  0.3628 -1.2447  1.1231
   55RES   H33523123   4.295   1.061   7.021 -2.0154  0.1323  0.2409
   55RES   H33623124   4.432   1.145   7.093  0.5985 -0.6451  0.6449
   55RES   H33723125   4.261   1.200   7.123 -0.7403 -0.9763 -0.1114
   55RES   C33823126   4.675   0.561   7.301  0.4078  0.2191 -0.2858
   55RES   C33923127   4.761   0.657   7.392  1.0851 -0.3172  0.2704
   55RES   C34023128   4.828   0.778   7.311  0.2346  0.5489  0.5012
   55RES   C34123129   4.951   0.742   7.215 -0.5512 -0.3869  0.0128
   55RES   C34223130   5.032   0.868   7.163  0.0620  0.0241  0.2041
   55RES   C34323131   5.103   0.829   7.032  0.4606 -0.3818 -0.2904
   55RES   C34423132   5.164   0.944   6.948  0.1433  0.0602  0.4510
   55RES   H34523133   4.743   0.528   7.222  1.9258 -1.3277  1.6245
   55RES   H34623134   4.656   0.474   7.363 -0.4035  0.7800  0.2482
   55RES   H34723135   4.696   0.708   7.464  1.0610 -0.9241  0.6766
   55RES   H34823136   4.748   0.816   7.248 -0.7872 -1.3637  0.6049
   55RES   H34923137   4.867   0.855   7.377  0.7514  1.7389 -1.1806
   55RES   H35023138   4.917   0.679   7.132  1.0906 -3.3173  1.4556
   55RES   H35123139   5.021   0.683   7.275 -0.0726 -0.1882 -0.3462
   55RES   H35223140   4.973   0.960   7.156 -1.3586 -0.7997  1.1003
   55RES   H35323141   5.109   0.905   7.231  0.7359 -1.3742  0.2184
   55RES   H35423142   5.176   0.748   7.041  1.2880  0.0468 -2.7161
   55RES   H35523143   5.030   0.779   6.967 -0.4571 -0.2092  0.5868
   55RES   H35623144   5.088   1.022   6.945 -0.6280 -0.6910  0.2005
   55RES   H35723145   5.189   0.919   6.845  0.6624 -2.4148  1.1439
   55RES   H35823146   5.248   0.979   7.008  0.0562 -1.1431  1.3030
   55RES   C35923147   4.869   0.581   7.472 -0.4182 -0.6968  0.5539
   55RES   C36023148   4.964   0.653   7.569  0.3559 -0.5670  0.4177
   55RES   C36123149   4.869   0.730   7.667 -0.1015  1.1527  0.0758
   55RES   C36223150   4.942   0.813   0.044  0.0431 -0.3059  0.0717
   55RES   C36323151   4.849   0.893   0.142 -0.4334 -0.4210  0.2153
   55RES   C36423152   4.775   1.010   0.083  0.3732  0.2791  0.0183
   55RES   C36523153   4.857   1.128   0.037 -0.6183 -0.5845  0.7480
   55RES   H36623154   4.932   0.524   7.404 -1.5150  1.0349 -2.0289
   55RES   H36723155   4.814   0.507   7.529 -3.4843 -0.6938 -2.2265
   55RES   H36823156   5.021   0.722   7.507 -0.0945 -0.8583 -0.3248
   55RES   H36923157   4.795   0.792   7.615 -0.4729 -0.2468 -1.0876
   55RES   H37023158   4.816   0.659   0.004 -1.2334  1.7598 -0.1810
   55RES   H37123159   5.003   0.748   0.108 -1.0397  0.5665  2.0379
   55RES   H37223160   5.007   0.874   7.709  1.6863 -2.7695 -0.7186
   55RES   H37323161   4.772   0.841   0.199 -0.7839  0.4524  0.5471
   55RES   H37423162   4.916   0.948   0.208 -1.4046  1.4172 -0.2952
   55RES   H37523163   4.712   0.976   0.001 -0.2120 -1.5721  1.1923
   55RES   H37623164   4.718   1.047   0.169  0.5344  0.6623 -0.0386
   55RES   H37723165   4.888   1.197   0.116  1.4644  0.3000 -0.8059
   55RES   H37823166   4.939   1.093   7.702 -0.8118  0.0325  0.1405
   55RES   H37923167   4.804   1.206   7.708  0.2514 -0.7345 -0.2956
   55RES   C38023168   5.076   0.566   7.641  0.1578 -0.3334  0.3844
   55RES   C38123169   5.184   0.512   7.552  0.1989  0.7915 -0.7515
   55RES   C38223170   5.284   0.620   7.492 -0.0710 -0.0701 -0.4465
   55RES   C38323171   5.328   0.603   7.353 -0.0225 -0.3839 -0.1109
   55RES   C38423172   5.457   0.688   7.324  0.5296 -1.0599 -0.1865
   55RES   C38523173   5.514   0.661   7.186 -0.1504 -0.5213  0.7037
   55RES   C38623174   5.616   0.756   7.143  0.5568 -0.1176 -0.0990
   55RES   H38723175   5.120   0.630   7.718 -2.0559 -0.5197  1.8286
   55RES   H38823176   5.022   0.485   7.690  0.1953  0.9905  2.7309
   55RES   H38923177   5.138   0.465   7.465 -0.2902 -1.0890  0.4815
   55RES   H39023178   5.372   0.622   7.556 -1.7029 -0.3260  1.8864
   55RES   H39123179   5.248   0.723   7.505  0.9478  0.3015 -0.5524
   55RES   H39223180   5.355   0.498   7.341  2.2593  0.4838 -3.2732
   55RES   H39323181   5.241   0.612   7.288 -0.7745 -1.9073  0.6468
   55RES   H39423182   5.437   0.795   7.332  2.7338 -0.3023 -3.6685
   55RES   H39523183   5.532   0.679   7.403 -1.3858  0.1132  1.7988
   55RES   H39623184   5.436   0.655   7.110 -1.5356 -0.1941  2.0501
   55RES   H39723185   5.551   0.558   7.187 -1.6176 -1.1379 -2.4911
   55RES   H39823186   5.594   0.861   7.161  1.5665  0.3600 -1.5638
   55RES   H39923187   5.648   0.753   7.039 -2.6514  0.1414 -1.1172
   55RES   H40023188   5.705   0.747   7.205 -0.3397  0.1438  1.2420
   55RES   C40123189   5.264   0.404   7.619 -0.3693  0.3068 -0.4256
   55RES   C40223190   5.192   0.269   7.641  0.0607  0.5372 -0.2045
   55RES   C40323191   5.257   0.163   7.726 -0.5070  0.1151  0.0038
   55RES   C40423192   5.189   0.024   7.695  0.1951  0.8996 -0.3814
   55RES   C40523193   5.033   0.015   0.008 -0.6669 -0.0350  0.6475
   55RES   C40623194   4.965   7.620   7.670  0.1297  0.9543 -0.4688
   55RES   C40723195   4.815   7.613   7.672  0.5102  0.9430  0.0405
   55RES   H40823196   5.304   0.435   7.716  0.4541  2.8300 -1.5335
   55RES   H40923197   5.353   0.390   7.558 -0.0925  3.2817 -0.7884
   55RES   H41023198   5.173   0.233   7.540 -1.7796 -0.5727  0.5106
   55RES   H41123199   5.251   0.199   0.102  0.4717  0.7270 -0.1413
   55RES   H41223200   5.364   0.159   7.706 -0.2480  0.3522  1.3264
   55RES   H41323201   5.236   7.680   0.036 -0.1605  0.5155 -0.5374
   55RES   H41423202   5.214   0.004   7.591  3.7386  0.7880  0.4493
   55RES   H41523203   5.016   0.035   0.114 -1.2424  0.1369  0.5219
   55RES   H41623204   4.981   0.095   7.682  1.9990  3.6581  3.3289
   55RES   H41723205   5.002   7.610   7.568  0.0926 -0.1806 -0.3672
   55RES   H41823206   5.003   7.536   7.726  1.6111 -0.6064 -3.6496
   55RES   H41923207   4.775   7.619   0.046  0.0523  2.5555 -0.2117
   55RES   H42023208   4.773   7.524   7.625 -2.3909  1.8538  0.8224
   55RES   H42123209   4.775   7.693   7.609  0.2665 -0.3647 -1.4901
   55RES   H42223210   5.090   0.284   7.676 -0.9695 -0.5760 -2.6139
   56RES     C123211   3.100   3.411   3.898  0.0806 -0.0330  0.1202
   56RES     C223212   3.137   3.264   3.868  0.5273  0.3223 -1.0014
   56RES     C323213   3.053   3.207   3.756  0.2540  0.8953  0.4012
   56RES     C423214   3.097   3.059   3.703  0.7041 -0.4569  0.1597
   56RES     C523215   2.983   2.962   3.690  0.6750 -0.2481  0.3052
   56RES     C623216   2.889   2.971   3.563  0.0781 -0.0895 -0.0408
   56RES     C723217   2.789   2.855   3.562  0.1607 -0.3524 -0.0543
   56RES     H823218   3.091   3.461   3.801  0.2054  1.4890  0.8807
   56RES     H923219   3.181   3.461   3.951 -0.8473  2.3729 -0.6911
   56RES    H1023220   3.240   3.256   3.833  1.5860  2.1762  1.5107
   56RES    H1123221   2.948   3.212   3.784  0.6864 -0.7505  2.4546
   56RES    H1223222   3.065   3.278   3.674 -0.7252  3.3555  2.3427
   56RES    H1323223   3.165   3.049   3.619  1.2445 -1.6922  0.7441
   56RES    H1423224   3.150   3.019   3.789  2.4635  2.4981  0.5298
   56RES    H1523225   2.917   2.962   3.777  3.5960  0.5797  2.6337
   56RES    H1623226   3.033   2.865   3.685  0.2685 -0.3582 -2.1690
   56RES    H1723227   2.942   2.978   3.467  1.6275 -1.8064  0.6763
   56RES    H1823228   2.836   3.066   3.572 -0.4866 -0.5065  0.9873
   56RES    H1923229   2.838   2.758   3.551 -0.5886 -0.6251 -0.9899
   56RES    H2023230   2.716   2.867   3.483 -1.5693 -0.2545  1.5218
   56RES    H2123231   2.744   2.859   3.662  1.0645  1.2349  0.3058
   56RES    H2223232   3.006   3.416   3.952  0.3205  1.0399  0.4457
   56RES    C2323233   3.126   3.186   4.003  1.1965  0.8447 -0.2634
   56RES    C2423234   3.246   3.203   4.100  0.0513 -0.1886 -0.0307
   56RES    C2523235   3.365   3.111   4.067  0.5871  0.1596  0.3964
   56RES    C2623236   3.492   3.181   4.117 -0.4449 -0.0197  0.4691
   56RES    C2723237   3.616   3.102   4.087 -0.6276  0.5230 -0.1776
   56RES    C2823238   3.742   3.163   4.141 -0.4329  0.1665 -0.0112
   56RES    C2923239   3.871   3.099   4.091  0.2724  0.3872  0.0291
   56RES    H3023240   3.041   3.219   4.063  0.3438 -0.3938 -0.7839
   56RES    H3123241   3.118   3.079   3.983  0.4652  0.9520 -0.5530
   56RES    H3223242   3.278   3.307   4.091 -0.0669 -0.1085  0.4352
   56RES    H3323243   3.374   3.099   3.959 -0.7486  1.9738  0.0633
   56RES    H3423244   3.353   3.016   4.119 -4.5676  0.5947  0.1907
   56RES    H3523245   3.481   3.198   4.224  1.2453 -2.3547  1.0342
   56RES    H3623246   3.508   3.284   4.084 -1.4392  0.0669  0.2144
   56RES    H3723247   3.629   3.090   3.980  0.2205 -0.7693  0.0557
   56RES    H3823248   3.620   3.001   4.129  0.4715  1.1128  1.1570
   56RES    H3923249   3.739   3.163   4.250 -1.0678  0.0735 -0.0285
   56RES    H4023250   3.744   3.271   4.126 -2.2630  0.3980  1.1927
   56RES    H4123251   3.853   3.089   3.984 -0.8612 -0.9013  0.3152
   56RES    H4223252   3.967   3.141   4.121 -0.1610 -0.5314  2.8085
   56RES    H4323253   3.879   2.995   4.122  0.0731  0.8563  1.7037
   56RES    C4423254   3.201   3.176   4.240  1.0619 -0.0971  0.2464
   56RES    C4523255   3.129   3.298   4.307  0.4642  0.5137 -0.2636
   56RES    C4623256   3.026   3.248   4.418 -0.2014 -0.1309 -0.2657
   56RES    C4723257   3.108   3.165   4.522 -0.0564 -0.0124 -0.6140
   56RES    C4823258   3.037   3.140   4.660  0.1240  0.1839  0.3421
   56RES    C4923259   3.110   3.023   4.735  0.0066 -0.4355  0.3238
   56RES    C5023260   3.067   3.001   4.883  0.2225  0.0861 -0.8632
   56RES    H5123261   3.276   3.134   4.307 -0.8936  1.0200  3.2400
   56RES    H5223262   3.129   3.094   4.230  0.8572  0.3146 -2.1548
   56RES    H5323263   3.059   3.340   4.235 -0.6211  1.0262  1.0557
   56RES    H5423264   2.951   3.181   4.377 -0.3566  0.2613 -0.6346
   56RES    H5523265   2.977   3.338   4.456 -0.2527  0.3873 -1.5218
   56RES    H5623266   3.123   3.072   4.467 -0.3504 -0.9475  0.8467
   56RES    H5723267   3.209   3.202   4.540 -0.5482 -0.0903  2.6490
   56RES    H5823268   2.930   3.126   4.647  0.4913 -0.1199 -2.6745
   56RES    H5923269   3.038   3.227   4.726  0.3122  0.4250  0.0256
   56RES    H6023270   3.219   3.020   4.728 -0.0718 -0.8719 -0.8475
   56RES    H6123271   3.075   2.936   4.678 -1.1624 -1.2592  2.2563
   56RES    H6223272   3.090   2.905   4.929 -0.3673  0.5057  0.3388
   56RES    H6323273   2.958   3.005   4.884  0.1291 -0.6119  4.1647
   56RES    H6423274   3.105   3.079   4.949  1.3414 -0.3082 -1.0228
   56RES    C6523275   3.226   3.407   4.349 -0.2547 -0.5063 -0.4187
   56RES    C6623276   3.172   3.553   4.378 -0.2629 -0.1611 -0.7019
   56RES    C6723277   3.158   3.623   4.236  1.1274  0.6205  0.5170
   56RES    C6823278   3.084   3.752   4.247  0.0521  0.0248 -0.0401
   56RES    C6923279   3.063   3.830   4.111 -0.0411  1.0875  0.3482
   56RES    C7023280   2.971   3.953   4.129 -0.6885 -0.0813  0.2096
   56RES    C7123281   3.049   4.067   4.196 -0.2202  0.3945 -0.9154
   56RES    H7223282   3.284   3.366   4.432 -0.2680  3.0181  1.4634
   56RES    H7323283   3.310   3.411   4.280  1.8977 -1.9529  2.0084
   56RES    H7423284   3.069   3.541   4.410  0.3069  0.8204  1.5775
   56RES    H7523285   3.258   3.643   4.196  0.5858  2.0640 -0.1200
   56RES    H7623286   3.117   3.556   4.161 -0.4298  1.9757  0.1455
   56RES    H7723287   2.986   3.734   4.292  0.0859  0.5490  0.2439
   56RES    H7823288   3.144   3.811   4.316 -0.4182  0.8346 -0.3055
   56RES    H7923289   3.163   3.853   4.075 -0.6069  0.4384 -1.6731
   56RES    H8023290   3.008   3.756   4.053  1.8477 -1.5458  1.8304
   56RES    H8123291   2.886   3.928   4.193 -1.0031 -1.2927 -0.6660
   56RES    H8223292   2.941   3.999   4.035  0.2125 -1.3281 -0.7047
   56RES    H8323293   2.989   4.156   4.214 -0.9034 -0.5041  1.3678
   56RES    H8423294   3.089   4.044   4.294  0.3282  0.1381 -1.2018
   56RES    H8523295   3.132   4.096   4.132 -1.0806  2.6839 -1.0441
   56RES    C8623296   3.260   3.640   4.468 -0.5451  0.2108  0.2541
   56RES    C8723297   3.187   3.712   4.591 -0.2274  0.2670  0.0663
   56RES    C8823298   3.147   3.603   4.695 -0.3763  0.7137 -0.1333
   56RES    C8923299   3.239   3.499   4.759  0.3187  0.8931  0.1831
   56RES    C9023300   3.365   3.542   4.828 -0.8854  0.1136 -0.4549
   56RES    C9123301   3.415   3.440   4.936 -0.3205 -0.4662  0.1506
   56RES    C9223302   3.534   3.487   5.017  0.2026 -0.4141 -0.0067
   56RES    H9323303   3.330   3.570   4.512 -0.0964  1.7522  2.0502
   56RES    H9423304   3.314   3.710   4.405  0.2438 -0.1194  0.5558
   56RES    H9523305   3.088   3.738   4.552 -0.0599 -2.6577 -2.4819
   56RES    H9623306   3.110   3.658   4.782 -0.7009  1.9651 -1.0481
   56RES    H9723307   3.076   3.533   4.652 -0.1815 -0.3501  1.2537
   56RES    H9823308   3.178   3.448   4.833  0.7051  0.6937  0.3670
   56RES    H9923309   3.272   3.431   4.681 -3.5527  0.4437 -1.1629
   56RES   H10023310   3.347   3.633   4.884  1.4138  0.4446 -0.1902
   56RES   H10123311   3.436   3.568   4.749  1.3447 -1.7711  0.8750
   56RES   H10223312   3.334   3.417   5.005 -1.4579  1.1043 -0.6432
   56RES   H10323313   3.443   3.349   4.883  0.7016  0.3043 -0.6534
   56RES   H10423314   3.527   3.567   5.091 -0.2290 -2.8964  2.7512
   56RES   H10523315   3.616   3.507   4.949 -1.6914 -0.6362 -2.4037
   56RES   H10623316   3.572   3.403   5.076 -0.4818 -1.2840 -0.7857
   56RES   C10723317   3.268   3.831   4.637  0.8506 -0.4887  0.7611
   56RES   C10823318   3.207   3.927   4.740  0.1079 -0.6247  0.0509
   56RES   C10923319   3.316   4.025   4.790 -0.0390 -0.3443  0.4918
   56RES   C11023320   3.380   3.977   4.919  0.0651 -0.2935 -0.2333
   56RES   C11123321   3.512   4.038   4.961  0.2038  0.4303  0.1034
   56RES   C11223322   3.559   3.985   5.095 -0.2676 -0.5370  0.2872
   56RES   C11323323   3.486   4.048   5.211 -0.0334  0.5417 -0.4594
   56RES   H11423324   3.290   3.889   4.547  2.6902 -2.2028  0.0558
   56RES   H11523325   3.369   3.816   4.674  0.4985 -0.4687  1.7402
   56RES   H11623326   3.177   3.873   4.830  1.5151  0.2984  1.0931
   56RES   H11723327   3.278   4.124   4.817 -1.6295  0.0329 -2.8958
   56RES   H11823328   3.401   4.030   4.722  0.6615  0.5559  1.4186
   56RES   H11923329   3.304   3.999   4.994  0.0974 -1.2405  0.0726
   56RES   H12023330   3.388   3.869   4.927 -0.5302 -0.0763  4.0593
   56RES   H12123331   3.498   4.145   4.947  0.3934  0.3277 -0.8558
   56RES   H12223332   3.599   4.019   4.898  1.0126 -1.3800  1.7125
   56RES   H12323333   3.553   3.877   5.101  1.9624 -0.8029 -1.6410
   56RES   H12423334   3.666   4.002   5.107 -0.4593  1.1984 -0.2028
   56RES   H12523335   3.523   4.148   5.233  2.5555 -0.3972 -0.4239
   56RES   H12623336   3.377   4.057   5.201 -0.3621 -1.7451  0.7021
   56RES   H12723337   3.508   3.994   5.303  0.6146 -0.6690 -1.3315
   56RES   C12823338   3.087   4.010   4.691  0.2060  0.1895  0.3248
   56RES   C12923339   2.998   4.068   4.795 -0.5179  0.3231 -0.6003
   56RES   C13023340   2.905   3.962   4.853  0.0942 -0.1929 -0.3480
   56RES   C13123341   2.901   3.972   5.008 -0.3234 -0.1838 -0.1919
   56RES   C13223342   2.826   3.866   5.080  0.0304 -0.0103 -0.3213
   56RES   C13323343   2.861   3.856   5.226 -0.0488  0.3171 -0.0992
   56RES   C13423344   2.823   3.981   5.315  0.4791  0.0771 -0.4908
   56RES   H13523345   3.126   4.080   4.617 -1.0563  0.8952  0.3251
   56RES   H13623346   3.029   3.933   4.639  0.2777  1.5089 -1.7240
   56RES   H13723347   3.056   4.097   4.883 -0.9669 -0.6927  0.0401
   56RES   H13823348   2.939   3.860   4.839  0.6120 -0.2092  0.9167
   56RES   H13923349   2.806   3.957   4.808 -0.5210  0.4940  0.8996
   56RES   H14023350   2.849   4.065   5.029 -0.4948 -0.8331  2.3761
   56RES   H14123351   3.001   3.963   5.051 -0.4490 -1.5194 -0.1681
   56RES   H14223352   2.837   3.771   5.027  0.1299  0.1001 -0.4983
   56RES   H14323353   2.721   3.895   5.066 -0.7538 -1.2812  2.5549
   56RES   H14423354   2.967   3.835   5.241  0.8472  1.4500 -4.2293
   56RES   H14523355   2.811   3.771   5.273 -0.6886  1.0596  0.5888
   56RES   H14623356   2.714   3.991   5.321  0.4327 -0.3937 -0.5560
   56RES   H14723357   2.865   4.073   5.275 -0.2471  0.5089 -0.2624
   56RES   H14823358   2.858   3.970   5.417 -0.0406 -1.7368 -0.4993
   56RES   C14923359   2.913   4.190   4.740  0.0024 -0.1149 -0.6483
   56RES   C15023360   2.990   4.319   4.709 -0.0581 -0.4466 -0.3515
   56RES   C15123361   2.971   4.422   4.825  0.2607  0.2301  0.7082
   56RES   C15223362   3.044   4.385   4.958 -0.1822 -0.1591 -0.4648
   56RES   C15323363   2.996   4.497   5.049 -0.1730 -0.1215  0.9323
   56RES   C15423364   3.096   4.507   5.164  0.3858 -0.1037  0.4952
   56RES   C15523365   3.033   4.586   5.279  0.2355  0.3149 -0.0846
   56RES   H15623366   2.875   4.164   4.641 -1.1442  2.1340 -0.8299
   56RES   H15723367   2.837   4.207   4.817 -0.0763  0.9353 -0.9633
   56RES   H15823368   3.095   4.288   4.710 -0.0140 -0.3555  2.5583
   56RES   H15923369   3.009   4.517   4.788  0.7093  0.0522  0.7095
   56RES   H16023370   2.864   4.438   4.841  0.0746 -0.3905  0.1498
   56RES   H16123371   3.153   4.384   4.953 -0.1644 -1.1875  0.0603
   56RES   H16223372   3.015   4.284   4.988  2.3748 -0.4622  1.2220
   56RES   H16323373   2.903   4.460   5.093  0.1399  0.1009  1.7906
   56RES   H16423374   2.982   4.594   5.001 -1.8196 -0.6523  0.2965
   56RES   H16523375   3.175   4.565   5.115  0.7160  0.3877  1.5943
   56RES   H16623376   3.134   4.405   5.174  0.7584  0.1684  2.0296
   56RES   H16723377   3.094   4.565   5.367  0.4216 -1.5224 -0.6359
   56RES   H16823378   2.936   4.546   5.308 -0.6432  1.7066 -1.0565
   56RES   H16923379   3.030   4.694   5.260 -0.5285  0.5067  1.0314
   56RES   C17023380   2.964   4.392   4.574 -1.2482  0.1672 -0.1794
   56RES   C17123381   3.082   4.488   4.533  0.0777 -0.1823  0.8442
   56RES   C17223382   3.175   4.436   4.415 -0.7039 -0.0072  0.3360
   56RES   C17323383   3.242   4.307   4.440 -0.9533  0.0879 -0.5756
   56RES   C17423384   3.346   4.261   4.332  0.0288  0.0580 -0.6199
   56RES   C17523385   3.392   4.114   4.348  1.1038  0.2501  0.3767
   56RES   C17623386   3.439   4.052   4.221 -0.6708  0.3144 -0.0777
   56RES   H17723387   2.870   4.445   4.587 -1.3810 -0.1194  0.0278
   56RES   H17823388   2.948   4.312   4.502  1.9683 -1.7187  1.1146
   56RES   H17923389   3.150   4.515   4.614  0.4943  0.9323  0.1341
   56RES   H18023390   3.251   4.513   4.401 -1.8622  0.5667 -3.3319
   56RES   H18123391   3.112   4.434   4.326 -2.7953 -4.1407  1.7974
   56RES   H18223392   3.163   4.232   4.448 -0.6631 -0.2237 -0.7040
   56RES   H18323393   3.291   4.317   4.537 -0.2346  1.1012 -1.0354
   56RES   H18423394   3.437   4.320   4.326 -0.7202  1.2969  0.0958
   56RES   H18523395   3.296   4.270   4.235  0.1262  0.4535 -0.6358
   56RES   H18623396   3.307   4.061   4.390 -0.2420  1.8697 -0.2991
   56RES   H18723397   3.466   4.106   4.428 -1.7553  1.0314  3.1813
   56RES   H18823398   3.482   3.953   4.232 -3.2411 -0.8199  0.0628
   56RES   H18923399   3.507   4.118   4.167  0.5982 -2.0985 -1.5291
   56RES   H19023400   3.358   4.036   4.150 -2.3089  3.0755  1.1034
   56RES   C19123401   3.016   4.621   4.474  0.3432 -0.0334  0.0174
   56RES   C19223402   2.942   4.716   4.574 -0.2135  0.4663  0.3944
   56RES   C19323403   3.039   4.793   4.667  0.6675  0.4680  0.0739
   56RES   C19423404   2.984   4.863   4.794  0.2474  0.4228  0.3338
   56RES   C19523405   3.092   4.890   4.895 -0.0661  0.3061  0.0316
   56RES   C19623406   3.047   4.975   5.014  0.1406 -0.9069 -0.9680
   56RES   C19723407   3.160   5.008   5.108 -0.5907  0.6757  0.2622
   56RES   H19823408   2.952   4.584   4.394  0.5433  0.0863 -0.1983
   56RES   H19923409   3.092   4.675   4.418  1.7743 -0.9245  1.0649
   56RES   H20023410   2.868   4.663   4.634 -0.4473  1.2228  0.7821
   56RES   H20123411   3.101   4.858   4.605 -0.7204  0.5503 -1.2575
   56RES   H20223412   3.101   4.719   4.717 -1.6634 -1.6638 -0.0737
   56RES   H20323413   2.913   4.789   4.832  1.4301 -0.8779  0.0669
   56RES   H20423414   2.924   4.951   4.771  0.7416  0.9712  1.1502
   56RES   H20523415   3.128   4.791   4.924 -1.2279  0.5835  2.5746
   56RES   H20623416   3.177   4.939   4.847 -0.4946  1.0556  0.0307
   56RES   H20723417   2.955   4.929   5.050  0.7410 -2.7427 -1.7268
   56RES   H20823418   3.016   5.069   4.968  1.3334 -0.8536 -1.6920
   56RES   H20923419   3.171   4.927   5.180 -0.5874 -1.1816 -1.7529
   56RES   H21023420   3.125   5.095   5.162 -1.9647 -0.7787  1.7788
   56RES   H21123421   3.257   5.013   5.057 -0.9279  0.8067 -0.3734
   56RES   C21223422   2.855   4.804   4.481 -0.1012 -0.0114  0.0426
   56RES   C21323423   2.702   4.780   4.474  0.2504  0.1921  0.6858
   56RES   C21423424   2.628   4.819   4.608  0.3645  0.3034 -0.4571
   56RES   C21523425   2.614   4.969   4.634  0.3570 -0.0382  0.1843
   56RES   C21623426   2.585   4.994   4.786  0.2278  0.7482 -0.2118
   56RES   C21723427   2.518   5.127   4.804  0.5318  0.0047 -0.2804
   56RES   C21823428   2.370   5.124   4.757  0.9948  0.2068  0.4079
   56RES   H21923429   2.891   4.804   4.378 -0.5352 -2.2942 -0.1370
   56RES   H22023430   2.878   4.906   4.513 -2.5270  1.9871 -4.1810
   56RES   H22123431   2.701   4.671   4.473 -0.1925  0.1914  0.7263
   56RES   H22223432   2.535   4.763   4.603 -0.5707  1.9040 -1.7120
   56RES   H22323433   2.679   4.779   4.696 -2.3940  0.9106  1.4840
   56RES   H22423434   2.531   4.999   4.570  1.8769 -2.4758 -3.0423
   56RES   H22523435   2.701   5.025   4.601  0.6944  0.7980  2.3990
   56RES   H22623436   2.515   4.924   4.832  0.2465  0.5077 -0.5431
   56RES   H22723437   2.681   4.989   4.837 -0.7444  0.3010  1.6167
   56RES   H22823438   2.518   5.147   4.912 -1.0309 -1.3669 -0.0003
   56RES   H22923439   2.572   5.206   4.752  0.0536 -0.8361 -2.0665
   56RES   H23023440   2.302   5.063   4.817 -0.3757  0.4516 -0.8841
   56RES   H23123441   2.354   5.081   4.659  2.5473 -3.2991  1.6181
   56RES   H23223442   2.324   5.222   4.746 -1.3233 -0.6185  2.1166
   56RES   C23323443   2.640   4.847   4.349 -0.1320 -0.1436 -0.2975
   56RES   C23423444   2.492   4.810   4.315 -0.7970 -0.4474  0.4615
   56RES   C23523445   2.417   4.938   4.260  0.6484 -1.1232 -0.3021
   56RES   C23623446   2.475   4.999   4.135 -0.0705  0.2870  0.7113
   56RES   C23723447   2.374   5.091   4.065 -0.5498 -0.6700  0.2095
   56RES   C23823448   2.444   5.143   3.930  0.3314 -0.2996 -0.3079
   56RES   C23923449   2.355   5.237   3.843  0.0182  0.6271  0.5930
   56RES   H24023450   2.700   4.819   4.263  0.8803 -0.7596  0.6046
   56RES   H24123451   2.644   4.955   4.367  1.0261  0.1254 -2.0138
   56RES   H24223452   2.447   4.776   4.408  0.0354 -1.1743  0.6126
   56RES   H24323453   2.406   5.012   4.339  1.6424 -0.0288 -1.1636
   56RES   H24423454   2.317   4.901   4.239 -0.4451  1.7002 -0.3229
   56RES   H24523455   2.493   4.922   4.061  0.0961 -0.1980  1.2517
   56RES   H24623456   2.569   5.050   4.154 -0.2808  0.1949  2.0852
   56RES   H24723457   2.361   5.178   4.130  0.4370  0.1455 -0.6575
   56RES   H24823458   2.282   5.038   4.041 -0.2742 -0.8316 -0.5155
   56RES   H24923459   2.529   5.207   3.956  0.6263 -0.1376 -1.6260
   56RES   H25023460   2.463   5.055   3.869 -1.2567 -0.0474 -1.1947
   56RES   H25123461   2.341   5.334   3.890  3.2238  1.7932 -0.7365
   56RES   H25223462   2.402   5.261   3.748 -1.4686 -0.7941 -0.5270
   56RES   H25323463   2.261   5.186   3.820 -0.9811  2.1472  1.2644
   56RES   C25423464   2.485   4.689   4.217 -0.3461 -0.3768 -1.1701
   56RES   C25523465   2.355   4.646   4.158  0.1124 -0.8196 -0.7860
   56RES   C25623466   2.252   4.598   4.262 -0.4145 -0.3567 -0.2296
   56RES   C25723467   2.296   4.481   4.350  0.3423  0.2828 -0.0447
   56RES   C25823468   2.193   4.449   4.460 -0.3156  0.3835  0.4354
   56RES   C25923469   2.087   4.351   4.405 -0.1093  0.3542  0.4044
   56RES   C26023470   1.986   4.308   4.515  0.5199 -0.1486  0.1437
   56RES   H26123471   2.523   4.600   4.267  0.1464  0.1865 -0.5294
   56RES   H26223472   2.551   4.702   4.131 -0.2235  1.7796 -0.7957
   56RES   H26323473   2.307   4.734   4.116  1.7712 -0.5813 -2.2293
   56RES   H26423474   2.158   4.576   4.210 -0.9559 -1.1688  1.0617
   56RES   H26523475   2.228   4.676   4.335 -3.5893 -0.6832 -0.8250
   56RES   H26623476   2.326   4.389   4.300 -2.1672 -0.2346 -0.6698
   56RES   H26723477   2.390   4.503   4.401  0.5137  2.6275 -1.3314
   56RES   H26823478   2.155   4.534   4.517 -0.0701 -0.8028  2.4421
   56RES   H26923479   2.254   4.396   4.534 -0.9844 -0.3869  0.4462
   56RES   H27023480   2.042   4.403   4.320 -1.6551  2.0233  2.1932
   56RES   H27123481   2.141   4.261   4.377 -0.8823  0.0980 -0.2789
   56RES   H27223482   2.021   4.232   4.585 -0.5609  0.9020  1.8589
   56RES   H27323483   1.949   4.393   4.574 -0.1316  0.1864 -0.7342
   56RES   H27423484   1.895   4.275   4.466  0.7930 -3.1461  1.5728
   56RES   C27523485   2.370   4.539   4.041 -0.3724 -0.0960  0.2358
   56RES   C27623486   2.376   4.597   3.895  0.2920 -0.0268 -0.0740
   56RES   C27723487   2.246   4.630   3.821 -0.2852  0.0370 -0.0081
   56RES   C27823488   2.157   4.738   3.875  0.0223 -0.0505 -0.0741
   56RES   C27923489   2.030   4.747   3.794  0.9722  0.1490 -0.4261
   56RES   C28023490   1.946   4.870   3.833 -0.4385 -0.2987  0.3188
   56RES   C28123491   1.819   4.873   3.754 -0.0775 -0.2980  0.1126
   56RES   H28223492   2.291   4.464   4.040 -0.2073 -0.2673 -0.5903
   56RES   H28323493   2.457   4.476   4.061 -0.6648 -0.4362  0.4259
   56RES   H28423494   2.427   4.694   3.899  0.6934 -0.2353 -0.1390
   56RES   H28523495   2.267   4.658   3.718  1.7400  0.2552  0.4429
   56RES   H28623496   2.187   4.538   3.818 -1.3882  0.7657 -1.4707
   56RES   H28723497   2.208   4.834   3.872  0.5245 -0.3346 -0.7446
   56RES   H28823498   2.133   4.721   3.980 -3.3759  0.7136 -0.6557
   56RES   H28923499   1.965   4.660   3.790  3.0349 -1.3871 -1.3581
   56RES   H29023500   2.055   4.753   3.688  1.5796  0.7187 -0.2520
   56RES   H29123501   1.931   4.866   3.940  0.8630 -0.1995  0.5102
   56RES   H29223502   1.998   4.964   3.817  2.0611 -1.5856  0.7306
   56RES   H29323503   1.782   4.973   3.775 -0.7836 -0.5691  0.1580
   56RES   H29423504   1.740   4.801   3.774 -0.8586  1.2196  2.7143
   56RES   H29523505   1.833   4.882   3.646 -0.3795 -1.6828 -0.0592
   56RES   C29623506   2.451   4.502   3.808  0.2007 -0.3787 -0.3522
   56RES   C29723507   2.525   4.572   3.685  1.0270  0.0253  0.0684
   56RES   C29823508   2.583   4.463   3.584 -0.6267 -0.1985 -0.3846
   56RES   C29923509   2.476   4.374   3.518 -0.2316 -0.0784 -0.8533
   56RES   C30023510   2.536   4.284   3.413  0.4710 -0.3885  0.3701
   56RES   C30123511   2.425   4.180   3.351 -0.5092 -0.8128  0.0564
   56RES   C30223512   2.486   4.072   3.272 -0.2375 -0.1146 -0.8126
   56RES   H30323513   2.522   4.441   3.864  0.1060  0.6377  0.8713
   56RES   H30423514   2.383   4.424   3.773 -0.7735  0.1238  0.4167
   56RES   H30523515   2.454   4.629   3.627  1.0277 -0.1514 -0.1068
   56RES   H30623516   2.637   4.514   3.504 -2.0800 -1.2986 -2.0954
   56RES   H30723517   2.648   4.389   3.632  1.0415  2.7831  2.1558
   56RES   H30823518   2.400   4.425   3.459 -0.8307  0.5738  0.4683
   56RES   H30923519   2.431   4.329   3.606  2.5279  1.7947  1.6134
   56RES   H31023520   2.617   4.226   3.458  2.9353  1.1741 -1.9155
   56RES   H31123521   2.581   4.344   3.335 -1.4417 -2.0588 -2.0942
   56RES   H31223522   2.365   4.144   3.435 -0.4103  1.1164  0.9879
   56RES   H31323523   2.350   4.246   3.309 -0.9551  0.8494  3.2790
   56RES   H31423524   2.544   4.113   3.189 -0.0884 -0.2211 -0.7616
   56RES   H31523525   2.556   4.019   3.337 -0.6430 -0.9139 -1.0310
   56RES   H31623526   2.417   4.001   3.226 -2.1076  0.5485  0.9111
   56RES   C31723527   2.645   4.649   3.738  0.1505 -0.4980  0.3281
   56RES   C31823528   2.635   4.802   3.723 -0.4338  0.5034 -0.3014
   56RES   C31923529   2.702   4.892   3.833  0.2645  0.4188 -0.2856
   56RES   C32023530   2.851   4.855   3.852  0.0172  0.8014  0.5314
   56RES   C32123531   2.937   4.957   3.938 -0.0514 -0.2979 -0.1468
   56RES   C32223532   2.899   4.951   4.093 -0.2621  0.1231  0.0804
   56RES   C32323533   2.979   5.049   4.175 -0.0950  0.5194  0.0745
   56RES   H32423534   2.743   4.610   3.710 -1.3173 -3.1205 -1.3392
   56RES   H32523535   2.652   4.624   3.844  0.7396 -0.3205  0.3324
   56RES   H32623536   2.533   4.838   3.716 -1.8314 -3.5192 -2.3735
   56RES   H32723537   2.653   4.882   3.930  2.1816 -2.2535  0.4715
   56RES   H32823538   2.701   4.999   3.814  1.0822  0.0820 -2.3455
   56RES   H32923539   2.906   4.842   3.758  1.4386  0.9798  1.3237
   56RES   H33023540   2.857   4.754   3.892  0.3713  0.9574  0.8737
   56RES   H33123541   2.913   5.059   3.907 -0.6074 -0.2107  0.5575
   56RES   H33223542   3.044   4.945   3.924 -0.3269 -1.2353 -1.5873
   56RES   H33323543   2.909   4.850   4.132 -2.6540 -0.1368  0.0516
   56RES   H33423544   2.793   4.970   4.109 -0.1023  0.1499  1.1503
   56RES   H33523545   3.086   5.032   4.169 -0.1423  0.4931 -0.6748
   56RES   H33623546   2.955   5.043   4.282  1.0777 -0.5347  0.2793
   56RES   H33723547   2.959   5.151   4.139 -2.8180  0.0047 -0.0161
   56RES   C33823548   2.702   4.837   3.588  0.1759  0.2593  0.0353
   56RES   C33923549   2.610   4.840   3.469 -0.3578 -0.0780 -0.6780
   56RES   C34023550   2.698   4.832   3.338  0.3426  0.5478  0.5008
   56RES   C34123551   2.706   4.695   3.280 -0.2007  0.0343  0.4099
   56RES   C34223552   2.737   4.686   3.125 -1.0140  0.1197 -0.0365
   56RES   C34323553   2.888   4.693   3.106  0.0078 -0.5501  0.0925
   56RES   C34423554   2.936   4.684   2.958 -0.3174 -0.4016 -0.2127
   56RES   H34523555   2.768   4.754   3.561 -0.6821 -0.6713  0.7728
   56RES   H34623556   2.754   4.933   3.594  0.9273 -0.0756 -0.9520
   56RES   H34723557   2.550   4.748   3.473 -2.6623  1.4032 -0.0813
   56RES   H34823558   2.674   4.895   3.252 -0.7741 -0.0820  0.3404
   56RES   H34923559   2.792   4.879   3.365  0.7273 -1.1567  2.2291
   56RES   H35023560   2.609   4.648   3.297 -1.8264  2.4865 -1.5983
   56RES   H35123561   2.773   4.627   3.332  1.7316  1.3945 -0.2726
   56RES   H35223562   2.708   4.593   3.077  0.0516  0.5557 -1.5753
   56RES   H35323563   2.693   4.767   3.067 -1.2323 -0.4148 -0.6259
   56RES   H35423564   2.917   4.790   3.148 -0.5757 -0.3746  0.0969
   56RES   H35523565   2.949   4.630   3.171 -0.7620 -0.7863  0.5975
   56RES   H35623566   2.909   4.773   2.901  1.7359  0.4135  0.0379
   56RES   H35723567   2.911   4.590   2.909  0.4284 -1.1570  0.8077
   56RES   H35823568   3.045   4.688   2.960 -0.3534  0.0740  2.1845
   56RES   C35923569   2.520   4.966   3.469  0.3382  0.1633 -0.2702
   56RES   C36023570   2.400   4.959   3.369 -0.6621  0.4580 -0.0363
   56RES   C36123571   2.298   4.856   3.418  0.6010  0.7761 -0.4497
   56RES   C36223572   2.219   4.781   3.305  0.0457 -0.9907 -0.1802
   56RES   C36323573   2.310   4.685   3.234  0.3508  0.0920  0.2916
   56RES   C36423574   2.218   4.581   3.142  0.5668 -0.2330 -0.4345
   56RES   C36523575   2.298   4.464   3.072 -0.9410 -0.1721  0.3986
   56RES   H36623576   2.576   5.055   3.440 -1.3470  1.1343 -0.5621
   56RES   H36723577   2.485   4.991   3.569 -0.4196 -0.4257 -0.3907
   56RES   H36823578   2.428   4.915   3.273 -3.8153  2.3427 -1.9205
   56RES   H36923579   2.349   4.780   3.478 -0.3836  1.8178  1.7647
   56RES   H37023580   2.222   4.908   3.475 -0.2736  0.6247 -1.4673
   56RES   H37123581   2.134   4.730   3.349 -0.6382  1.4604  1.4732
   56RES   H37223582   2.173   4.844   3.230  3.1066  0.6066 -0.8203
   56RES   H37323583   2.367   4.747   3.165 -0.2901 -0.7161 -0.9749
   56RES   H37423584   2.371   4.631   3.307 -1.2869 -0.5175  1.2515
   56RES   H37523585   2.151   4.540   3.218  0.2386  1.5903  0.2904
   56RES   H37623586   2.155   4.635   3.071  4.2168  2.5800 -1.6726
   56RES   H37723587   2.375   4.431   3.141  0.5297 -1.4990 -1.8210
   56RES   H37823588   2.233   4.380   3.049  1.1544 -1.5190 -0.7779
   56RES   H37923589   2.340   4.499   2.978 -1.2126  0.9514  0.6834
   56RES   C38023590   2.332   5.096   3.344  0.5566  0.0963  0.2986
   56RES   C38123591   2.412   5.224   3.300 -0.6178  0.3484 -0.0339
   56RES   C38223592   2.514   5.185   3.185  0.1425  0.2797  0.2388
   56RES   C38323593   2.449   5.150   3.044 -0.4191  0.3723  0.4570
   56RES   C38423594   2.547   5.074   2.956  0.3504 -0.3507  0.1424
   56RES   C38523595   2.654   5.165   2.894  0.3815  0.5157  0.4193
   56RES   C38623596   2.750   5.084   2.805  0.2374 -0.6701 -1.0142
   56RES   H38723597   2.250   5.076   3.275 -0.7558 -3.8643  2.8356
   56RES   H38823598   2.279   5.128   3.434  0.2890 -0.3866  0.3144
   56RES   H38923599   2.462   5.237   3.396 -0.1916 -1.6431  0.0376
   56RES   H39023600   2.572   5.097   3.214  1.8005  1.6919  1.2960
   56RES   H39123601   2.584   5.267   3.171  1.0391 -0.4375  0.5048
   56RES   H39223602   2.357   5.093   3.056 -0.2755  0.3865  1.7163
   56RES   H39323603   2.412   5.242   2.998 -1.3923 -1.0039 -1.5862
   56RES   H39423604   2.601   4.997   3.012  1.5282  0.0477 -0.4215
   56RES   H39523605   2.491   5.025   2.876 -0.1820  1.2673 -0.4847
   56RES   H39623606   2.710   5.213   2.975 -0.8814  1.3737  0.8006
   56RES   H39723607   2.606   5.241   2.833 -0.8716 -0.0777  0.6429
   56RES   H39823608   2.835   5.141   2.768 -0.5990  1.4311  0.2469
   56RES   H39923609   2.698   5.042   2.718 -1.5811  1.7449 -1.1278
   56RES   H40023610   2.798   5.000   2.856 -1.2417 -0.1775  1.2640
   56RES   C40123611   2.327   5.353   3.270 -0.1164  0.0496  0.1046
   56RES   C40223612   2.254   5.408   3.393  0.1615 -0.3515 -0.3619
   56RES   C40323613   2.345   5.461   3.499 -0.6938  0.1622 -0.3589
   56RES   C40423614   2.275   5.567   3.597  0.1304  0.1853  0.3452
   56RES   C40523615   2.378   5.646   3.684 -0.4575  0.1192 -0.0354
   56RES   C40623616   2.306   5.739   3.785  0.1460 -0.1852  0.0874
   56RES   C40723617   2.404   5.800   3.881 -0.4210  0.3627 -0.0742
   56RES   H40823618   2.252   5.339   3.192 -1.0359  0.9524  0.8090
   56RES   H40923619   2.395   5.428   3.230 -2.0197  0.9559 -1.5122
   56RES   H41023620   2.183   5.337   3.435  1.3087 -0.3339  1.6320
   56RES   H41123621   2.427   5.514   3.451  0.8859  0.3127  2.4054
   56RES   H41223622   2.390   5.374   3.546 -2.8795 -1.3876 -1.0973
   56RES   H41323623   2.197   5.513   3.651  0.6237 -0.0877  0.7945
   56RES   H41423624   2.225   5.644   3.539 -0.4772 -0.1026  0.4791
   56RES   H41523625   2.445   5.577   3.734 -1.0119 -2.5843 -2.8296
   56RES   H41623626   2.446   5.707   3.624 -2.2185 -0.5703 -2.8232
   56RES   H41723627   2.253   5.814   3.726  0.3737  0.4591  0.7024
   56RES   H41823628   2.230   5.691   3.847  0.8294 -1.3166  0.0511
   56RES   H41923629   2.455   5.724   3.940  0.3547  0.4931 -0.5774
   56RES   H42023630   2.343   5.859   3.950  0.5097 -0.8551  1.8233
   56RES   H42123631   2.475   5.872   3.841  1.6935 -2.0092 -0.6508
   56RES   H42223632   2.201   5.494   3.351  1.2953  0.5767  0.0784
   57RES     C123633   2.470   2.780   4.491  0.2728 -0.2229  0.2762
   57RES     C223634   2.345   2.751   4.403 -0.7941  0.0522 -0.2374
   57RES     C323635   2.302   2.607   4.430  0.5750  0.1415  0.3010
   57RES     C423636   2.148   2.589   4.415 -0.2302 -0.9574 -0.0838
   57RES     C523637   2.116   2.449   4.369  0.4064 -0.2738 -0.1327
   57RES     C623638   1.966   2.426   4.330 -0.9024 -0.0523  0.1952
   57RES     C723639   1.952   2.303   4.249 -0.2095  0.4875  0.0457
   57RES     H823640   2.529   2.862   4.450  0.0801 -0.2408 -0.0389
   57RES     H923641   2.530   2.694   4.519 -1.1611 -0.6956  1.9477
   57RES    H1023642   2.262   2.813   4.438  0.6879  0.9210  1.8234
   57RES    H1123643   2.366   2.540   4.373  0.8078  0.7022 -0.0960
   57RES    H1223644   2.330   2.581   4.532  1.6837 -1.1511 -0.3288
   57RES    H1323645   2.108   2.612   4.514 -2.6648 -1.9477 -0.7909
   57RES    H1423646   2.106   2.658   4.342  0.4858 -0.2553  0.1717
   57RES    H1523647   2.129   2.369   4.443  1.2544  0.3500  0.4028
   57RES    H1623648   2.187   2.423   4.291  0.1293  1.9258 -1.1424
   57RES    H1723649   1.931   2.516   4.279  1.3766  1.9986  2.1221
   57RES    H1823650   1.902   2.414   4.418 -2.7478  1.9332 -0.8403
   57RES    H1923651   2.012   2.309   4.158 -0.8070  0.5316 -0.3530
   57RES    H2023652   1.847   2.308   4.218  0.3116  0.9753 -1.7103
   57RES    H2123653   1.959   2.212   4.308  1.0914  0.9833  0.6732
   57RES    H2223654   2.434   2.816   4.587  1.3659 -0.6512  0.8557
   57RES    C2323655   2.386   2.776   4.257  0.4922  0.5046 -0.1680
   57RES    C2423656   2.379   2.920   4.211  1.0718 -0.4388 -0.1104
   57RES    C2523657   2.237   2.959   4.197 -0.4012 -0.0100  0.1660
   57RES    C2623658   2.212   3.117   4.160  0.4137  0.8558 -0.1534
   57RES    C2723659   2.164   3.146   4.012  0.4600 -0.4375  0.3389
   57RES    C2823660   2.142   3.293   3.981  0.2762  0.5978  0.0350
   57RES    C2923661   2.263   3.391   3.965  0.5670  0.1056 -0.5245
   57RES    H3023662   2.484   2.737   4.227  0.3210  0.2034 -0.3407
   57RES    H3123663   2.331   2.712   4.187 -1.0079  0.4257  1.0531
   57RES    H3223664   2.426   2.980   4.289  1.3708 -1.1666  0.2644
   57RES    H3323665   2.170   2.936   4.280 -1.4517 -0.4908 -0.7973
   57RES    H3423666   2.205   2.897   4.113  0.3635 -0.1197 -0.0470
   57RES    H3523667   2.304   3.171   4.184  1.1009 -0.9822  1.4865
   57RES    H3623668   2.137   3.148   4.233 -0.8658  1.6753 -1.7870
   57RES    H3723669   2.066   3.101   3.995  0.6299 -0.3363 -0.9708
   57RES    H3823670   2.241   3.116   3.941 -0.6765  2.2765 -2.1360
   57RES    H3923671   2.083   3.330   4.064  0.2024  1.7719 -0.5316
   57RES    H4023672   2.077   3.311   3.895  1.6089  4.2497 -0.3093
   57RES    H4123673   2.216   3.489   3.964  2.8228  1.2459  1.0009
   57RES    H4223674   2.320   3.398   4.058 -2.1770  0.4423  1.2059
   57RES    H4323675   2.321   3.382   3.874  1.4250  0.5368 -0.0207
   57RES    C4423676   2.457   2.940   4.077  0.5634  0.1029  0.0756
   57RES    C4523677   2.612   2.949   4.095  0.2412  0.5011 -0.1765
   57RES    C4623678   2.675   2.819   4.040  0.1517  0.1289 -0.3244
   57RES    C4723679   2.822   2.789   4.072 -0.5901  0.1048  0.8104
   57RES    C4823680   2.850   2.796   4.226  0.7597  0.5298  0.0535
   57RES    C4923681   2.994   2.759   4.265 -0.9619  0.1296 -0.2705
   57RES    C5023682   3.018   2.758   4.415  0.0377  0.1642  0.0400
   57RES    H5123683   2.423   3.025   4.017  0.7967 -2.1861 -3.4234
   57RES    H5223684   2.429   2.862   4.006 -1.5035  1.5763 -0.7822
   57RES    H5323685   2.642   2.955   4.200  0.3192  1.1324 -0.2305
   57RES    H5423686   2.674   2.837   3.933  2.8073 -0.8723 -0.5475
   57RES    H5523687   2.621   2.725   4.057 -1.0713  1.3368  2.8760
   57RES    H5623688   2.852   2.692   4.033  0.5226  0.3866  0.9463
   57RES    H5723689   2.890   2.862   4.027  0.0554 -0.1568  1.3537
   57RES    H5823690   2.776   2.738   4.281  0.9423  0.4989  0.2694
   57RES    H5923691   2.832   2.898   4.260  2.3386  1.0884 -0.7471
   57RES    H6023692   3.046   2.834   4.205  0.0200 -0.0668  0.3330
   57RES    H6123693   3.032   2.666   4.224 -0.4257 -1.3073  3.3536
   57RES    H6223694   3.116   2.721   4.445 -0.1387  2.3875  3.5830
   57RES    H6323695   2.944   2.700   4.470  0.1210  0.4880  0.4937
   57RES    H6423696   3.010   2.857   4.460  2.6156 -0.3648  1.7294
   57RES    C6523697   2.678   3.072   4.026 -0.5071  0.6114 -0.2973
   57RES    C6623698   2.640   3.216   4.075 -0.6108  0.3104  0.1100
   57RES    C6723699   2.680   3.309   3.957 -0.5426  0.1895 -0.5794
   57RES    C6823700   2.675   3.463   3.978  0.7598  0.9004  0.1093
   57RES    C6923701   2.718   3.545   3.860 -0.1710 -0.2194 -0.4048
   57RES    C7023702   2.675   3.694   3.866  0.1017 -0.7988 -0.0567
   57RES    C7123703   2.539   3.695   3.788  0.7871 -0.2374  0.3139
   57RES    H7223704   2.784   3.060   4.047 -1.3653 -3.0731  2.2837
   57RES    H7323705   2.664   3.057   3.918  1.7923  1.5018 -0.7498
   57RES    H7423706   2.532   3.219   4.083 -0.5346  1.4443  0.9532
   57RES    H7523707   2.785   3.287   3.935 -0.4313 -0.0988  0.1854
   57RES    H7623708   2.623   3.280   3.869 -0.5276  3.6169 -1.7719
   57RES    H7723709   2.569   3.467   4.004  0.5726 -1.0672 -0.2607
   57RES    H7823710   2.711   3.496   4.075  1.1890  0.8366 -0.0241
   57RES    H7923711   2.824   3.531   3.836  0.6171  1.7753  1.7387
   57RES    H8023712   2.678   3.501   3.768 -0.3357 -0.1502 -0.3657
   57RES    H8123713   2.749   3.756   3.815 -0.8419  1.1441  0.9070
   57RES    H8223714   2.663   3.736   3.966  0.0143 -0.3618 -0.2488
   57RES    H8323715   2.481   3.787   3.799 -1.0704 -1.3723  0.0486
   57RES    H8423716   2.565   3.662   3.688  3.7517 -1.0447  1.2845
   57RES    H8523717   2.472   3.624   3.836 -0.4556  0.5315 -0.2459
   57RES    C8623718   2.708   3.240   4.209  0.1151  0.0357  0.2754
   57RES    C8723719   2.627   3.349   4.287  0.0778  0.0120 -0.5296
   57RES    C8823720   2.524   3.291   4.391  0.0196 -0.5572 -0.1905
   57RES    C8923721   2.581   3.227   4.520 -0.2003 -0.0411 -0.6620
   57RES    C9023722   2.477   3.202   4.628 -0.0590  0.1438 -0.0250
   57RES    C9123723   2.539   3.113   4.728 -0.0049  0.0606  0.0670
   57RES    C9223724   2.449   3.052   4.833  0.2492  0.4041  0.2611
   57RES    H9323725   2.710   3.147   4.267 -2.4384 -1.7471 -2.3735
   57RES    H9423726   2.813   3.263   4.191 -0.3661  0.2985 -2.2561
   57RES    H9523727   2.574   3.398   4.205  0.6989 -0.1052 -1.0040
   57RES    H9623728   2.448   3.363   4.422 -0.3162 -1.1142  0.2961
   57RES    H9723729   2.470   3.211   4.340 -0.7453 -2.0965  2.9430
   57RES    H9823730   2.635   3.137   4.492 -3.6569 -1.4288 -3.2009
   57RES    H9923731   2.640   3.308   4.563 -0.4120 -1.4918  2.4861
   57RES   H10023732   2.393   3.153   4.579  0.0562  0.8212 -0.9042
   57RES   H10123733   2.436   3.298   4.661  0.0959  0.5074 -0.8836
   57RES   H10223734   2.578   3.029   4.671 -1.2459  0.0786 -0.8335
   57RES   H10323735   2.624   3.162   4.777  0.1935  1.7064 -1.8166
   57RES   H10423736   2.517   3.002   4.902 -0.8717 -0.6959  0.5907
   57RES   H10523737   2.369   2.994   4.787 -1.6367  1.0520  2.5711
   57RES   H10623738   2.396   3.137   4.877  2.4987  0.7675  2.3867
   57RES   C10723739   2.721   3.456   4.350  0.3872  0.2811  0.0096
   57RES   C10823740   2.648   3.579   4.404 -0.5904  0.0799 -0.1526
   57RES   C10923741   2.738   3.658   4.501 -0.8039  0.4160  0.4844
   57RES   C11023742   2.710   3.622   4.651 -0.8940 -0.1013 -0.3517
   57RES   C11123743   2.601   3.713   4.713  0.5488 -0.1263 -0.5817
   57RES   C11223744   2.576   3.678   4.861  0.7055  0.5298  0.6031
   57RES   C11323745   2.490   3.550   4.876  0.2806  0.4902  0.0374
   57RES   H11423746   2.814   3.474   4.296  0.6429 -0.1804  0.3013
   57RES   H11523747   2.760   3.398   4.433 -0.8827 -2.0330 -0.9698
   57RES   H11623748   2.549   3.556   4.444 -0.7839 -0.1971 -0.7871
   57RES   H11723749   2.728   3.766   4.493 -2.8217  0.4397  2.9299
   57RES   H11823750   2.844   3.649   4.478 -1.0138  0.0217 -0.3439
   57RES   H11923751   2.683   3.519   4.671 -1.1172 -0.2452 -1.3516
   57RES   H12023752   2.803   3.631   4.706 -1.5389 -3.7309  1.4790
   57RES   H12123753   2.511   3.694   4.655  0.5677  0.2969 -0.7470
   57RES   H12223754   2.623   3.819   4.704  0.3452  0.1346  1.6476
   57RES   H12323755   2.669   3.681   4.917 -0.6241  0.1985  2.9033
   57RES   H12423756   2.512   3.759   4.896  1.0586  1.6921 -1.3202
   57RES   H12523757   2.497   3.511   4.978  0.5269 -0.8867 -0.5054
   57RES   H12623758   2.388   3.579   4.851  0.8297  1.0924 -1.5621
   57RES   H12723759   2.530   3.475   4.808  1.4768  0.1255  1.1287
   57RES   C12823760   2.603   3.674   4.291 -0.1746 -0.3767  0.1217
   57RES   C12923761   2.509   3.798   4.332 -0.4025  0.0108  0.0749
   57RES   C13023762   2.360   3.773   4.294  0.1553 -0.0932  0.2047
   57RES   C13123763   2.302   3.645   4.349 -0.6259  0.8059 -0.5187
   57RES   C13223764   2.157   3.628   4.316  0.5291  0.2454  0.4351
   57RES   C13323765   2.109   3.492   4.367 -0.0128  1.1628  0.1625
   57RES   C13423766   1.961   3.460   4.334 -0.2538 -0.4001 -0.1637
   57RES   H13523767   2.696   3.702   4.241 -0.1574  0.8060  0.7754
   57RES   H13623768   2.543   3.619   4.219 -0.9566 -0.2880  0.6950
   57RES   H13723769   2.518   3.798   4.440 -1.4165  0.5141  0.1696
   57RES   H13823770   2.346   3.770   4.186 -0.5142  1.5849  0.2315
   57RES   H13923771   2.307   3.859   4.336  0.2578 -0.4657  1.1197
   57RES   H14023772   2.324   3.653   4.455 -3.0393  1.6881 -0.0519
   57RES   H14123773   2.360   3.560   4.313 -1.1478  0.2799 -0.1257
   57RES   H14223774   2.120   3.637   4.214  0.4930  0.6646  0.4859
   57RES   H14323775   2.103   3.705   4.371  0.7994  0.2855  0.6456
   57RES   H14423776   2.116   3.495   4.475 -2.2822 -2.8774  0.5517
   57RES   H14523777   2.155   3.401   4.326 -0.3788  1.2376 -0.4148
   57RES   H14623778   1.899   3.549   4.347 -0.8909 -0.8120 -0.3482
   57RES   H14723779   1.923   3.369   4.381 -0.2639  0.4882  1.5750
   57RES   H14823780   1.958   3.440   4.227 -1.4159  0.8941 -0.3874
   57RES   C14923781   2.570   3.938   4.286  0.4959  0.1292  0.3320
   57RES   C15023782   2.512   4.055   4.360  0.2167 -0.7840 -0.0198
   57RES   C15123783   2.552   4.196   4.297  0.2260  0.9740  1.3528
   57RES   C15223784   2.700   4.231   4.281  0.0353  0.6564  0.3033
   57RES   C15323785   2.715   4.369   4.216 -0.1443 -0.6616  0.4900
   57RES   C15423786   2.851   4.406   4.167 -0.1577  0.5102  0.1499
   57RES   C15523787   2.860   4.553   4.129 -0.0346 -0.0725  0.0838
   57RES   H15623788   2.677   3.936   4.305  0.5496 -1.5830 -0.0469
   57RES   H15723789   2.566   3.944   4.178 -2.6517 -1.9590  0.2461
   57RES   H15823790   2.405   4.036   4.353  0.5229 -1.9779 -1.9520
   57RES   H15923791   2.522   4.189   4.193  0.4524 -0.4483  1.3723
   57RES   H16023792   2.505   4.278   4.353  0.4868  0.5589  2.1874
   57RES   H16123793   2.746   4.156   4.216 -2.3707  0.8009 -1.6594
   57RES   H16223794   2.755   4.231   4.375 -0.0844 -2.4484  0.4210
   57RES   H16323795   2.674   4.441   4.287  0.3481 -0.3516  0.4621
   57RES   H16423796   2.642   4.367   4.136  0.8509 -2.4502 -0.4127
   57RES   H16523797   2.875   4.347   4.079 -0.3963  0.1501  0.3264
   57RES   H16623798   2.924   4.373   4.240  0.6351 -1.1216 -1.3346
   57RES   H16723799   2.794   4.564   4.043  0.1739  0.1265 -0.0504
   57RES   H16823800   2.959   4.567   4.085  0.0078  1.8177  0.7761
   57RES   H16923801   2.825   4.625   4.202 -0.0935 -1.6244  1.6127
   57RES   C17023802   2.556   4.060   4.510 -0.3922  0.1642 -0.0441
   57RES   C17123803   2.468   4.133   4.616  0.1470  0.1751 -0.0774
   57RES   C17223804   2.327   4.088   4.618  0.2847  0.1877 -0.0027
   57RES   C17323805   2.301   3.937   4.644 -0.0003 -0.1073 -0.0178
   57RES   C17423806   2.153   3.908   4.628 -0.3750  0.5714  0.9906
   57RES   C17523807   2.113   3.772   4.679 -0.6949 -0.2136 -0.1599
   57RES   C17623808   1.969   3.752   4.646 -0.6571  0.3426  0.6935
   57RES   H17723809   2.643   4.124   4.520  2.1905 -3.3114  0.8381
   57RES   H17823810   2.597   3.966   4.546 -1.1715  0.4805  1.7014
   57RES   H17923811   2.473   4.241   4.597 -1.8612 -0.2086 -3.1792
   57RES   H18023812   2.275   4.111   4.525 -2.5171  0.0106  1.4742
   57RES   H18123813   2.276   4.143   4.696  1.4592  1.1106  0.1296
   57RES   H18223814   2.321   3.914   4.748  0.6364  1.9661  0.3314
   57RES   H18323815   2.363   3.878   4.576 -1.0343 -1.8801  0.5366
   57RES   H18423816   2.120   3.913   4.524  0.7611 -1.9137  0.4550
   57RES   H18523817   2.090   3.981   4.678 -1.6638  1.3914 -1.7039
   57RES   H18623818   2.125   3.770   4.788 -1.7612 -0.5600 -0.0447
   57RES   H18723819   2.164   3.688   4.633 -0.0539 -0.4667  0.9978
   57RES   H18823820   1.946   3.700   4.553 -0.3883  1.8453 -0.2415
   57RES   H18923821   1.910   3.844   4.642 -0.6136  0.3112 -1.0988
   57RES   H19023822   1.914   3.687   4.713 -2.9611 -0.5039 -1.9248
   57RES   C19123823   2.530   4.118   4.756  0.3030 -0.1205 -0.1876
   57RES   C19223824   2.476   4.213   4.869  0.5459  0.4544  0.6108
   57RES   C19323825   2.500   4.155   5.014  0.0900 -0.2930  0.1560
   57RES   C19423826   2.408   4.037   5.054  0.7946  0.5749 -0.3263
   57RES   C19523827   2.429   3.972   5.196  0.0280 -0.0341 -0.1027
   57RES   C19623828   2.338   3.855   5.226 -0.5770 -0.2324 -0.2901
   57RES   C19723829   2.355   3.732   5.135 -0.0036 -0.7544 -0.1636
   57RES   H19823830   2.639   4.116   4.754  0.4074  2.8321  0.5165
   57RES   H19923831   2.518   4.016   4.792  0.3545 -0.3683 -0.8612
   57RES   H20023832   2.369   4.227   4.856  0.2544 -0.8871  1.4420
   57RES   H20123833   2.470   4.239   5.077  0.6102  1.5276 -1.9695
   57RES   H20223834   2.603   4.132   5.039 -0.2647  0.6197  2.6277
   57RES   H20323835   2.417   3.970   4.968  1.4223  1.7594 -1.2191
   57RES   H20423836   2.305   4.069   5.045  0.8860  0.9958  0.0731
   57RES   H20523837   2.532   3.941   5.207 -0.3956 -1.2927  0.3736
   57RES   H20623838   2.404   4.050   5.268 -0.5935  2.3059 -2.7510
   57RES   H20723839   2.234   3.888   5.223  0.0937  1.8864 -2.9038
   57RES   H20823840   2.366   3.816   5.324 -1.0839  0.1600  0.0121
   57RES   H20923841   2.460   3.702   5.134 -0.1581 -1.3104 -0.3065
   57RES   H21023842   2.327   3.764   5.035 -0.6464 -0.4939  0.0992
   57RES   H21123843   2.288   3.653   5.169 -0.0090 -0.2526  1.0316
   57RES   C21223844   2.532   4.355   4.855 -0.0474  0.0281 -0.2725
   57RES   C21323845   2.461   4.475   4.919  0.2748 -0.0062 -0.2240
   57RES   C21423846   2.560   4.582   4.964  0.0632  0.1420 -0.0717
   57RES   C21523847   2.626   4.561   5.094  0.5574 -0.1655  0.0044
   57RES   C21623848   2.708   4.678   5.142 -0.4829 -0.4265  0.4147
   57RES   C21723849   2.622   4.793   5.176  0.1155  0.0738 -0.1595
   57RES   C21823850   2.704   4.909   5.239 -0.2194 -0.1364  0.3395
   57RES   H21923851   2.523   4.376   4.748 -2.5769  3.6977  0.5656
   57RES   H22023852   2.639   4.357   4.873 -0.0390 -1.9504 -0.0180
   57RES   H22123853   2.412   4.448   5.012 -0.2669  2.6078  0.2969
   57RES   H22223854   2.643   4.595   4.896 -0.8843  0.1280 -1.2467
   57RES   H22323855   2.505   4.676   4.958 -2.9961 -1.5274  0.2948
   57RES   H22423856   2.695   4.478   5.078  0.4713 -0.2604  0.1297
   57RES   H22523857   2.560   4.520   5.171 -1.1863 -0.1231 -1.4316
   57RES   H22623858   2.759   4.657   5.236  0.6866  1.9232  0.3591
   57RES   H22723859   2.781   4.702   5.064  0.0214  0.2181  1.0686
   57RES   H22823860   2.559   4.833   5.096 -0.0140  0.9909  0.3835
   57RES   H22923861   2.556   4.768   5.258 -1.9232 -1.3951 -2.1919
   57RES   H23023862   2.752   4.960   5.155 -2.7392 -0.2346 -1.2431
   57RES   H23123863   2.779   4.865   5.305  0.0870 -1.4289 -0.8503
   57RES   H23223864   2.645   4.979   5.300  1.6637  0.1651  1.8535
   57RES   C23323865   2.343   4.535   4.835  0.9028 -0.8211  0.2936
   57RES   C23423866   2.220   4.605   4.905 -0.5343  0.6761 -0.1755
   57RES   C23523867   2.118   4.656   4.796  0.1098 -0.3040 -0.1160
   57RES   C23623868   2.181   4.752   4.691  0.9655 -0.6426  0.0688
   57RES   C23723869   2.077   4.810   4.591  0.6073  0.3243  0.3296
   57RES   C23823870   2.130   4.933   4.509 -0.3910 -0.6173  0.1491
   57RES   C23923871   2.031   4.952   4.395  1.0903  0.7580 -0.2546
   57RES   H24023872   2.303   4.453   4.775 -0.1046 -1.0163  1.2320
   57RES   H24123873   2.373   4.614   4.765 -0.4297 -1.0552 -0.5692
   57RES   H24223874   2.249   4.696   4.956  0.6415  1.7899 -2.7564
   57RES   H24323875   2.027   4.694   4.842  0.3934 -1.3267  1.3088
   57RES   H24423876   2.096   4.561   4.747  0.3919  0.4754 -1.7833
   57RES   H24523877   2.257   4.707   4.627  3.0782 -2.0957  3.4850
   57RES   H24623878   2.218   4.838   4.747 -1.2257 -0.3972  1.1654
   57RES   H24723879   1.984   4.839   4.640  0.7843  1.8477 -0.2228
   57RES   H24823880   2.038   4.736   4.521  0.9033 -0.2273  0.7436
   57RES   H24923881   2.146   5.023   4.569  2.8541 -0.1077 -1.3712
   57RES   H25023882   2.227   4.915   4.464  0.9355 -1.0219  3.0618
   57RES   H25123883   2.029   4.866   4.329  0.3004  1.6780 -1.4689
   57RES   H25223884   1.933   4.969   4.439  0.5034  0.5701 -1.4557
   57RES   H25323885   2.058   5.041   4.338 -0.7090  1.1519 -0.5264
   57RES   C25423886   2.144   4.509   4.994 -0.1289 -0.2349  0.0218
   57RES   C25523887   2.061   4.572   5.106  0.6023 -0.6988  0.3976
   57RES   C25623888   2.145   4.624   5.223  0.2251  0.3405 -0.0453
   57RES   C25723889   2.220   4.522   5.299  0.2610 -0.1040  0.1210
   57RES   C25823890   2.299   4.584   5.419  0.1094 -0.3004  0.1577
   57RES   C25923891   2.248   4.543   5.556 -0.2146  0.1159  0.2549
   57RES   C26023892   2.313   4.607   5.683  0.0613  0.2066 -0.1957
   57RES   H26123893   2.210   4.431   5.032  1.3269  1.9451  2.1335
   57RES   H26223894   2.064   4.455   4.943  1.7830 -3.0580 -0.0875
   57RES   H26323895   2.013   4.653   5.051  0.4468 -1.1804 -0.1868
   57RES   H26423896   2.082   4.683   5.290 -0.3824  1.9965 -2.0040
   57RES   H26523897   2.213   4.699   5.183  1.0491 -0.9554 -1.1066
   57RES   H26623898   2.159   4.440   5.337 -0.4777  1.3986  2.2599
   57RES   H26723899   2.298   4.480   5.236  0.2304  1.7127 -1.1782
   57RES   H26823900   2.300   4.691   5.398 -0.4153 -0.2018  0.6355
   57RES   H26923901   2.401   4.547   5.429  0.0995 -1.4861 -3.2542
   57RES   H27023902   2.143   4.569   5.569 -0.6770 -0.8929 -1.3122
   57RES   H27123903   2.245   4.435   5.571  1.0846  0.2056  1.2413
   57RES   H27223904   2.417   4.594   5.712  0.1386 -0.7068 -0.8835
   57RES   H27323905   2.301   4.716   5.676 -0.0407  0.1816 -0.4245
   57RES   H27423906   2.253   4.587   5.772  0.6888 -1.4080 -0.1341
   57RES   C27523907   1.937   4.487   5.155  0.4379  0.3034 -0.1517
   57RES   C27623908   1.806   4.536   5.088  0.2826 -0.4068 -0.1344
   57RES   C27723909   1.760   4.668   5.157  0.5196  0.1973  0.4591
   57RES   C27823910   1.680   4.765   5.077 -0.2888 -0.3652  0.1548
   57RES   C27923911   1.763   4.865   5.004  0.3607 -0.8087 -0.2508
   57RES   C28023912   1.667   4.957   4.920 -0.1726 -0.5982 -0.8257
   57RES   C28123913   1.622   5.087   4.991 -0.1370 -0.4985 -0.6763
   57RES   H28223914   1.923   4.506   5.261 -3.5127  0.1876 -0.5681
   57RES   H28323915   1.944   4.380   5.136  1.1224  0.3586 -0.2065
   57RES   H28423916   1.815   4.558   4.982  2.0459 -0.7572 -0.0815
   57RES   H28523917   1.710   4.651   5.252  0.3909  1.1710  0.5679
   57RES   H28623918   1.848   4.721   5.193  0.1746 -0.4333  2.3024
   57RES   H28723919   1.614   4.829   5.136 -0.0433 -1.0495  1.1904
   57RES   H28823920   1.620   4.711   5.004  0.6118 -0.8720 -0.2159
   57RES   H28923921   1.822   4.809   4.932  0.4819  0.1448 -0.9101
   57RES   H29023922   1.841   4.918   5.058 -0.7205 -0.4377  0.9721
   57RES   H29123923   1.726   4.974   4.830  0.0358  1.3083 -0.3359
   57RES   H29223924   1.576   4.905   4.888 -1.4176  1.5950 -0.9181
   57RES   H29323925   1.709   5.133   5.040 -0.1846 -0.1816 -0.8885
   57RES   H29423926   1.539   5.067   5.058 -0.0871 -2.8271 -1.2519
   57RES   H29523927   1.585   5.156   4.915 -2.9831 -0.6553  0.5429
   57RES   C29623928   1.689   4.433   5.084  0.1206  0.0344  0.2466
   57RES   C29723929   1.697   4.309   4.986 -0.4121 -0.0178 -0.2678
   57RES   C29823930   1.700   4.366   4.838  0.5771 -0.1608 -0.2981
   57RES   C29923931   1.592   4.462   4.793  0.1431 -0.1506 -0.6252
   57RES   C30023932   1.543   4.431   4.654  0.5724 -0.6711  0.1426
   57RES   C30123933   1.629   4.472   4.537 -0.3269 -0.5918 -0.3216
   57RES   C30223934   1.540   4.467   4.415  0.6950 -0.6088  0.0363
   57RES   H30323935   1.678   4.398   5.186  2.2314 -0.5948  0.2860
   57RES   H30423936   1.595   4.487   5.072  1.3690  2.3306  0.5424
   57RES   H30523937   1.799   4.272   4.998 -0.9763 -0.9823  1.6827
   57RES   H30623938   1.796   4.413   4.813  0.8503 -0.8879 -0.6212
   57RES   H30723939   1.692   4.284   4.767  0.2881  1.2958 -2.0113
   57RES   H30823940   1.608   4.568   4.810 -0.1250 -0.3683  1.1183
   57RES   H30923941   1.508   4.447   4.861 -0.0677  0.0675 -0.8364
   57RES   H31023942   1.453   4.492   4.639  2.0640  0.6802 -3.9987
   57RES   H31123943   1.512   4.327   4.651 -0.5392 -0.3303 -0.9608
   57RES   H31223944   1.658   4.575   4.556 -1.2245 -0.5740  1.1043
   57RES   H31323945   1.724   4.420   4.528  0.4078  0.8004 -0.6458
   57RES   H31423946   1.465   4.546   4.411  0.1646 -1.1507 -0.7835
   57RES   H31523947   1.602   4.467   4.326  0.4977  2.6504 -0.1663
   57RES   H31623948   1.480   4.376   4.411  0.5325 -0.5148  0.3179
   57RES   C31723949   1.584   4.205   5.009 -0.2463  0.0766  0.5135
   57RES   C31823950   1.573   4.071   4.926  0.0757 -0.4279  0.2369
   57RES   C31923951   1.692   3.979   4.946 -0.6048  0.0305  0.0780
   57RES   C32023952   1.721   3.913   5.088  0.1229  0.3805 -0.1409
   57RES   C32123953   1.851   3.841   5.098 -0.3000  0.3418 -0.7613
   57RES   C32223954   1.846   3.748   5.217 -1.0437 -0.0794 -0.0972
   57RES   C32323955   1.980   3.672   5.243  0.8222  0.6196 -1.0252
   57RES   H32423956   1.501   4.273   4.988  0.2607  1.2912  2.3513
   57RES   H32523957   1.571   4.180   5.114 -2.5792  3.9349  1.2685
   57RES   H32623958   1.580   4.094   4.820  1.0053  1.5113  0.6945
   57RES   H32723959   1.777   4.037   4.911  1.6243 -3.2259 -0.1580
   57RES   H32823960   1.689   3.900   4.870  0.9905  0.6597 -0.6533
   57RES   H32923961   1.637   3.846   5.106 -1.1678  0.8365 -3.9299
   57RES   H33023962   1.708   3.987   5.167  2.8672 -1.3401  2.0337
   57RES   H33123963   1.943   3.896   5.113 -0.7071  0.4601  1.4477
   57RES   H33223964   1.879   3.782   5.011 -1.8916  1.2194 -1.9030
   57RES   H33323965   1.771   3.672   5.197 -1.5065  0.2259  0.4699
   57RES   H33423966   1.805   3.793   5.307  0.8708 -1.0200  1.2908
   57RES   H33523967   2.021   3.629   5.152  0.8561 -0.7186 -0.3938
   57RES   H33623968   1.963   3.593   5.316 -0.8388  0.1492 -1.9010
   57RES   H33723969   2.057   3.739   5.280  0.4557  1.1861 -1.2838
   57RES   C33823970   1.435   3.998   4.953  0.1203 -0.2242 -0.2026
   57RES   C33923971   1.371   3.937   4.823 -0.0372 -0.6762 -1.1560
   57RES   C34023972   1.307   4.054   4.741  0.1153  0.0661  0.0163
   57RES   C34123973   1.301   4.029   4.587  0.3777  0.3846 -0.2343
   57RES   C34223974   1.249   4.153   4.518 -0.4571 -0.0314  0.0782
   57RES   C34323975   1.218   4.123   4.369 -0.2256  0.2124  0.3174
   57RES   C34423976   1.126   4.220   4.308 -0.5104 -0.2492  0.1609
   57RES   H34523977   1.365   4.058   5.010 -0.6024 -0.2709 -1.0375
   57RES   H34623978   1.453   3.914   5.020  1.4466 -0.7532 -1.1840
   57RES   H34723979   1.452   3.888   4.769  1.4206 -1.4479  1.6099
   57RES   H34823980   1.209   4.079   4.780  0.2802  0.8171 -0.0464
   57RES   H34923981   1.379   4.134   4.759  0.5087 -0.0781 -0.8818
   57RES   H35023982   1.243   3.939   4.571  1.8282 -0.7160  0.5149
   57RES   H35123983   1.403   4.015   4.550  0.9823  0.8910  1.1809
   57RES   H35223984   1.158   4.187   4.569  0.4607  1.5993  0.6656
   57RES   H35323985   1.310   4.241   4.540 -1.2307  0.9660 -1.6317
   57RES   H35423986   1.310   4.112   4.312  0.6972 -0.3614  1.8613
   57RES   H35523987   1.178   4.022   4.358  0.3694 -0.0121  0.1789
   57RES   H35623988   1.026   4.196   4.344 -0.7582  1.2858  0.5601
   57RES   H35723989   1.111   4.202   4.202 -1.4170 -0.6409  0.3450
   57RES   H35823990   1.166   4.319   4.330  0.9611 -0.8869  0.4027
   57RES   C35923991   1.267   3.824   4.860 -0.0861  0.1821 -0.7577
   57RES   C36023992   1.315   3.696   4.938  0.3927  0.2125 -0.2428
   57RES   C36123993   1.199   3.622   5.018 -0.2864 -0.4156 -0.8431
   57RES   C36223994   1.135   3.710   5.127  0.1419 -0.6446  0.0764
   57RES   C36323995   1.071   3.628   5.242 -0.0252 -0.1741 -0.8290
   57RES   C36423996   1.061   3.707   5.378 -0.4215  0.5704 -0.9899
   57RES   C36523997   1.001   3.610   5.486  0.3009 -0.8193  0.2498
   57RES   H36623998   1.213   3.787   4.772 -0.8708 -2.4322  0.7777
   57RES   H36723999   1.203   3.886   4.922  1.7612  0.7346  0.6256
   57RES   H36824000   1.384   3.721   5.020 -0.1853  0.9515  0.0205
   57RES   H36924001   1.124   3.585   4.948  0.5234 -1.5904 -1.1089
   57RES   H37024002   1.246   3.537   5.067 -2.7712 -0.4101  1.6537
   57RES   H37124003   1.214   3.775   5.166 -2.0361  1.9913  0.2580
   57RES   H37224004   1.065   3.784   5.087  0.4116 -0.2960  0.2475
   57RES   H37324005   0.971   3.599   5.209  0.7236 -2.6196 -1.0274
   57RES   H37424006   1.131   3.537   5.242 -0.1340 -0.2571  0.0817
   57RES   H37524007   1.158   3.749   5.408 -1.5115  2.8722 -0.5912
   57RES   H37624008   1.001   3.797   5.365 -0.4594  0.4761 -1.4784
   57RES   H37724009   0.979   3.659   5.581 -1.2327  0.2316 -0.6122
   57RES   H37824010   0.901   3.577   5.457 -1.2390  4.0973 -0.5304
   57RES   H37924011   1.073   3.530   5.502 -0.1211 -1.0536  0.9961
   57RES   C38024012   1.407   3.610   4.846 -0.8313  0.3017 -0.4781
   57RES   C38124013   1.457   3.483   4.913 -1.0631 -0.2567 -0.2408
   57RES   C38224014   1.524   3.399   4.796 -0.3135 -0.1189 -0.1754
   57RES   C38324015   1.419   3.318   4.722 -0.7292 -0.5509  0.6230
   57RES   C38424016   1.466   3.226   4.609  0.0150 -0.2143  0.2980
   57RES   C38524017   1.346   3.146   4.549  0.5904 -0.1682 -0.7599
   57RES   C38624018   1.353   3.003   4.593 -0.2053 -0.4524  0.2436
   57RES   H38724019   1.355   3.589   4.752 -0.7844 -2.1826 -0.0068
   57RES   H38824020   1.491   3.671   4.813 -1.4891 -0.1591 -3.1783
   57RES   H38924021   1.366   3.433   4.947 -0.8358 -0.8360 -0.4797
   57RES   H39024022   1.603   3.333   4.831 -0.0491  0.1909 -0.1859
   57RES   H39124023   1.575   3.470   4.730 -0.8287 -0.5347 -1.0421
   57RES   H39224024   1.371   3.251   4.793  0.2825 -1.4182  0.5061
   57RES   H39324025   1.333   3.374   4.687  1.0852  2.1732  0.3694
   57RES   H39424026   1.501   3.285   4.525 -1.6902 -1.0728 -1.0583
   57RES   H39524027   1.547   3.165   4.649 -0.8739 -1.4016  0.3101
   57RES   H39624028   1.343   3.160   4.441  0.0024 -1.8277 -0.9804
   57RES   H39724029   1.247   3.182   4.576  2.0155  2.6263  0.8791
   57RES   H39824030   1.446   2.957   4.559  0.1191 -1.2921  2.2249
   57RES   H39924031   1.271   2.945   4.549  0.0562 -0.9752  0.4373
   57RES   H40024032   1.355   2.998   4.702  1.5695  1.8585  0.3448
   57RES   C40124033   1.558   3.503   5.030 -0.1720 -0.6752 -0.7168
   57RES   C40224034   1.571   3.380   5.125  0.4063 -1.2149 -0.1061
   57RES   C40324035   1.676   3.395   5.236 -1.0201  0.0991  0.0812
   57RES   C40424036   1.695   3.274   5.331  0.7586  0.4278 -0.1984
   57RES   C40524037   1.810   3.300   5.436  0.0783 -0.3780  0.6042
   57RES   C40624038   1.825   3.190   5.539 -0.6079  0.3015 -0.3153
   57RES   C40724039   1.715   3.167   5.636  0.7382  0.1308  0.6013
   57RES   H40824040   1.525   3.583   5.096  0.5789 -1.9218  1.2082
   57RES   H40924041   1.656   3.520   4.985  0.0935 -0.4332 -0.0523
   57RES   H41024042   1.577   3.280   5.082 -1.9482 -1.2795 -0.3815
   57RES   H41124043   1.651   3.478   5.303 -0.2297  0.8732 -0.5817
   57RES   H41224044   1.770   3.425   5.191 -1.0829  0.7748  0.3951
   57RES   H41324045   1.723   3.180   5.283 -0.0055 -1.4437  2.8880
   57RES   H41424046   1.601   3.258   5.384  0.8840 -0.5159 -0.2630
   57RES   H41524047   1.909   3.308   5.391 -1.3311 -1.5593 -2.8392
   57RES   H41624048   1.783   3.388   5.494  1.2866 -1.5184  2.9773
   57RES   H41724049   1.852   3.102   5.481  0.7265 -0.4023  1.3368
   57RES   H41824050   1.917   3.211   5.592 -2.0526  0.3917  2.2093
   57RES   H41924051   1.619   3.137   5.593  0.6916 -2.4623  2.3525
   57RES   H42024052   1.705   3.256   5.698 -1.4413 -0.4261  1.0974
   57RES   H42124053   1.748   3.088   5.703 -0.7383 -0.1723  1.0061
   57RES   H42224054   1.469   3.368   5.164  0.3752 -1.0157 -0.1275
   58RES     C124055   1.020   6.100   2.042  0.1298 -0.3084  0.4098
   58RES     C224056   1.024   5.954   1.989 -0.4557 -0.0763 -0.1293
   58RES     C324057   1.017   5.850   2.102 -0.7904  0.0597 -0.2124
   58RES     C424058   0.942   5.721   2.065  0.0290  0.0268  1.3419
   58RES     C524059   0.984   5.591   2.133  0.1321 -0.2179 -0.4971
   58RES     C624060   0.895   5.473   2.099 -0.2152 -0.0328 -0.2539
   58RES     C724061   0.906   5.421   1.959 -0.1824  0.1903 -0.4179
   58RES     H824062   0.993   6.173   1.966 -1.3633  0.2585  1.4693
   58RES     H924063   1.123   6.126   2.069  0.3315 -0.0740 -0.5621
   58RES    H1024064   0.935   5.948   1.926  0.8408 -1.5812 -1.8752
   58RES    H1124065   1.119   5.835   2.135 -1.1203 -0.5325  0.5481
   58RES    H1224066   0.974   5.895   2.191  3.0253 -0.4318  1.9616
   58RES    H1324067   0.835   5.744   2.072  0.4289  2.6347 -0.1923
   58RES    H1424068   0.951   5.706   1.957 -0.4067 -0.1597  1.3319
   58RES    H1524069   1.001   5.600   2.240 -0.3024  0.7951 -0.5068
   58RES    H1624070   1.083   5.576   2.090  1.4133  1.4250  1.7758
   58RES    H1724071   0.793   5.511   2.109 -0.1112 -0.0402  0.8516
   58RES    H1824072   0.913   5.397   2.175  0.4692  0.1192 -0.2607
   58RES    H1924073   1.005   5.377   1.946  0.5873  1.4454  1.0074
   58RES    H2024074   0.888   5.485   1.873  0.0688  0.4811 -0.2541
   58RES    H2124075   0.836   5.338   1.947  1.6364 -1.5441  0.5964
   58RES    H2224076   0.954   6.116   2.127 -2.5368 -1.4873 -1.3626
   58RES    C2324077   1.149   5.923   1.891  0.0731  0.4099 -0.1196
   58RES    C2424078   1.191   6.031   1.785  0.0725  0.4076 -0.2374
   58RES    C2524079   1.061   6.062   1.700 -0.0476 -0.1372  0.2957
   58RES    C2624080   1.054   6.213   1.650  0.0315  0.2939  0.1388
   58RES    C2724081   0.918   6.240   1.588  0.9409 -0.0038 -0.0230
   58RES    C2824082   0.886   6.161   1.457  0.1698  0.1267  0.1389
   58RES    C2924083   0.774   6.213   1.374 -0.2389  0.0519 -0.1839
   58RES    H3024084   1.231   5.918   1.964 -0.4821  3.1203  0.7373
   58RES    H3124085   1.134   5.828   1.841 -2.2051  0.8490 -0.3123
   58RES    H3224086   1.225   6.117   1.842  1.9655  0.6258 -1.6475
   58RES    H3324087   0.972   6.042   1.760  1.2247 -0.6450  2.0608
   58RES    H3424088   1.057   5.990   1.618 -1.3458  1.1289 -0.7775
   58RES    H3524089   1.131   6.248   1.582 -0.6523 -0.8798 -1.2682
   58RES    H3624090   1.059   6.269   1.743 -1.1487  0.1889  0.2716
   58RES    H3724091   0.915   6.347   1.567 -0.8823 -0.2015 -0.8901
   58RES    H3824092   0.857   6.203   1.670  1.9562  1.0857  1.2452
   58RES    H3924093   0.868   6.055   1.477  1.0157  0.0650  0.5845
   58RES    H4024094   0.969   6.167   1.386 -0.8193  1.3449 -0.9415
   58RES    H4124095   0.754   6.161   1.280 -1.2787  2.0242 -1.0739
   58RES    H4224096   0.678   6.207   1.425 -0.3754 -0.2684 -0.4748
   58RES    H4324097   0.791   6.319   1.359  1.5397  0.6239  5.0395
   58RES    C4424098   1.307   5.971   1.702  0.3867  0.4334 -0.1869
   58RES    C4524099   1.389   6.071   1.612 -0.1586  0.2025  0.1032
   58RES    C4624100   1.478   6.167   1.693 -0.8298  0.0716 -0.9899
   58RES    C4724101   1.522   6.297   1.629  0.3827  0.5014  0.2829
   58RES    C4824102   1.639   6.370   1.691 -0.2511 -0.2651 -0.5465
   58RES    C4924103   1.709   6.464   1.588 -1.1514 -0.1038  0.1733
   58RES    C5024104   1.865   6.474   1.610  0.0954  0.3932 -0.0213
   58RES    H5124105   1.278   5.883   1.644  1.8971  0.7328 -1.4286
   58RES    H5224106   1.381   5.934   1.774 -0.3366 -3.2581 -1.2441
   58RES    H5324107   1.314   6.135   1.564  0.0815  1.2471  1.1038
   58RES    H5424108   1.562   6.107   1.726 -0.2230  1.6205  0.3271
   58RES    H5524109   1.422   6.196   1.782  0.4719 -0.3074 -0.0386
   58RES    H5624110   1.558   6.267   1.530  0.1033 -1.7661  0.8369
   58RES    H5724111   1.439   6.364   1.609 -1.3251 -1.4276  0.7515
   58RES    H5824112   1.715   6.299   1.724  0.2132  0.2271 -0.5558
   58RES    H5924113   1.605   6.414   1.785  0.6972  2.8234 -1.5915
   58RES    H6024114   1.673   6.564   1.611 -1.3435  0.1819 -1.3172
   58RES    H6124115   1.693   6.453   1.481  1.0789 -2.0918  0.0084
   58RES    H6224116   1.910   6.542   1.538 -0.5948  1.7832  0.8440
   58RES    H6324117   1.899   6.372   1.591 -0.0432  0.0980  1.2547
   58RES    H6424118   1.889   6.498   1.714  0.8997 -0.3011 -0.0472
   58RES    C6524119   1.467   5.983   1.510  0.1567 -0.3094 -0.0077
   58RES    C6624120   1.372   5.923   1.398  1.0864  0.3650 -0.1546
   58RES    C6724121   1.376   5.770   1.406 -0.1629  0.2724 -0.0100
   58RES    C6824122   1.266   5.700   1.335  0.5584  0.5191  0.1868
   58RES    C6924123   1.126   5.720   1.397  0.4656 -0.0105 -0.4486
   58RES    C7024124   1.023   5.627   1.340  0.9753 -0.2558 -0.8064
   58RES    C7124125   0.880   5.647   1.410 -0.1996  0.1027 -0.1156
   58RES    H7224126   1.542   6.048   1.466 -1.0904  1.1684  0.0150
   58RES    H7324127   1.535   5.911   1.556 -1.1040 -1.5203  0.0363
   58RES    H7424128   1.269   5.952   1.417  0.0936 -0.1816 -4.3878
   58RES    H7524129   1.467   5.734   1.358 -2.0038 -0.5330 -3.0430
   58RES    H7624130   1.361   5.748   1.512  0.6421 -1.5039 -0.2473
   58RES    H7724131   1.273   5.719   1.228  1.0923  1.0572  0.3178
   58RES    H7824132   1.276   5.592   1.347  1.3920 -0.0161 -4.5015
   58RES    H7924133   1.134   5.701   1.504 -1.6935  1.3395 -0.0109
   58RES    H8024134   1.089   5.818   1.365  1.1403 -0.3319 -2.2277
   58RES    H8124135   1.034   5.521   1.363  0.3745 -0.3810 -1.0846
   58RES    H8224136   1.013   5.639   1.232  1.8481  2.8336 -0.5776
   58RES    H8324137   0.894   5.610   1.511  3.1669 -0.9690 -0.9365
   58RES    H8424138   0.855   5.753   1.422 -0.2771  0.0134  0.5134
   58RES    H8524139   0.804   5.596   1.350 -0.4069 -0.4592  0.6216
   58RES    C8624140   1.413   5.981   1.261  0.4650  0.0894 -1.1061
   58RES    C8724141   1.390   6.137   1.229  0.3282 -0.0823  0.7900
   58RES    C8824142   1.477   6.169   1.106  0.5359 -0.1465  0.4422
   58RES    C8924143   1.625   6.172   1.128 -0.0292 -0.2580  0.0094
   58RES    C9024144   1.702   6.258   1.031  0.2792 -0.5424 -0.0928
   58RES    C9124145   1.838   6.301   1.077 -0.1605 -0.7298  0.8574
   58RES    C9224146   1.817   6.401   1.198 -0.8619 -0.4309  0.9811
   58RES    H9324147   1.517   5.953   1.247  0.7759  0.8718 -0.4267
   58RES    H9424148   1.363   5.924   1.183 -0.2435  1.6623 -1.8202
   58RES    H9524149   1.416   6.197   1.316 -2.3090  1.0822  0.8184
   58RES    H9624150   1.454   6.098   1.027  2.9653 -1.7335  1.1118
   58RES    H9724151   1.451   6.271   1.077 -0.3004  0.3347  2.8061
   58RES    H9824152   1.631   6.227   1.221 -0.9108 -0.4538  0.1895
   58RES    H9924153   1.661   6.070   1.144 -0.7916 -1.0038 -2.6802
   58RES   H10024154   1.651   6.349   0.999 -0.7939 -1.3125 -0.6006
   58RES   H10124155   1.714   6.203   0.938 -1.3367 -0.2183 -0.5000
   58RES   H10224156   1.901   6.216   1.101  0.1559 -0.2417  1.7867
   58RES   H10324157   1.887   6.355   0.995 -0.1895  0.7533  1.7883
   58RES   H10424158   1.818   6.348   1.292  0.4066 -0.8677  0.7296
   58RES   H10524159   1.732   6.469   1.190 -1.0878 -0.6757  1.3214
   58RES   H10624160   1.908   6.460   1.204 -0.5767 -0.7205 -0.2840
   58RES   C10724161   1.242   6.163   1.199 -0.1702  0.8241  0.2819
   58RES   C10824162   1.195   6.317   1.199 -0.3279 -0.4259  0.4324
   58RES   C10924163   1.055   6.338   1.138 -0.6713 -0.3778 -1.2840
   58RES   C11024164   1.058   6.314   0.988  0.2169  0.1808 -0.1692
   58RES   C11124165   0.927   6.340   0.922  0.1830 -0.0403  1.0551
   58RES   C11224166   0.941   6.321   0.772  0.0599 -0.1826  0.1630
   58RES   C11324167   0.817   6.387   0.700 -0.4022 -0.0734  0.6981
   58RES   H11424168   1.180   6.114   1.273 -1.0324  1.7162  0.1618
   58RES   H11524169   1.225   6.105   1.108 -1.4015  1.1376  0.3096
   58RES   H11624170   1.265   6.361   1.128  0.6697 -2.4122  0.1487
   58RES   H11724171   1.025   6.441   1.160 -2.2569 -1.1292  0.1664
   58RES   H11824172   0.990   6.264   1.183 -2.5454  1.9541 -0.0340
   58RES   H11924173   1.132   6.383   0.947  0.7435  0.6983  1.6072
   58RES   H12024174   1.103   6.216   0.976 -1.3738 -0.6782  0.7955
   58RES   H12124175   0.903   6.442   0.952 -2.2912 -0.0658 -0.6612
   58RES   H12224176   0.853   6.270   0.959 -0.5558 -0.9654 -2.0031
   58RES   H12324177   1.028   6.371   0.728  0.8738 -1.8719 -0.1832
   58RES   H12424178   0.967   6.218   0.748  1.9372  0.6043 -1.3490
   58RES   H12524179   0.727   6.326   0.697  0.0460 -0.6877 -2.7919
   58RES   H12624180   0.797   6.486   0.740 -1.0704  0.4097 -0.7980
   58RES   H12724181   0.828   6.410   0.594  0.4829 -0.3043  0.7311
   58RES   C12824182   1.213   6.388   1.331  0.5802  0.0004  0.4373
   58RES   C12924183   1.253   6.537   1.322  0.3651 -0.3249  0.1504
   58RES   C13024184   1.407   6.555   1.306 -0.2790 -0.7252 -0.1401
   58RES   C13124185   1.457   6.706   1.299 -0.1046 -0.0914 -0.0692
   58RES   C13224186   1.607   6.698   1.275 -0.6808  0.3413  0.6457
   58RES   C13324187   1.662   6.838   1.281 -0.2002  0.3632 -0.5251
   58RES   C13424188   1.810   6.843   1.244 -0.3598  0.2898 -0.7386
   58RES   H13524189   1.120   6.375   1.387  0.5423  0.5147  0.5011
   58RES   H13624190   1.275   6.348   1.411 -0.0301  0.5490  1.1881
   58RES   H13724191   1.198   6.580   1.238 -0.3420 -0.1183  0.7109
   58RES   H13824192   1.449   6.512   1.215 -0.6312  2.5300 -1.9230
   58RES   H13924193   1.447   6.511   1.397  0.4332  0.4007  0.0953
   58RES   H14024194   1.435   6.766   1.387  0.2506 -0.2771  0.1471
   58RES   H14124195   1.407   6.763   1.220 -0.2182  0.3387  0.3132
   58RES   H14224196   1.617   6.645   1.180 -1.2689  1.4599 -0.0523
   58RES   H14324197   1.660   6.642   1.352  0.4835 -1.2154 -1.2258
   58RES   H14424198   1.641   6.892   1.373  0.2039 -1.4831  0.6748
   58RES   H14524199   1.615   6.908   1.212  0.2002 -0.5188 -1.7085
   58RES   H14624200   1.836   6.808   1.144  0.9157 -0.4464 -0.1626
   58RES   H14724201   1.872   6.782   1.309 -0.2627  2.0078  0.8294
   58RES   H14824202   1.848   6.946   1.246 -1.4698  0.6657  1.3406
   58RES   C14924203   1.203   6.615   1.446 -0.1285 -0.1009 -0.1142
   58RES   C15024204   1.059   6.659   1.432  0.5784 -0.1731  0.0323
   58RES   C15124205   1.040   6.778   1.342 -0.3260  0.0849 -0.9893
   58RES   C15224206   0.964   6.749   1.214 -0.3613 -0.5273 -0.4607
   58RES   C15324207   0.937   6.893   1.151  0.1014  0.2039  0.1687
   58RES   C15424208   0.821   6.985   1.203 -0.1923  0.1656  0.4436
   58RES   C15524209   0.803   7.099   1.100  0.0168  0.2906  0.7907
   58RES   H15624210   1.212   6.552   1.534 -2.0561 -0.5342 -0.2187
   58RES   H15724211   1.259   6.705   1.473 -0.3293 -0.3960  1.3320
   58RES   H15824212   0.997   6.582   1.387 -0.5574  0.5990  0.2522
   58RES   H15924213   1.014   6.865   1.403  1.8470  1.3453 -1.7923
   58RES   H16024214   1.139   6.811   1.309 -0.1040 -1.0638 -1.4938
   58RES   H16124215   0.876   6.689   1.235 -1.5547  0.2196 -3.0259
   58RES   H16224216   1.017   6.686   1.142  2.3039 -0.2273  1.1894
   58RES   H16324217   0.924   6.863   1.047 -0.2356  3.2849 -0.7414
   58RES   H16424218   1.033   6.944   1.151  0.7903 -1.0684  0.0699
   58RES   H16524219   0.844   7.030   1.299  2.3679 -1.0273  0.4283
   58RES   H16624220   0.728   6.933   1.225  0.1925 -0.5558  0.3861
   58RES   H16724221   0.899   7.149   1.086  0.0558  0.1945  0.7217
   58RES   H16824222   0.728   7.172   1.133 -0.1425 -0.7336  2.7993
   58RES   H16924223   0.772   7.064   1.002 -0.3435  0.5931  0.7936
   58RES   C17024224   0.993   6.691   1.569 -0.3434  0.2145 -0.3822
   58RES   C17124225   0.838   6.725   1.568  0.0168  0.3612 -0.0350
   58RES   C17224226   0.748   6.598   1.552 -0.3369  0.8503 -0.2060
   58RES   C17324227   0.612   6.614   1.480  0.1686 -0.5681  0.2922
   58RES   C17424228   0.519   6.491   1.485  0.3000 -0.0885 -1.1198
   58RES   C17524229   0.404   6.498   1.375  0.1519 -0.3691  0.0169
   58RES   C17624230   0.306   6.379   1.398  0.6212 -0.2947 -0.3135
   58RES   H17724231   1.046   6.776   1.611  0.9678 -0.2784 -1.0059
   58RES   H17824232   1.013   6.606   1.635  3.0710 -0.2779 -1.9050
   58RES   H17924233   0.805   6.777   1.478  2.8410  0.7401 -0.8894
   58RES   H18024234   0.722   6.555   1.648 -0.0104  1.7282  0.2810
   58RES   H18124235   0.807   6.529   1.492 -1.6743  0.0473 -0.6018
   58RES   H18224236   0.640   6.639   1.378 -2.2140 -2.8108 -0.9767
   58RES   H18324237   0.568   6.698   1.533  0.6695 -1.7954  2.7723
   58RES   H18424238   0.473   6.489   1.584 -0.3219 -1.2858 -1.4186
   58RES   H18524239   0.565   6.393   1.492  1.3752  0.5269  0.6620
   58RES   H18624240   0.436   6.494   1.271  2.7475 -0.8140  0.8061
   58RES   H18724241   0.345   6.589   1.384  3.5701  1.7202  2.6470
   58RES   H18824242   0.233   6.358   1.320 -1.1279  1.8259  0.7118
   58RES   H18924243   0.237   6.396   1.480 -0.5793  0.3987 -1.4346
   58RES   H19024244   0.349   6.279   1.409 -0.2116 -0.6591 -0.3335
   58RES   C19124245   0.788   6.796   1.697  0.3957 -0.2139  0.3379
   58RES   C19224246   0.840   6.949   1.721  0.0653 -0.0586 -1.3236
   58RES   C19324247   0.771   7.044   1.617 -0.2854 -0.1285 -0.3925
   58RES   C19424248   0.833   7.184   1.588 -0.4018  0.5053  0.9010
   58RES   C19524249   0.754   7.263   1.483 -0.8192 -0.5228 -0.1358
   58RES   C19624250   0.827   7.377   1.409 -0.0356  0.0599 -0.2175
   58RES   C19724251   0.863   7.496   1.499 -0.2002  0.1295  1.1044
   58RES   H19824252   0.815   6.736   1.784 -2.4599 -3.5139 -0.9489
   58RES   H19924253   0.679   6.797   1.695  0.3877  0.9895  1.1080
   58RES   H20024254   0.944   6.964   1.692  0.7012  0.7956  1.2221
   58RES   H20124255   0.664   7.044   1.641 -0.0580 -0.0118  0.6598
   58RES   H20224256   0.773   6.991   1.522  2.3898 -1.7046  0.4897
   58RES   H20324257   0.933   7.182   1.546 -0.5648 -0.3035  0.5532
   58RES   H20424258   0.843   7.240   1.681 -1.1831 -0.3644  1.5144
   58RES   H20524259   0.720   7.191   1.409 -1.5002  0.8585 -1.2108
   58RES   H20624260   0.668   7.312   1.528 -1.5918 -1.5987 -0.4287
   58RES   H20724261   0.766   7.415   1.327 -2.4773  1.0127  1.9610
   58RES   H20824262   0.915   7.333   1.363  0.1388 -1.8293  1.8449
   58RES   H20924263   0.893   7.574   1.429  2.3774 -2.1190 -0.4035
   58RES   H21024264   0.938   7.477   1.576  2.1480  1.1920 -0.8398
   58RES   H21124265   0.773   7.531   1.549 -0.3622 -2.4945  2.7432
   58RES   C21224266   0.806   7.007   1.862 -0.1134  0.1885 -1.4210
   58RES   C21324267   0.896   6.975   1.978  0.1988 -0.2788  0.2168
   58RES   C21424268   1.043   6.947   1.940  0.5402  0.0254  0.2003
   58RES   C21524269   1.113   7.062   1.873 -0.4771 -0.4040  0.2516
   58RES   C21624270   1.250   7.033   1.818  0.6364 -0.5212 -0.8428
   58RES   C21724271   1.296   7.151   1.734  0.1708 -0.0454  0.2788
   58RES   C21824272   1.229   7.170   1.588 -0.1752  0.3808 -0.4888
   58RES   H21924273   0.709   6.968   1.893  0.0706 -0.3958 -1.5812
   58RES   H22024274   0.792   7.115   1.856  1.7740  0.5194 -0.3470
   58RES   H22124275   0.861   6.878   2.012 -0.9550 -0.5133 -1.5486
   58RES   H22224276   1.097   6.941   2.034 -1.6935 -1.8039  1.4213
   58RES   H22324277   1.065   6.856   1.885  1.9531  0.8273 -0.5909
   58RES   H22424278   1.120   7.142   1.947 -2.2318  1.7149 -1.7897
   58RES   H22524279   1.053   7.103   1.791 -0.1396  1.0481  0.7150
   58RES   H22624280   1.319   7.020   1.902  0.6571 -0.1161 -0.7957
   58RES   H22724281   1.247   6.937   1.767  1.0088 -1.9277  1.6593
   58RES   H22824282   1.259   7.244   1.776  0.7388  0.6714 -0.8023
   58RES   H22924283   1.403   7.158   1.718  0.2096 -1.1123  0.0106
   58RES   H23024284   1.123   7.147   1.589  0.2189 -1.5512 -1.5871
   58RES   H23124285   1.276   7.105   1.514  2.5955 -0.7474  2.1674
   58RES   H23224286   1.231   7.275   1.557  1.0439  0.3057 -0.7084
   58RES   C23324287   0.879   7.072   2.097 -0.5427  0.3175 -0.2886
   58RES   C23424288   0.918   7.017   2.242 -0.7045  0.0104  0.2072
   58RES   C23524289   0.982   7.125   2.326 -0.3581  0.0149 -0.3391
   58RES   C23624290   1.116   7.174   2.275 -0.2770  0.1071  0.8631
   58RES   C23724291   1.177   7.282   2.361 -0.6846 -0.8213 -0.2084
   58RES   C23824292   1.151   7.425   2.312  0.6597  0.6409  0.7023
   58RES   C23924293   1.192   7.532   2.416  0.1517  0.1115 -0.3261
   58RES   H24024294   0.774   7.100   2.095 -0.6725 -0.1624 -0.1520
   58RES   H24124295   0.921   7.170   2.072  0.5516 -0.6161 -2.2049
   58RES   H24224296   0.991   6.936   2.236  0.2843  0.9081 -0.0971
   58RES   H24324297   0.999   7.096   2.430  0.2517  1.5286  0.0028
   58RES   H24424298   0.909   7.205   2.336  1.1227  1.5482 -1.6198
   58RES   H24524299   1.126   7.219   2.176 -1.8292  1.0157  1.1034
   58RES   H24624300   1.180   7.088   2.260 -0.7243 -0.5162  2.5195
   58RES   H24724301   1.283   7.257   2.355 -0.5379  0.0165 -1.1534
   58RES   H24824302   1.147   7.264   2.464  3.5729 -1.7703  0.9594
   58RES   H24924303   1.211   7.435   2.222  0.6361  1.7522  0.8087
   58RES   H25024304   1.048   7.426   2.277  0.2217 -2.5966  1.7468
   58RES   H25124305   1.141   7.509   2.509  0.3497  0.2376 -0.1869
   58RES   H25224306   1.300   7.523   2.428  0.0983  1.0065  0.8288
   58RES   H25324307   1.176   7.634   2.383  1.5820 -0.2562 -2.2552
   58RES   C25424308   0.783   6.963   2.304 -0.8014  0.3585 -0.3076
   58RES   C25524309   0.804   6.872   2.427  0.1274  0.6336  0.0809
   58RES   C25624310   0.813   6.726   2.377  0.1863 -0.6239  0.5546
   58RES   C25724311   0.864   6.635   2.478  0.0295  0.1885 -0.4626
   58RES   C25824312   0.852   6.488   2.443 -0.6001 -0.4271 -0.4751
   58RES   C25924313   0.901   6.384   2.548  0.2282  0.2939  0.4309
   58RES   C26024314   1.032   6.417   2.628 -0.1892 -0.1178 -0.3375
   58RES   H26124315   0.719   6.913   2.231  0.5450  1.0981 -2.0212
   58RES   H26224316   0.723   7.049   2.335  1.4304  1.7898  0.1724
   58RES   H26324317   0.894   6.907   2.479  0.7022 -0.0153 -0.4682
   58RES   H26424318   0.886   6.717   2.297 -0.4734 -2.2605  0.1060
   58RES   H26524319   0.722   6.682   2.336 -0.2321  1.7468 -1.1080
   58RES   H26624320   0.965   6.668   2.502  0.5383 -1.3002 -0.4847
   58RES   H26724321   0.804   6.640   2.569  0.3597 -1.5904 -0.1216
   58RES   H26824322   0.917   6.475   2.356 -0.0387 -1.4860  0.0844
   58RES   H26924323   0.747   6.471   2.420  0.4066 -2.0497 -4.3771
   58RES   H27024324   0.823   6.351   2.618 -0.0722 -0.7081 -0.3588
   58RES   H27124325   0.918   6.288   2.498 -3.1812 -0.1761  0.0436
   58RES   H27224326   1.071   6.333   2.685  1.2892 -1.0131 -2.5727
   58RES   H27324327   1.115   6.431   2.558  2.1337 -0.9818  2.1615
   58RES   H27424328   1.020   6.503   2.693  1.5499 -0.4363  0.4275
   58RES   C27524329   0.682   6.894   2.522  0.2128 -0.3738 -0.6630
   58RES   C27624330   0.654   7.036   2.593  0.2312  0.4553  0.1000
   58RES   C27724331   0.775   7.087   2.675  0.3015 -0.5670 -0.2675
   58RES   C27824332   0.771   7.237   2.717  0.2342  0.4429  0.7591
   58RES   C27924333   0.908   7.300   2.747 -0.3320  1.3807  0.0308
   58RES   C28024334   0.898   7.452   2.760 -1.0361  0.3312 -0.0138
   58RES   C28124335   1.034   7.501   2.829  0.2738 -0.5699  0.1408
   58RES   H28224336   0.678   6.813   2.596  0.4058 -0.5565 -0.8535
   58RES   H28324337   0.589   6.873   2.470 -0.2515 -1.0263  0.4017
   58RES   H28424338   0.625   7.106   2.515  0.2577 -1.5348 -1.7236
   58RES   H28524339   0.781   7.026   2.765 -1.2761  0.1999  0.3553
   58RES   H28624340   0.867   7.069   2.618  0.4677 -1.6223  0.3086
   58RES   H28724341   0.694   7.255   2.791 -0.8916  0.8767 -0.4857
   58RES   H28824342   0.738   7.284   2.624 -0.7551  0.8512  1.3153
   58RES   H28924343   0.967   7.289   2.656 -0.4545 -0.7244  0.1887
   58RES   H29024344   0.958   7.242   2.824  2.8840  3.2590 -0.5178
   58RES   H29124345   0.889   7.495   2.660  0.1202 -0.8416 -0.6406
   58RES   H29224346   0.814   7.485   2.820 -0.4999  0.7372  0.5190
   58RES   H29324347   1.047   7.462   2.930  1.2785 -2.0207 -0.5332
   58RES   H29424348   1.030   7.610   2.837 -2.4291 -0.6346  0.1876
   58RES   H29524349   1.123   7.492   2.767  0.4647 -1.5059  0.5365
   58RES   C29624350   0.524   7.039   2.687  0.0232  0.2781 -0.4485
   58RES   C29724351   0.392   7.070   2.611  0.2760 -0.6044  0.4729
   58RES   C29824352   0.373   7.221   2.570  0.2835 -0.7439 -0.5873
   58RES   C29924353   0.361   7.307   2.696  0.1182 -0.0519 -0.2391
   58RES   C30024354   0.357   7.460   2.678  0.1935 -0.2306 -0.2505
   58RES   C30124355   0.213   7.513   2.652 -0.6141  0.3868 -0.0123
   58RES   C30224356   0.211   7.659   2.612 -0.3230 -0.4197 -0.3386
   58RES   H30324357   0.520   6.948   2.747 -0.1631  1.1455  0.8854
   58RES   H30424358   0.534   7.117   2.763 -0.1675  0.8068 -0.9644
   58RES   H30524359   0.386   7.019   2.515  1.5977  0.7390 -0.3512
   58RES   H30624360   0.455   7.258   2.509 -1.6568  0.7329 -2.3907
   58RES   H30724361   0.285   7.232   2.507 -0.5840  2.6072  1.1013
   58RES   H30824362   0.456   7.298   2.748 -0.5906 -2.9107  0.6653
   58RES   H30924363   0.286   7.264   2.762 -0.0799  0.6867  0.0145
   58RES   H31024364   0.420   7.485   2.593 -1.0826  0.3351 -1.0511
   58RES   H31124365   0.406   7.520   2.755  0.3346  1.2008 -1.4264
   58RES   H31224366   0.173   7.449   2.573  0.9448  1.0747 -1.3871
   58RES   H31324367   0.151   7.515   2.742  1.4347 -1.4519  1.4821
   58RES   H31424368   0.261   0.004   2.677  0.4811 -0.2591 -1.1277
   58RES   H31524369   0.258   7.662   2.514  1.1083  0.7133  0.3606
   58RES   H31624370   0.104   7.680   2.611 -0.5080 -1.3099  0.1559
   58RES   C31724371   0.263   7.021   2.677  0.4639 -0.1616 -0.5092
   58RES   C31824372   0.222   6.871   2.649 -0.2138 -0.1512  0.2618
   58RES   C31924373   0.149   6.815   2.780 -0.0485 -0.1116  0.4161
   58RES   C32024374   0.248   6.745   2.868 -0.9310  0.2792  0.0910
   58RES   C32124375   0.188   6.694   2.997 -0.4831 -0.6013 -0.8117
   58RES   C32224376   0.269   6.751   3.118  0.2248 -0.7295 -0.4340
   58RES   C32324377   0.213   6.700   3.250  0.2343  0.2633 -1.0050
   58RES   H32424378   0.179   7.085   2.653  1.0767  0.1076 -2.0140
   58RES   H32524379   0.275   7.023   2.785  1.4226 -0.6684 -0.5995
   58RES   H32624380   0.318   6.819   2.638  1.0253  1.8415  1.3743
   58RES   H32724381   0.065   6.752   2.753  1.3545 -1.1623 -1.5784
   58RES   H32824382   0.103   6.904   2.822  0.5810 -0.2047  1.3285
   58RES   H32924383   0.332   6.809   2.896  0.8111 -2.0234  0.2891
   58RES   H33024384   0.300   6.656   2.832 -1.2284 -0.5700  1.7082
   58RES   H33124385   0.175   6.586   3.007  0.7453 -0.6264  0.8227
   58RES   H33224386   0.090   6.736   3.017  0.9669  2.1445  0.9452
   58RES   H33324387   0.273   6.860   3.115 -1.1511 -0.6952 -4.0062
   58RES   H33424388   0.369   6.710   3.106  0.5127 -0.1629  0.0208
   58RES   H33524389   0.111   6.736   3.264 -0.5952 -1.7022 -1.6969
   58RES   H33624390   0.271   6.737   3.334 -0.7826  0.4584 -0.3765
   58RES   H33724391   0.207   6.591   3.257  0.5026  0.2789 -0.4742
   58RES   C33824392   0.138   6.831   2.526 -0.1316 -0.6184 -0.1312
   58RES   C33924393   0.185   6.886   2.389 -0.1852  0.4141  0.3705
   58RES   C34024394   0.060   6.882   2.291  0.1166 -0.6123  0.0790
   58RES   C34124395   0.021   6.747   2.239  0.0206 -0.4481 -0.3130
   58RES   C34224396   7.649   6.770   2.113 -0.8113 -0.6957 -0.5965
   58RES   C34324397   7.575   6.652   2.055  0.2093 -0.2440  0.1313
   58RES   C34424398   7.466   6.585   2.138 -0.5669  0.0696  0.0310
   58RES   H34524399   0.039   6.866   2.556  0.0732  0.5982 -0.8148
   58RES   H34624400   0.122   6.724   2.517  2.7201 -1.1729  0.7878
   58RES   H34724401   0.215   6.990   2.407 -0.9382  0.6776  0.1420
   58RES   H34824402   7.703   6.927   2.344  0.0098 -0.4779 -0.2068
   58RES   H34924403   0.068   6.953   2.209 -0.6361 -0.9992 -0.3316
   58RES   H35024404   7.694   6.694   2.318 -0.4793  1.6359  0.7693
   58RES   H35124405   0.104   6.689   2.198 -1.4835 -1.1923 -2.4266
   58RES   H35224406   7.575   6.845   2.141  0.1265 -0.2016  0.6534
   58RES   H35324407   7.713   6.811   2.036  1.1447 -0.0533  1.3003
   58RES   H35424408   7.524   6.686   1.965  1.2144  1.7185  0.2797
   58RES   H35524409   7.641   6.575   2.014  1.9151  0.5992  1.2124
   58RES   H35624410   7.510   6.541   2.228  0.8214  1.5322  0.0736
   58RES   H35724411   7.426   6.502   2.080 -0.1024 -0.4291  0.4176
   58RES   H35824412   7.378   6.646   2.162 -0.7529 -0.4231  0.6239
   58RES   C35924413   0.313   6.817   2.346  0.2176  0.4110  0.4743
   58RES   C36024414   0.368   6.860   2.216 -0.3155  0.0737 -0.8456
   58RES   C36124415   0.421   7.011   2.204 -0.7244  0.1248 -0.3953
   58RES   C36224416   0.441   7.073   2.059  0.4210 -0.3555  0.5267
   58RES   C36324417   0.304   7.106   1.985  0.4148  0.5778  0.0936
   58RES   C36424418   0.331   7.147   1.835 -0.0620 -0.2626  0.2165
   58RES   C36524419   0.202   7.161   1.772  0.4105 -0.5484 -0.3751
   58RES   H36624420   0.295   6.710   2.345  0.1284  0.4261  0.3805
   58RES   H36724421   0.389   6.834   2.422  2.1554 -0.0849 -1.3169
   58RES   H36824422   0.292   6.833   2.143  0.5854 -1.5559 -1.1921
   58RES   H36924423   0.351   7.079   2.253  1.7246  2.6011 -0.1685
   58RES   H37024424   0.504   7.021   2.275  1.0596 -0.7385 -2.3026
   58RES   H37124425   0.505   7.159   2.077 -0.5236  0.8686 -1.6908
   58RES   H37224426   0.499   7.007   1.995  0.3261  0.8810 -0.8678
   58RES   H37324427   0.240   7.017   1.987  0.1487  0.7288 -0.9137
   58RES   H37424428   0.265   7.190   2.042  0.8471  0.0560  1.1621
   58RES   H37524429   0.379   7.245   1.830  0.4581 -0.4997  0.4926
   58RES   H37624430   0.394   7.073   1.786  1.9358  0.8984  0.9834
   58RES   H37724431   0.139   7.229   1.830  1.0431  0.9572 -1.4426
   58RES   H37824432   0.228   7.185   1.669  0.2990  0.1750 -0.2340
   58RES   H37924433   0.153   7.064   1.757  0.6411 -0.5581 -1.0587
   58RES   C38024434   0.477   6.767   2.171 -0.7431  0.1477  0.3317
   58RES   C38124435   0.448   6.662   2.062  0.2346 -0.0388  0.0034
   58RES   C38224436   0.409   6.717   1.923 -0.2900 -0.7820  0.3636
   58RES   C38324437   0.278   6.655   1.862 -0.5937  0.4336 -0.1882
   58RES   C38424438   0.237   6.720   1.727  0.0011  0.1133  0.0279
   58RES   C38524439   0.086   6.715   1.690 -0.7966  0.0397 -0.1292
   58RES   C38624440   0.031   6.572   1.659 -0.2796  0.2506  0.6422
   58RES   H38724441   0.559   6.822   2.124 -0.9656  0.4268  0.2650
   58RES   H38824442   0.531   6.716   2.251 -0.5477  1.5971  1.1593
   58RES   H38924443   0.364   6.608   2.107  0.7522 -0.0206  1.0175
   58RES   H39024444   0.497   6.693   1.864  0.1262  2.1262 -0.2172
   58RES   H39124445   0.407   6.825   1.924  1.2140 -0.7254  2.3120
   58RES   H39224446   0.283   6.547   1.851 -1.1467  0.2718  1.0326
   58RES   H39324447   0.213   6.670   1.948 -0.0304  0.7656  0.1892
   58RES   H39424448   0.267   6.825   1.729 -2.2094  0.7713  1.1124
   58RES   H39524449   0.302   6.674   1.653 -1.8354 -0.8022 -1.0654
   58RES   H39624450   0.066   6.779   1.604 -1.9348 -0.2770 -0.1118
   58RES   H39724451   0.032   6.764   1.771 -0.7710  0.8914 -0.6229
   58RES   H39824452   0.050   6.513   1.749 -0.7354  0.9811  1.2171
   58RES   H39924453   0.087   6.522   1.579  1.4247  1.2663  1.1886
   58RES   H40024454   7.651   6.579   1.641 -0.0889 -0.0523 -0.7131
   58RES   C40124455   0.571   6.556   2.067 -0.5628  0.2792 -0.1591
   58RES   C40224456   0.717   6.602   2.026 -0.4192  0.1906  0.5006
   58RES   C40324457   0.840   6.500   2.024  0.9346 -0.8447  0.5745
   58RES   C40424458   0.974   6.565   1.983 -0.7492  1.4165  0.3954
   58RES   C40524459   1.092   6.466   1.988  0.5378 -0.0732  0.3762
   58RES   C40624460   1.230   6.532   1.958 -0.5918 -0.1002 -0.2258
   58RES   C40724461   1.343   6.436   1.978 -0.4734 -0.0148  0.6590
   58RES   H40824462   0.549   6.490   1.982  0.4882  1.2225 -1.1793
   58RES   H40924463   0.574   6.494   2.156 -1.0959 -2.2254 -1.8233
   58RES   H41024464   0.748   6.687   2.088  0.0812  0.0404  0.4618
   58RES   H41124465   0.826   6.429   1.942  1.5989 -0.3953  0.0609
   58RES   H41224466   0.837   6.444   2.118  0.5459 -0.3209  0.8713
   58RES   H41324467   0.993   6.654   2.043 -2.5164  1.4130  0.9949
   58RES   H41424468   0.963   6.602   1.881 -0.2815 -1.4407 -0.7463
   58RES   H41524469   1.106   6.428   2.089  0.1148  0.2849  0.5725
   58RES   H41624470   1.075   6.376   1.929  2.1319 -0.8299  1.0463
   58RES   H41724471   1.245   6.560   1.854 -0.9750  3.0627  0.5267
   58RES   H41824472   1.244   6.622   2.018  2.8502 -0.0796 -0.9507
   58RES   H41924473   1.439   6.480   1.952  1.8762 -5.2558 -0.1306
   58RES   H42024474   1.327   6.357   1.905  0.4837  1.8183 -1.6012
   58RES   H42124475   1.344   6.396   2.080  0.5530  0.1558  0.7210
   58RES   H42224476   0.709   6.642   1.925 -1.0684 -0.7956  0.1503
   59RES     C124477   1.898   3.166   3.010  0.5078  0.3483  0.5304
   59RES     C224478   1.842   3.023   3.007  0.4555  0.0300  0.3649
   59RES     C324479   1.789   2.974   3.145  0.2001  0.5438  0.0999
   59RES     C424480   1.679   3.058   3.206 -0.1199 -0.7672  0.0786
   59RES     C524481   1.595   2.995   3.313 -0.4769  0.7279  0.4616
   59RES     C624482   1.487   3.092   3.376  0.0007 -0.9569 -0.3503
   59RES     C724483   1.417   3.021   3.487 -0.2736 -0.1220 -0.1439
   59RES     H824484   1.834   3.240   3.057  0.7743  0.7866  0.2065
   59RES     H924485   1.926   3.202   2.911 -4.1450 -0.7898 -1.3429
   59RES    H1024486   1.758   3.026   2.938 -1.0043 -2.4298  1.9774
   59RES    H1124487   1.744   2.874   3.136 -0.0760  0.5390  1.3463
   59RES    H1224488   1.871   2.957   3.214 -0.3918 -1.5586  0.3286
   59RES    H1324489   1.725   3.153   3.235 -1.9208  0.2048 -0.1684
   59RES    H1424490   1.611   3.092   3.127  1.6265 -1.4092 -1.7533
   59RES    H1524491   1.670   2.965   3.386 -0.1846 -0.2360 -0.2203
   59RES    H1624492   1.558   2.898   3.279  0.7615  0.3614  0.1275
   59RES    H1724493   1.425   3.126   3.293  1.6736  0.2258 -1.1594
   59RES    H1824494   1.528   3.189   3.403 -0.8239 -0.5346 -0.6134
   59RES    H1924495   1.323   3.068   3.514  0.0126  0.8345 -0.8073
   59RES    H2024496   1.475   3.018   3.580 -0.5650  1.0876  0.0780
   59RES    H2124497   1.393   2.916   3.468 -0.5337  0.2384 -1.8080
   59RES    H2224498   1.985   3.168   3.076  0.1144  3.4770  0.9975
   59RES    C2324499   1.948   2.918   2.962 -0.1786  0.0040  0.2955
   59RES    C2424500   2.010   2.937   2.819  0.8243 -0.0683  0.0933
   59RES    C2524501   1.909   2.966   2.705 -0.1311 -0.1449 -0.5246
   59RES    C2624502   1.804   2.856   2.696 -0.4511 -0.2077  0.1200
   59RES    C2724503   1.696   2.886   2.590 -0.1924 -0.6306  0.1084
   59RES    C2824504   1.615   3.012   2.647  0.1275  0.6652  0.8567
   59RES    C2924505   1.478   3.023   2.566 -0.0469 -0.0477  0.4431
   59RES    H3024506   2.023   2.916   3.041 -1.8222 -0.2443  1.8786
   59RES    H3124507   1.901   2.820   2.967 -2.5422  1.1735  2.0768
   59RES    H3224508   2.074   3.023   2.836  0.5523  0.1331  0.1034
   59RES    H3324509   1.965   2.976   2.612  1.1423 -0.5849  0.1873
   59RES    H3424510   1.872   3.068   2.716  3.7768  1.4879 -1.7721
   59RES    H3524511   1.759   2.815   2.786 -1.6939  1.1510  0.1437
   59RES    H3624512   1.850   2.764   2.658 -1.0613 -0.8765  0.9827
   59RES    H3724513   1.630   2.800   2.588 -0.2556 -0.6021  0.6977
   59RES    H3824514   1.738   2.884   2.490  1.4052  1.5996  0.6883
   59RES    H3924515   1.671   3.105   2.637  1.5692 -0.2806 -0.1391
   59RES    H4024516   1.601   3.009   2.755  1.1507  0.4212  0.9938
   59RES    H4124517   1.427   3.117   2.588  0.3665  0.2767  0.0316
   59RES    H4224518   1.487   3.017   2.458 -3.7035 -0.2691  0.0889
   59RES    H4324519   1.417   2.940   2.600 -1.2604  1.2926  1.5958
   59RES    C4424520   2.115   2.827   2.779 -0.2681  0.3784 -0.5402
   59RES    C4524521   2.231   2.795   2.878  0.2627  0.3855  0.2768
   59RES    C4624522   2.316   2.671   2.822  0.2692 -0.5925 -0.6170
   59RES    C4724523   2.229   2.557   2.806 -0.1430  0.5078  0.3689
   59RES    C4824524   2.306   2.426   2.795  0.2281  0.0034 -0.5143
   59RES    C4924525   2.346   2.381   2.931  0.4611  0.0048 -0.0237
   59RES    C5024526   2.394   2.235   2.931  0.2807  0.0175 -0.1598
   59RES    H5124527   2.163   2.851   2.684 -1.1091 -1.3164 -1.4294
   59RES    H5224528   2.057   2.736   2.761  0.3312  0.3475 -2.4447
   59RES    H5324529   2.185   2.766   2.973 -1.0461 -0.7180 -0.6666
   59RES    H5424530   2.406   2.649   2.879 -1.0957 -0.4877  1.6333
   59RES    H5524531   2.361   2.694   2.725  0.8510  1.5539  0.1153
   59RES    H5624532   2.157   2.549   2.888  0.6801 -0.2115  1.0331
   59RES    H5724533   2.173   2.563   2.713 -1.4110 -0.9750  1.0241
   59RES    H5824534   2.386   2.423   2.721 -0.3890 -1.4183 -1.1311
   59RES    H5924535   2.242   2.350   2.751 -1.5188 -0.0412  2.0034
   59RES    H6024536   2.264   2.402   2.999  0.2648  4.6116 -1.4932
   59RES    H6124537   2.429   2.444   2.965  0.3115  0.4955 -0.5549
   59RES    H6224538   2.408   2.206   3.035  1.3581 -1.1485 -0.6268
   59RES    H6324539   2.490   2.234   2.880  0.1512 -1.7410 -0.3746
   59RES    H6424540   2.329   2.169   2.874 -0.1608 -0.6376  1.0818
   59RES    C6524541   2.330   2.914   2.905  0.1436  0.6757 -0.2976
   59RES    C6624542   2.425   2.895   3.021  0.0634  0.2903 -0.2466
   59RES    C6724543   2.370   2.914   3.160 -0.5292 -0.3044 -0.3885
   59RES    C6824544   2.432   2.840   3.274  0.4920 -0.0958  0.2171
   59RES    C6924545   2.362   2.823   3.411  0.1686  0.5835  0.9396
   59RES    C7024546   2.355   2.951   3.500 -0.0697 -0.0453  0.4940
   59RES    C7124547   2.286   2.931   3.641  0.0481  0.1910  0.2890
   59RES    H7224548   2.388   2.941   2.817  1.6482 -1.4866  0.0067
   59RES    H7324549   2.271   3.005   2.919 -1.3761 -0.2512 -0.5700
   59RES    H7424550   2.472   2.796   3.015  0.4589  0.2493  2.8703
   59RES    H7524551   2.353   3.020   3.180 -3.3486 -0.1204 -3.3515
   59RES    H7624552   2.268   2.875   3.169 -0.1426 -1.2387 -0.0759
   59RES    H7724553   2.456   2.741   3.235  1.2200 -0.6310  2.0174
   59RES    H7824554   2.528   2.884   3.301  0.5946 -0.7224  0.8808
   59RES    H7924555   2.262   2.782   3.396  0.5309  0.2768 -0.7310
   59RES    H8024556   2.417   2.751   3.471  3.0183  1.0403 -1.0734
   59RES    H8124557   2.301   3.022   3.437  1.2121  1.0117  0.5595
   59RES    H8224558   2.458   2.979   3.518  0.5416 -2.6849  1.3490
   59RES    H8324559   2.347   2.867   3.705  0.0017  1.3581  1.5129
   59RES    H8424560   2.254   3.020   3.695 -1.1357  0.3610 -0.6415
   59RES    H8524561   2.198   2.871   3.618  1.4720 -2.2248  0.9906
   59RES    C8624562   2.552   2.982   3.003  0.5905  0.6562  0.4565
   59RES    C8724563   2.679   2.933   2.930  0.0686 -0.3933  0.3480
   59RES    C8824564   2.761   3.057   2.878  0.3256 -0.5630 -0.8653
   59RES    C8924565   2.706   3.105   2.746 -0.4550  0.1795 -0.1319
   59RES    C9024566   2.806   3.211   2.686 -0.2231 -0.4811  0.1181
   59RES    C9124567   2.759   3.253   2.544 -0.4124  0.3335 -0.8631
   59RES    C9224568   2.803   3.172   2.421  0.6881 -0.0696  0.3638
   59RES    H9324569   2.530   3.079   2.958 -1.2753 -0.0256 -0.1255
   59RES    H9424570   2.582   3.015   3.103  0.4890  2.6167 -0.1476
   59RES    H9524571   2.652   2.869   2.847 -2.0052  2.7405 -1.4903
   59RES    H9624572   2.763   3.139   2.950  0.8902  0.4661 -2.0315
   59RES    H9724573   2.862   3.023   2.857  0.5138  0.0513 -0.9822
   59RES    H9824574   2.703   3.014   2.687 -0.0474 -0.1101  0.2947
   59RES    H9924575   2.605   3.147   2.752 -0.6471 -0.5323  2.2549
   59RES   H10024576   2.909   3.176   2.678 -0.9347 -2.1249 -2.5101
   59RES   H10124577   2.800   3.310   2.731 -1.3430  1.0971 -3.2665
   59RES   H10224578   2.650   3.254   2.551 -0.3796 -0.6477  0.0247
   59RES   H10324579   2.785   3.357   2.526 -0.7516  0.6917  0.6192
   59RES   H10424580   2.909   3.179   2.396  0.4340  2.8037 -0.0593
   59RES   H10524581   2.752   3.216   2.336 -0.5948 -1.4140  0.4183
   59RES   H10624582   2.777   3.067   2.435  0.0737  0.0822  0.3627
   59RES   C10724583   2.758   2.851   3.033  0.1983  0.7438 -0.4153
   59RES   C10824584   2.859   2.757   2.971  0.3864  0.0573 -1.3344
   59RES   C10924585   2.993   2.746   3.050  0.1378  0.3801  0.1724
   59RES   C11024586   2.985   2.679   3.196  0.5139 -0.6200  0.4356
   59RES   C11124587   3.104   2.696   3.292  0.3916  0.6252 -0.1594
   59RES   C11224588   3.105   2.603   3.411  0.0798 -0.1283 -0.0514
   59RES   C11324589   3.167   2.459   3.380  0.1557 -0.2398 -0.2404
   59RES   H11424590   2.693   2.796   3.101  0.8525  1.4251  0.7786
   59RES   H11524591   2.805   2.928   3.095  0.2693  0.0770  0.3645
   59RES   H11624592   2.890   2.799   2.875  1.6217 -0.9815 -1.4031
   59RES   H11724593   3.044   2.842   3.054 -2.1667  1.6673 -0.7271
   59RES   H11824594   3.061   2.686   2.989 -0.6346 -0.5945  0.2699
   59RES   H11924595   2.893   2.698   3.252 -0.4098 -1.5441 -0.7335
   59RES   H12024596   2.974   2.572   3.177 -2.0578 -0.2624 -0.4088
   59RES   H12124597   3.098   2.800   3.324  1.2207  0.1034  1.7975
   59RES   H12224598   3.189   2.688   3.225 -0.8842  4.5299 -2.4216
   59RES   H12324599   3.149   2.659   3.494 -3.4881  0.1735  1.7547
   59RES   H12424600   3.001   2.586   3.441 -0.1025 -1.7785 -1.5741
   59RES   H12524601   3.118   2.404   3.300  1.2160 -0.7636 -0.5371
   59RES   H12624602   3.272   2.472   3.357 -0.2911  3.7952 -0.4557
   59RES   H12724603   3.164   2.394   3.467 -0.7306 -1.8449 -1.4401
   59RES   C12824604   2.795   2.620   2.937 -0.1100 -0.2462  0.6215
   59RES   C12924605   2.865   2.534   2.818 -0.1729 -1.1913  0.8520
   59RES   C13024606   2.826   2.584   2.679 -0.4406  1.0147  0.3345
   59RES   C13124607   2.675   2.561   2.651 -0.4815 -0.0383 -0.2089
   59RES   C13224608   2.635   2.621   2.513  0.1193 -0.5430  0.3299
   59RES   C13324609   2.495   2.567   2.465  0.1497 -0.5972  0.2997
   59RES   C13424610   2.427   2.635   2.349 -0.8041 -0.3850 -0.1574
   59RES   H13524611   2.797   2.555   3.025 -2.3519 -1.0998  0.0710
   59RES   H13624612   2.687   2.632   2.930 -0.0752 -0.9078 -1.3056
   59RES   H13724613   2.970   2.565   2.811 -0.8330  0.5499 -2.1474
   59RES   H13824614   2.881   2.543   2.594  2.2573  1.4085  1.8288
   59RES   H13924615   2.849   2.691   2.675  1.6096  0.5562 -1.7329
   59RES   H14024616   2.617   2.620   2.723  1.7095 -0.8772  2.3439
   59RES   H14124617   2.646   2.457   2.663  0.5197 -0.3693 -0.6112
   59RES   H14224618   2.714   2.617   2.439 -1.5052  1.9921 -1.6370
   59RES   H14324619   2.619   2.729   2.527 -1.9220 -0.6505 -0.9365
   59RES   H14424620   2.426   2.573   2.550  0.0946  0.9255  0.1611
   59RES   H14524621   2.512   2.463   2.439  2.0028 -1.0091  2.9535
   59RES   H14624622   2.344   2.569   2.320 -0.6442 -1.2364  1.2878
   59RES   H14724623   2.495   2.648   2.265  1.7797  0.6776  2.0469
   59RES   H14824624   2.386   2.734   2.371 -0.0169  0.4276 -2.2227
   59RES   C14924625   2.847   2.382   2.825 -0.2447 -0.1748 -0.3695
   59RES   C15024626   2.946   2.320   2.927  0.2436  0.2079 -0.8185
   59RES   C15124627   3.089   2.324   2.868 -0.2660  0.4889  0.1714
   59RES   C15224628   3.200   2.349   2.976 -0.1666 -0.2820 -1.0879
   59RES   C15324629   3.340   2.348   2.908 -0.1286  0.3156 -0.0887
   59RES   C15424630   3.461   2.361   3.004  0.5209 -0.3042  0.1100
   59RES   C15524631   3.472   2.254   3.117  0.7258  0.0489 -0.7088
   59RES   H15624632   2.750   2.362   2.871 -0.5279 -1.1794 -1.3763
   59RES   H15724633   2.864   2.342   2.724  1.2198 -0.4215 -0.0314
   59RES   H15824634   2.947   2.381   3.018  0.6098 -0.7308 -0.1928
   59RES   H15924635   3.109   2.225   2.827  0.8366  1.5460 -1.8996
   59RES   H16024636   3.102   2.388   2.781 -1.4679 -0.2515 -0.5787
   59RES   H16124637   3.207   2.275   3.056 -0.8088 -1.3840 -2.0263
   59RES   H16224638   3.186   2.442   3.031 -0.3940 -2.3542  2.5143
   59RES   H16324639   3.353   2.425   2.832  0.1487 -0.2889 -0.6571
   59RES   H16424640   3.337   2.252   2.855  0.5505 -1.0908  2.3499
   59RES   H16524641   3.461   2.458   3.052  0.9523 -0.3466  0.1933
   59RES   H16624642   3.547   2.345   2.939  1.3422  2.7175  0.4246
   59RES   H16724643   3.559   2.257   3.182 -1.5131 -0.7599  2.4355
   59RES   H16824644   3.472   2.153   3.076  0.5009 -0.5328  0.6965
   59RES   H16924645   3.386   2.265   3.182  0.1153  2.4737 -1.8543
   59RES   C17024646   2.905   2.175   2.960 -0.4255  0.1995 -0.7656
   59RES   C17124647   2.783   2.160   3.057 -0.2812 -0.5854  0.0229
   59RES   C17224648   2.717   2.028   3.032 -0.5204 -0.1138  0.2015
   59RES   C17324649   2.804   1.902   3.030  0.0447 -0.0500 -0.2112
   59RES   C17424650   2.731   1.774   3.009  0.3987 -0.6644  0.2693
   59RES   C17524651   2.827   1.661   3.044  0.8088 -0.2927 -0.2785
   59RES   C17624652   2.759   1.521   3.038  0.5954  0.5711  0.0251
   59RES   H17724653   2.995   2.121   2.990  0.5121  1.1473 -1.8071
   59RES   H17824654   2.871   2.135   2.864  0.3444 -1.3292 -0.4206
   59RES   H17924655   2.711   2.240   3.039 -1.8411 -1.9086  0.2548
   59RES   H18024656   2.648   2.035   2.948  0.8060 -2.3392 -1.1468
   59RES   H18124657   2.658   2.013   3.123 -0.4306  2.3796  0.6962
   59RES   H18224658   2.868   1.897   3.119 -2.1518 -1.6543  1.3510
   59RES   H18324659   2.876   1.921   2.951 -0.9803  0.1420 -1.1030
   59RES   H18424660   2.699   1.761   2.905 -0.5460 -0.7276  0.5661
   59RES   H18524661   2.640   1.772   3.069 -0.1867 -3.3278 -0.6495
   59RES   H18624662   2.871   1.662   3.144  1.2962  0.8007 -0.5029
   59RES   H18724663   2.917   1.655   2.982  1.7748 -0.1518  1.0844
   59RES   H18824664   2.723   1.493   2.939 -3.2251  1.9924  0.9666
   59RES   H18924665   2.674   1.521   3.105 -0.1934 -0.2790 -0.9629
   59RES   H19024666   2.836   1.448   3.062  1.5216  1.3180 -0.6184
   59RES   C19124667   2.831   2.174   3.201  0.0611 -0.4761 -0.0667
   59RES   C19224668   2.715   2.189   3.312  0.3886  0.1183 -0.2139
   59RES   C19324669   2.744   2.095   3.432 -0.5283  0.2485 -0.3319
   59RES   C19424670   2.875   2.133   3.511  0.0242  0.3257 -0.1868
   59RES   C19524671   2.912   2.031   3.618  0.6969  0.8510 -0.0999
   59RES   C19624672   2.803   2.020   3.727 -0.4931 -0.1506 -0.7732
   59RES   C19724673   2.833   1.924   3.842 -0.1457 -0.3276  0.4717
   59RES   H19824674   2.903   2.255   3.210 -0.8883  0.3874 -0.0667
   59RES   H19924675   2.889   2.089   3.236 -0.5283 -0.6358  0.5300
   59RES   H20024676   2.622   2.160   3.264 -0.3743  1.6641  0.2863
   59RES   H20124677   2.758   1.992   3.399 -1.5042  0.0157 -0.0331
   59RES   H20224678   2.662   2.097   3.504  0.2116  0.0409  0.5376
   59RES   H20324679   2.871   2.235   3.550  1.6961  1.2419 -2.3494
   59RES   H20424680   2.954   2.135   3.437  0.2058  1.6031  0.0243
   59RES   H20524681   2.927   1.933   3.574 -1.1869  0.6752 -0.3784
   59RES   H20624682   3.008   2.056   3.665  2.0119 -0.4355 -2.0209
   59RES   H20724683   2.705   1.993   3.688 -0.4900 -1.5451  0.1683
   59RES   H20824684   2.800   2.125   3.757  0.6256 -0.2377 -0.3579
   59RES   H20924685   2.929   1.949   3.888  1.7159 -1.0560 -2.8369
   59RES   H21024686   2.849   1.822   3.807  2.0503  0.3453 -0.5975
   59RES   H21124687   2.747   1.929   3.909 -0.1945 -0.6737  0.4338
   59RES   C21224688   2.701   2.342   3.346 -0.0930  0.2917  0.4020
   59RES   C21324689   2.568   2.370   3.424  0.3402  0.6026  0.0234
   59RES   C21424690   2.571   2.505   3.502 -0.0035  0.0473 -0.1132
   59RES   C21524691   2.648   2.526   3.632 -0.6333  0.0178 -0.4101
   59RES   C21624692   2.617   2.425   3.746  0.1645  0.4279  0.3426
   59RES   C21724693   2.688   2.477   3.877 -0.6147  0.3099 -0.5551
   59RES   C21824694   2.670   2.366   3.980 -1.1028 -0.5548  0.0915
   59RES   H21924695   2.717   2.397   3.254  0.1746 -0.0941  0.2194
   59RES   H22024696   2.775   2.391   3.409  0.7198  0.5114 -0.7073
   59RES   H22124697   2.566   2.302   3.509  2.1882 -2.5384 -2.3377
   59RES   H22224698   2.600   2.575   3.424  1.1752 -0.3628 -0.0546
   59RES   H22324699   2.467   2.527   3.528 -0.3561 -1.1015 -0.4856
   59RES   H22424700   2.644   2.624   3.680 -1.2113 -0.1805 -0.0499
   59RES   H22524701   2.755   2.520   3.617 -0.2216 -0.0230  2.3424
   59RES   H22624702   2.510   2.427   3.766 -0.2165  1.1220 -1.6887
   59RES   H22724703   2.649   2.323   3.724 -3.6719 -1.0843  1.2998
   59RES   H22824704   2.792   2.510   3.867 -0.8566  1.0707 -0.5742
   59RES   H22924705   2.639   2.564   3.920  0.4844  0.7832 -0.2346
   59RES   H23024706   2.565   2.351   4.004 -1.6114  1.7422 -0.5580
   59RES   H23124707   2.708   2.395   4.078  0.1630 -0.2279 -0.4747
   59RES   H23224708   2.725   2.279   3.944  0.8165  0.9649 -0.8216
   59RES   C23324709   2.447   2.357   3.323  0.1222  0.0523  0.2579
   59RES   C23424710   2.321   2.289   3.390  0.4988 -0.5276 -0.0346
   59RES   C23524711   2.187   2.335   3.334 -0.3569 -0.0944 -0.5152
   59RES   C23624712   2.158   2.485   3.346 -0.2674 -0.2902  0.1696
   59RES   C23724713   2.025   2.523   3.293  0.9400  0.1841 -0.3549
   59RES   C23824714   2.007   2.671   3.288  0.4866 -0.0503 -0.3653
   59RES   C23924715   1.975   2.722   3.428  0.0052 -0.7821  0.4381
   59RES   H24024716   2.469   2.297   3.235 -2.4943  0.4063 -0.7154
   59RES   H24124717   2.432   2.461   3.290  1.4676  0.4226  0.8028
   59RES   H24224718   2.323   2.335   3.489  0.7845 -0.4787 -0.0626
   59RES   H24324719   2.111   2.277   3.387 -1.2119  2.1781  0.7889
   59RES   H24424720   2.196   2.290   3.235  0.0082  1.1060 -1.0307
   59RES   H24524721   2.240   2.537   3.296  0.4635 -1.0641  0.5558
   59RES   H24624722   2.154   2.509   3.452 -3.0615  2.6822 -0.5000
   59RES   H24724723   1.945   2.488   3.359  0.0666  0.7075 -1.1351
   59RES   H24824724   2.004   2.477   3.197  0.4544 -0.8447  0.2344
   59RES   H24924725   2.086   2.723   3.234 -0.4321 -0.2820 -1.9545
   59RES   H25024726   1.922   2.699   3.227  0.6205 -0.9782 -0.9793
   59RES   H25124727   2.041   2.694   3.511  2.0581  1.4718 -0.4028
   59RES   H25224728   1.941   2.825   3.438  0.3815 -0.2891 -2.9652
   59RES   H25324729   1.890   2.662   3.463  0.4457 -0.6324  1.8291
   59RES   C25424730   2.341   2.138   3.387 -0.4950 -0.3282  0.3381
   59RES   C25524731   2.277   2.064   3.504  0.4049 -0.1133  0.2697
   59RES   C25624732   2.369   2.075   3.622  0.2344  0.7201  0.0877
   59RES   C25724733   2.302   2.035   3.753 -0.3580 -0.4505 -0.0601
   59RES   C25824734   2.401   2.058   3.877 -0.0669  0.8424  0.4158
   59RES   C25924735   2.347   2.019   4.008 -0.4241  1.3528 -0.8108
   59RES   C26024736   2.277   2.140   4.073 -0.3664  0.1279  0.7230
   59RES   H26124737   2.449   2.127   3.394 -0.2742  1.3184 -0.3901
   59RES   H26224738   2.327   2.099   3.286  0.6564  0.4870 -0.1429
   59RES   H26324739   2.179   2.107   3.524  0.3883  0.8894 -1.8699
   59RES   H26424740   2.429   2.165   3.633  1.0997 -0.0392  1.8200
   59RES   H26524741   2.450   2.007   3.596 -1.7299 -2.2852  1.3945
   59RES   H26624742   2.217   2.103   3.753 -0.8481 -1.0599 -0.1492
   59RES   H26724743   2.266   1.932   3.746  1.7153 -1.5413  3.9410
   59RES   H26824744   2.444   2.158   3.876  0.1586  0.7556  1.1920
   59RES   H26924745   2.490   1.999   3.860 -1.6126 -1.9423  1.8020
   59RES   H27024746   2.272   1.941   3.996  1.6222 -0.7540 -0.0961
   59RES   H27124747   2.429   1.980   4.068 -1.3816 -0.3263 -0.5715
   59RES   H27224748   2.332   2.233   4.087  1.1601 -0.3572 -1.8132
   59RES   H27324749   2.186   2.170   4.021 -0.9861 -2.0419  0.4777
   59RES   H27424750   2.248   2.107   4.173 -0.6873 -3.7674 -0.5846
   59RES   C27524751   2.245   1.909   3.462 -0.0205 -0.6938  0.3436
   59RES   C27624752   2.130   1.889   3.359 -0.1383 -0.1279 -0.0187
   59RES   C27724753   1.995   1.922   3.428  0.0043  0.0957 -0.0098
   59RES   C27824754   1.899   2.006   3.335 -0.7444 -0.6819 -0.6345
   59RES   C27924755   1.765   2.032   3.412  0.1864 -0.1961 -0.2085
   59RES   C28024756   1.662   2.113   3.322 -0.2461 -0.3041  0.1105
   59RES   C28124757   1.527   2.134   3.389 -0.5277 -0.5897  0.5727
   59RES   H28224758   2.216   1.849   3.549 -1.4129  0.0477  0.4204
   59RES   H28324759   2.335   1.867   3.420  0.4153 -0.8979  1.4644
   59RES   H28424760   2.142   1.962   3.280  1.5471  1.2630  1.4691
   59RES   H28524761   1.940   1.830   3.446 -1.2138  0.9755  0.8876
   59RES   H28624762   2.016   1.973   3.522 -0.5248  1.0876 -0.4193
   59RES   H28724763   1.881   1.950   3.243  1.3572 -0.0926 -1.4222
   59RES   H28824764   1.947   2.095   3.295 -2.8224  0.0370 -1.6376
   59RES   H28924765   1.798   2.092   3.497 -0.3005  2.6477 -1.9657
   59RES   H29024766   1.728   1.935   3.445  1.5178 -0.3109  1.0258
   59RES   H29124767   1.701   2.205   3.279 -0.8014 -0.7582 -1.3861
   59RES   H29224768   1.663   2.056   3.229 -1.0248 -0.4953  0.2138
   59RES   H29324769   1.458   2.159   3.309  1.0675  0.2790 -0.5457
   59RES   H29424770   1.530   2.219   3.458 -2.0030 -0.4393  0.4731
   59RES   H29524771   1.494   2.044   3.441 -0.3376  0.0432  1.8218
   59RES   C29624772   2.134   1.750   3.297 -0.0417  0.3926 -0.7019
   59RES   C29724773   2.233   1.738   3.175  0.2418 -0.1102  0.5291
   59RES   C29824774   2.382   1.759   3.205  0.6030  0.1442  0.0384
   59RES   C29924775   2.443   1.666   3.315 -0.2808 -0.5310  0.0292
   59RES   C30024776   2.589   1.707   3.353  0.1020  0.0316  0.7254
   59RES   C30124777   2.651   1.627   3.473 -0.2884  0.0315  0.8708
   59RES   C30224778   2.792   1.683   3.513 -1.0262 -0.1368 -0.4288
   59RES   H30324779   2.149   1.673   3.372 -0.8429  0.3839 -0.5458
   59RES   H30424780   2.035   1.737   3.253 -1.0801  0.6529  1.4848
   59RES   H30524781   2.240   1.637   3.135 -0.1237  0.7462 -1.7650
   59RES   H30624782   2.435   1.740   3.112 -0.3900 -0.9615 -0.3024
   59RES   H30724783   2.396   1.865   3.226  2.1435  0.3621 -1.9754
   59RES   H30824784   2.418   1.563   3.288  1.2404 -1.4403  2.0237
   59RES   H30924785   2.385   1.675   3.407  0.1649 -0.8325  0.3389
   59RES   H31024786   2.583   1.815   3.366  0.7482  0.0742  0.7140
   59RES   H31124787   2.647   1.683   3.264  0.4486  1.9459  0.4241
   59RES   H31224788   2.584   1.634   3.559 -0.9465  1.5193  0.2544
   59RES   H31324789   2.671   1.522   3.453  1.1561  0.5420 -0.4163
   59RES   H31424790   2.791   1.784   3.554  0.4347 -0.6181  0.8416
   59RES   H31524791   2.842   1.620   3.586 -1.1400  1.7648  1.3502
   59RES   H31624792   2.861   1.678   3.429  0.9327  1.3582  1.0459
   59RES   C31724793   2.185   1.825   3.050  0.0120 -0.5163  0.3093
   59RES   C31824794   2.034   1.803   2.995  0.3433  0.9079  0.7004
   59RES   C31924795   1.979   1.926   2.913 -0.0619 -0.0304 -0.5179
   59RES   C32024796   1.966   2.069   2.977 -0.8580  0.0805 -0.1071
   59RES   C32124797   1.882   2.165   2.883  0.2520  0.4202 -0.0689
   59RES   C32224798   1.928   2.315   2.903 -0.1159 -0.1567  0.1255
   59RES   C32324799   1.871   2.421   2.810  0.0380  0.8810 -0.2657
   59RES   H32424800   2.257   1.808   2.969 -0.2177 -0.6549  0.1365
   59RES   H32524801   2.195   1.931   3.077  1.7448 -0.9944  1.6487
   59RES   H32624802   1.963   1.808   3.077 -0.3130 -1.7386  0.3517
   59RES   H32724803   1.880   1.894   2.881 -0.5964  0.0085  1.0405
   59RES   H32824804   2.040   1.937   2.824  2.6285 -1.4352  1.0734
   59RES   H32924805   2.065   2.107   3.004 -0.4541 -0.7875 -0.3495
   59RES   H33024806   1.927   2.055   3.077 -0.4288 -0.2313  0.0198
   59RES   H33124807   1.778   2.137   2.898  1.2542 -1.9268  3.0346
   59RES   H33224808   1.905   2.125   2.785  0.0951  2.4104 -0.9351
   59RES   H33324809   2.036   2.322   2.890 -0.0318  0.9315  1.2610
   59RES   H33424810   1.915   2.337   3.009 -1.3272 -0.3893  0.0307
   59RES   H33524811   1.886   2.519   2.855 -1.2175  0.4883  1.0449
   59RES   H33624812   1.764   2.404   2.797  0.2144  0.5662 -1.3273
   59RES   H33724813   1.928   2.418   2.717 -0.6482  3.6429 -0.8318
   59RES   C33824814   2.014   1.671   2.919  0.3721  0.2291  0.4162
   59RES   C33924815   1.874   1.615   2.906  0.1643  0.3425 -0.0513
   59RES   C34024816   1.868   1.469   2.961 -0.0975  0.5909 -0.0578
   59RES   C34124817   1.907   1.464   3.112 -0.0520 -0.1881  0.6624
   59RES   C34224818   1.913   1.324   3.173  0.1074 -0.1815 -0.1999
   59RES   C34324819   1.977   1.331   3.312  0.4476  1.0519 -0.6950
   59RES   C34424820   2.039   1.196   3.353  0.5139  0.0407 -0.7361
   59RES   H34524821   2.077   1.594   2.964 -0.8830 -2.3369 -2.0788
   59RES   H34624822   2.063   1.677   2.822 -2.1416 -2.3412 -1.0830
   59RES   H34724823   1.810   1.681   2.965 -3.3788 -0.2404 -3.0276
   59RES   H34824824   1.768   1.427   2.958  0.5081 -0.8238 -0.8908
   59RES   H34924825   1.926   1.398   2.902 -1.2301 -1.1547  0.9030
   59RES   H35024826   1.827   1.513   3.167  0.1390 -0.0077  0.7820
   59RES   H35124827   2.002   1.515   3.129 -0.0952  0.5553 -1.1934
   59RES   H35224828   1.813   1.283   3.183 -1.1211  2.5170 -1.0355
   59RES   H35324829   1.970   1.259   3.106  0.7617  1.3307 -1.1354
   59RES   H35424830   2.057   1.405   3.305  0.5251  0.8236 -2.3992
   59RES   H35524831   1.914   1.371   3.392 -0.4686  0.1842 -0.9754
   59RES   H35624832   2.076   1.129   3.276 -1.1629  0.4877 -1.9670
   59RES   H35724833   1.968   1.149   3.422 -0.2112 -1.1759 -2.2958
   59RES   H35824834   2.127   1.216   3.414  0.6170 -0.5009 -0.7039
   59RES   C35924835   1.822   1.624   2.753  0.4654 -0.4693  0.5155
   59RES   C36024836   1.669   1.609   2.718  0.3393  0.5942 -0.2848
   59RES   C36124837   1.569   1.672   2.828  0.1026  0.4043  0.0094
   59RES   C36224838   1.574   1.828   2.834 -0.7644  0.0411 -0.4219
   59RES   C36324839   1.572   1.901   2.973 -0.6523 -0.7318  0.3778
   59RES   C36424840   1.438   1.882   3.044 -0.2698 -0.3166  0.0304
   59RES   C36524841   1.330   1.998   3.036  0.1929  0.1797  0.4467
   59RES   H36624842   1.885   1.571   2.682 -1.6685 -2.6501  0.1716
   59RES   H36724843   1.839   1.729   2.726 -2.7984  0.1918  0.7809
   59RES   H36824844   1.657   1.502   2.704 -1.7051  0.7729 -0.0114
   59RES   H36924845   1.473   1.635   2.793  1.4182 -2.1216 -1.0503
   59RES   H37024846   1.585   1.623   2.924 -0.3601  0.9264  0.3562
   59RES   H37124847   1.667   1.853   2.783 -1.5559 -2.2094 -3.0796
   59RES   H37224848   1.498   1.890   2.785 -2.5427  0.2700  2.5155
   59RES   H37324849   1.660   1.869   3.029  0.9043 -1.4074 -2.3729
   59RES   H37424850   1.599   2.006   2.977 -1.4112 -0.5792  2.0407
   59RES   H37524851   1.386   1.786   3.050 -0.8215 -0.0472 -0.3896
   59RES   H37624852   1.472   1.877   3.147 -0.2185  2.5287  0.1907
   59RES   H37724853   1.232   1.961   3.066  1.1206 -1.3329  1.7164
   59RES   H37824854   1.351   2.089   3.092  0.2490 -0.1584  0.9796
   59RES   H37924855   1.306   2.032   2.936  0.7204  1.2174  0.6649
   59RES   C38024856   1.654   1.664   2.572  0.1324  0.1421 -0.1638
   59RES   C38124857   1.514   1.662   2.503 -0.2064  0.0222 -0.3125
   59RES   C38224858   1.495   1.762   2.390 -0.3924 -0.1207 -0.1081
   59RES   C38324859   1.500   1.910   2.422  0.3864  0.3957  0.5408
   59RES   C38424860   1.525   1.996   2.298 -0.0171 -0.0224  0.7767
   59RES   C38524861   1.570   2.141   2.315 -0.1891  0.3625  0.2519
   59RES   C38624862   1.724   2.147   2.319 -0.3693 -0.2541  0.1348
   59RES   H38724863   1.684   1.768   2.565  1.7579 -0.2594  0.3663
   59RES   H38824864   1.728   1.618   2.506 -1.7066  0.3012 -2.3534
   59RES   H38924865   1.450   1.688   2.588  0.0142 -0.4556  0.0026
   59RES   H39024866   1.406   1.739   2.330  0.7501 -1.0723 -1.4893
   59RES   H39124867   1.579   1.734   2.326 -1.2747 -1.6464 -0.6295
   59RES   H39224868   1.405   1.933   2.471 -0.0921 -1.9606  0.8149
   59RES   H39324869   1.568   1.925   2.505  2.3114 -3.4172 -0.2128
   59RES   H39424870   1.598   1.948   2.232 -0.5802 -0.0930  0.1932
   59RES   H39524871   1.430   1.993   2.245  0.0433  1.0499  0.5983
   59RES   H39624872   1.534   2.181   2.410  1.0934 -0.2741  1.0162
   59RES   H39724873   1.543   2.209   2.234 -2.7663  0.7779  1.4436
   59RES   H39824874   1.771   2.162   2.222  0.0077 -2.7106 -0.0973
   59RES   H39924875   1.771   2.064   2.373 -0.3808 -0.7213 -0.5653
   59RES   H40024876   1.758   2.236   2.371 -1.8408 -0.6387  1.7918
   59RES   C40124877   1.470   1.516   2.465  0.1137 -0.4618 -0.7769
   59RES   C40224878   1.319   1.500   2.486 -0.5377 -0.1951 -0.3084
   59RES   C40324879   1.274   1.360   2.441 -0.1075 -0.4487 -0.0013
   59RES   C40424880   1.262   1.349   2.288  0.5449 -0.2687  0.6236
   59RES   C40524881   1.180   1.235   2.228  0.5739 -0.2072  0.0068
   59RES   C40624882   1.211   1.213   2.081 -0.0753 -0.3141  0.5700
   59RES   C40724883   1.342   1.127   2.064  0.1001 -0.5560  0.0865
   59RES   H40824884   1.524   1.433   2.512 -0.6154 -1.3741 -1.5292
   59RES   H40924885   1.487   1.509   2.358  0.6467  1.3962 -0.8381
   59RES   H41024886   1.264   1.573   2.427  0.5147 -0.5400 -1.7605
   59RES   H41124887   1.177   1.338   2.486  0.5413  0.1439  1.7041
   59RES   H41224888   1.347   1.285   2.469 -1.1279 -1.9061 -1.1505
   59RES   H41324889   1.361   1.342   2.245 -0.1020 -0.2813 -0.8917
   59RES   H41424890   1.218   1.443   2.253  1.3767 -0.0415  0.1833
   59RES   H41524891   1.196   1.144   2.286 -2.6719 -1.0399 -0.2991
   59RES   H41624892   1.079   1.270   2.249  0.0639 -0.4254 -2.0406
   59RES   H41724893   1.128   1.153   2.042  1.6438 -2.0469 -0.5053
   59RES   H41824894   1.219   1.310   2.031  1.2473 -0.3951  0.6259
   59RES   H41924895   1.360   1.103   1.959  1.5798  2.9145 -0.5477
   59RES   H42024896   1.346   1.037   2.125  0.9773 -0.7407 -0.2372
   59RES   H42124897   1.422   1.188   2.107  0.2643 -0.5989 -0.1548
   59RES   H42224898   1.296   1.512   2.592  0.8285 -0.4365  0.0289
   60RES     C124899   5.453   3.341   4.698 -0.6866 -0.3626 -0.3150
   60RES     C224900   5.469   3.183   4.715 -0.4458  0.3430  0.5134
   60RES     C324901   5.618   3.159   4.716 -0.0424 -0.3878 -0.7155
   60RES     C424902   5.699   3.202   4.843 -0.5210 -0.1607  0.3539
   60RES     C524903   5.843   3.153   4.856 -1.0002 -0.2698  0.5071
   60RES     C624904   5.933   3.226   4.755 -0.7199  0.1687 -0.0503
   60RES     C724905   6.079   3.231   4.786 -0.0272 -0.0229 -0.1466
   60RES     H824906   5.476   3.363   4.594 -0.1934 -0.4579 -0.2297
   60RES     H924907   5.517   3.387   4.773  2.4488 -0.7057 -2.6685
   60RES    H1024908   5.421   3.162   4.811 -0.1993  2.4704  1.1432
   60RES    H1124909   5.622   3.050   4.717 -0.3869 -0.3906  0.3558
   60RES    H1224910   5.669   3.188   4.624  0.9864 -3.0724 -1.0372
   60RES    H1324911   5.684   3.309   4.851 -0.7690 -0.1402 -0.3386
   60RES    H1424912   5.646   3.147   4.921 -1.9585  0.8646  0.1101
   60RES    H1524913   5.843   3.045   4.841  1.1686 -0.1905 -0.1931
   60RES    H1624914   5.872   3.168   4.960 -1.5406  0.5531  0.5466
   60RES    H1724915   5.906   3.331   4.765 -2.2952 -0.1874 -0.4531
   60RES    H1824916   5.915   3.184   4.656  1.5961 -0.7735 -0.0942
   60RES    H1924917   6.133   3.280   4.706 -0.4567  3.0454  1.3776
   60RES    H2024918   6.131   3.136   4.802 -0.8636 -0.9155 -2.4950
   60RES    H2124919   6.104   3.283   4.879 -0.6883 -0.2801  0.1823
   60RES    H2224920   5.356   3.383   4.724  0.0634  1.9306 -1.0360
   60RES    C2324921   5.400   3.101   4.608 -0.3169  0.2895 -0.3583
   60RES    C2424922   5.252   3.110   4.601  0.2237 -0.2691  0.1003
   60RES    C2524923   5.189   3.024   4.709 -0.4520  0.1367 -0.0476
   60RES    C2624924   5.041   3.039   4.749  0.6040  0.5415  0.2333
   60RES    C2724925   5.010   2.954   4.872 -0.5526 -0.3999 -1.4229
   60RES    C2824926   4.870   2.960   4.907 -0.2494 -0.9270 -0.2911
   60RES    C2924927   4.834   2.881   5.035  0.1375  0.1679  0.3633
   60RES    H3024928   5.442   3.129   4.512  1.9812  0.8804  0.7745
   60RES    H3124929   5.432   2.997   4.619  1.7768  0.5657 -3.2740
   60RES    H3224930   5.210   3.210   4.612 -2.2733 -1.0614 -1.6921
   60RES    H3324931   5.243   3.040   4.802  0.7599  0.2156 -0.7549
   60RES    H3424932   5.215   2.921   4.686  1.4139  1.2692 -3.3419
   60RES    H3524933   4.974   3.022   4.665 -0.3803  0.5395  1.0173
   60RES    H3624934   5.018   3.144   4.766  2.4346  1.3243 -1.8770
   60RES    H3724935   5.081   2.967   4.953 -0.5215 -0.8561 -1.3772
   60RES    H3824936   5.029   2.848   4.858  1.4404 -0.6455  2.5750
   60RES    H3924937   4.804   2.924   4.828  1.0673 -1.5637 -1.1206
   60RES    H4024938   4.840   3.063   4.923  1.4903 -0.3361 -0.7444
   60RES    H4124939   4.840   2.775   5.009 -4.4917  0.0125 -0.4503
   60RES    H4224940   4.904   2.920   5.109 -0.6344  1.7395  0.2889
   60RES    H4324941   4.731   2.910   5.055  0.4533  1.6613 -0.0824
   60RES    C4424942   5.211   3.057   4.455  0.7425  0.0635 -0.2915
   60RES    C4524943   5.216   3.163   4.345  0.9387  1.1204  0.1942
   60RES    C4624944   5.232   3.088   4.211  0.5136 -0.6221  0.0263
   60RES    C4724945   5.367   3.013   4.176  0.7456 -0.2248  0.5108
   60RES    C4824946   5.405   3.010   4.025 -0.0175  0.1851  0.0977
   60RES    C4924947   5.287   2.958   3.940 -0.4093  0.5637  0.0500
   60RES    C5024948   5.319   2.958   3.786 -0.2881  0.0755  0.0461
   60RES    H5124949   5.108   3.024   4.451  1.0801 -0.8651 -1.8105
   60RES    H5224950   5.282   2.977   4.432  2.1396  1.5540 -1.3031
   60RES    H5324951   5.302   3.227   4.363  2.3038 -0.3615 -0.9171
   60RES    H5424952   5.208   3.167   4.140 -0.2232 -0.3455  0.5730
   60RES    H5524953   5.144   3.025   4.196 -0.3933  0.6548 -0.0847
   60RES    H5624954   5.444   3.079   4.216  1.4004 -1.3277  1.0635
   60RES    H5724955   5.374   2.916   4.224  1.3438  0.2544  1.3972
   60RES    H5824956   5.495   2.949   4.025 -0.7499 -0.9034 -0.1269
   60RES    H5924957   5.448   3.101   3.981  0.2479 -0.2028 -0.4513
   60RES    H6024958   5.205   3.027   3.956 -0.5524  0.4371 -0.1379
   60RES    H6124959   5.247   2.868   3.985  1.0312  1.0204  2.3167
   60RES    H6224960   5.277   3.045   3.735  0.7621 -1.0155 -2.8069
   60RES    H6324961   5.278   2.870   3.737  1.8663 -0.5900 -0.6432
   60RES    H6424962   5.427   2.949   3.773 -0.5997 -0.3058 -2.6712
   60RES    C6524963   5.082   3.248   4.351 -0.1658  0.3784 -0.0329
   60RES    C6624964   5.084   3.391   4.293  0.6073  1.0437  0.3182
   60RES    C6724965   5.153   3.499   4.369  0.2977 -0.5544 -0.3899
   60RES    C6824966   5.105   3.521   4.519  0.4448 -0.0860  0.1263
   60RES    C6924967   5.185   3.633   4.588  0.0985  0.1907  0.6292
   60RES    C7024968   5.174   3.627   4.746  0.0820 -0.7272  0.1967
   60RES    C7124969   5.067   3.719   4.809 -0.3107 -0.6694  0.3148
   60RES    H7224970   5.005   3.186   4.305 -0.4831  0.8341 -0.1214
   60RES    H7324971   5.043   3.252   4.453 -1.6641 -1.0181 -0.5289
   60RES    H7424972   5.152   3.388   4.208  0.1036 -1.2665 -0.0350
   60RES    H7524973   5.260   3.488   4.351  0.3131  2.2521 -2.3072
   60RES    H7624974   5.147   3.597   4.321 -3.5205 -0.8271 -0.5876
   60RES    H7724975   4.998   3.541   4.519 -0.3518 -3.9560  2.1794
   60RES    H7824976   5.111   3.427   4.573 -3.4292 -1.7008 -2.0481
   60RES    H7924977   5.289   3.607   4.568 -0.2832  0.2846 -1.6376
   60RES    H8024978   5.165   3.733   4.551  0.9939 -1.0317 -3.4319
   60RES    H8124979   5.274   3.639   4.787  0.4313 -2.6326 -0.0519
   60RES    H8224980   5.158   3.525   4.780  0.5284 -1.5050 -1.8731
   60RES    H8324981   5.062   3.690   4.914 -0.9814  0.5189  0.6122
   60RES    H8424982   5.091   3.825   4.799  0.2063 -0.7538  0.6697
   60RES    H8524983   4.980   3.697   4.747 -1.1943  1.5763  0.7399
   60RES    C8624984   4.944   3.438   4.246 -0.6931 -0.6964  0.4355
   60RES    C8724985   4.943   3.557   4.138 -0.2715 -0.0384  0.5866
   60RES    C8824986   5.015   3.516   4.005 -0.1176  0.5667 -0.5839
   60RES    C8924987   5.073   3.622   3.912 -0.1546  0.2324 -0.1294
   60RES    C9024988   5.191   3.696   3.974 -0.1901  0.2300 -0.1715
   60RES    C9124989   5.261   3.801   3.885 -0.5092 -0.7835 -0.3135
   60RES    C9224990   5.338   3.740   3.768  0.2208 -0.4056 -0.2209
   60RES    H9324991   4.896   3.354   4.196  1.1310 -0.7802 -1.2105
   60RES    H9424992   4.894   3.475   4.336 -2.2870  0.3665 -0.8432
   60RES    H9524993   4.990   3.643   4.185  2.0779 -0.4821 -0.8920
   60RES    H9624994   5.100   3.453   4.032 -1.0727 -0.6635 -0.4070
   60RES    H9724995   4.952   3.449   3.947 -1.8134  1.2751  0.4029
   60RES    H9824996   5.102   3.581   3.816 -1.9347 -0.2569 -0.4757
   60RES    H9924997   4.989   3.683   3.877  0.6972 -0.0888 -2.8494
   60RES   H10024998   5.256   3.626   4.027 -0.0530  1.1501  0.9103
   60RES   H10124999   5.155   3.762   4.054  0.3297  0.2456  0.0496
   60RES   H10225000   5.191   3.866   3.832  0.5421  0.8629  0.2848
   60RES   H10325001   5.328   3.868   3.939 -0.7146 -0.7654 -0.0814
   60RES   H10425002   5.383   3.814   3.702  0.2370 -0.8038 -0.6566
   60RES   H10525003   5.277   3.686   3.695 -0.2151 -1.2182  0.7354
   60RES   H10625004   5.419   3.676   3.803  0.2531  0.7293  1.8581
   60RES   C10725005   4.798   3.593   4.114  0.1693  0.3568 -0.4320
   60RES   C10825006   4.743   3.698   4.218 -0.4049  0.0296 -0.0450
   60RES   C10925007   4.785   3.847   4.180  0.1145 -0.1735  0.0319
   60RES   C11025008   4.749   3.955   4.282 -0.3601  0.3272 -0.4986
   60RES   C11125009   4.860   3.966   4.390  0.2846  0.4883 -0.4915
   60RES   C11225010   4.980   4.046   4.352  0.3881  0.2948  1.0868
   60RES   C11325011   5.092   4.053   4.457  0.1745  0.4681  0.2123
   60RES   H11425012   4.744   3.499   4.118 -1.5556  1.2644 -1.3870
   60RES   H11525013   4.792   3.634   4.013  1.4213 -1.7622 -1.4016
   60RES   H11625014   4.778   3.686   4.320  0.4602  1.0396 -0.2147
   60RES   H11725015   4.751   3.869   4.079 -0.8755  0.7133  0.5428
   60RES   H11825016   4.892   3.852   4.163  0.1025  4.9808  0.5287
   60RES   H11925017   4.729   4.055   4.246 -1.8982  1.0287  2.1338
   60RES   H12025018   4.651   3.938   4.326 -0.1124 -0.4296 -0.2292
   60RES   H12125019   4.889   3.863   4.412 -2.4979 -0.2325 -0.0716
   60RES   H12225020   4.805   4.011   4.472  1.9856 -1.9993  2.0918
   60RES   H12325021   5.024   3.995   4.266 -0.6120  2.8871 -1.0104
   60RES   H12425022   4.962   4.149   4.324  1.0731  0.5357  1.5138
   60RES   H12525023   5.148   3.961   4.475  0.7922  0.9046  0.5562
   60RES   H12625024   5.176   4.113   4.421 -0.5197  0.4684 -1.4455
   60RES   H12725025   5.051   4.092   4.550 -0.1271  3.2911 -1.0502
   60RES   C12825026   4.589   3.683   4.225  0.6455 -0.6701 -0.6194
   60RES   C12925027   4.522   3.678   4.364  0.4018 -0.5512 -0.2192
   60RES   C13025028   4.475   3.534   4.413  0.6312 -0.1049 -0.2000
   60RES   C13125029   4.588   3.445   4.458  0.0258 -0.1085 -0.1800
   60RES   C13225030   4.547   3.310   4.527 -0.7943 -0.2060 -0.0605
   60RES   C13325031   4.663   3.213   4.553  1.6638  0.4072 -0.5200
   60RES   C13425032   4.634   3.099   4.654  0.1700 -1.0385  0.3149
   60RES   H13525033   4.551   3.775   4.181 -0.0103 -2.0194 -2.9339
   60RES   H13625034   4.557   3.596   4.168 -0.4542 -0.5607 -0.1922
   60RES   H13725035   4.601   3.713   4.431 -0.7442  1.1069  0.3172
   60RES   H13825036   4.406   3.487   4.343 -1.4928  1.2697  0.9003
   60RES   H13925037   4.411   3.536   4.501  2.0610 -2.3704  0.9381
   60RES   H14025038   4.657   3.499   4.523  0.9716  0.2107 -1.4302
   60RES   H14125039   4.644   3.417   4.369  0.8195  0.7904  0.0376
   60RES   H14225040   4.467   3.267   4.468  1.0454 -0.3856 -2.5385
   60RES   H14325041   4.506   3.329   4.626  0.7802 -2.5246  1.0670
   60RES   H14425042   4.746   3.278   4.583 -0.7719  2.4701  2.0143
   60RES   H14525043   4.697   3.161   4.463 -1.1346 -0.2760 -1.2178
   60RES   H14625044   4.606   3.146   4.749  0.0200  0.0819 -0.2666
   60RES   H14725045   4.715   3.027   4.660  0.5687 -0.4623  2.4702
   60RES   H14825046   4.547   3.043   4.619  0.7944 -0.4530 -2.2184
   60RES   C14925047   4.405   3.778   4.381  0.2765  0.6196  0.4415
   60RES   C15025048   4.337   3.820   4.518 -0.2196 -0.3141 -0.9594
   60RES   C15125049   4.211   3.900   4.497 -0.2771  0.0691  0.4122
   60RES   C15225050   4.099   3.830   4.420  0.3782 -0.2955  0.6452
   60RES   C15325051   3.982   3.925   4.379 -0.3171  0.0936  0.6004
   60RES   C15425052   3.880   3.844   4.302 -0.2501  0.1507 -0.5871
   60RES   C15525053   3.767   3.934   4.262  0.0022  0.0107 -0.3063
   60RES   H15625054   4.438   3.869   4.331  2.0107 -0.1961  0.0701
   60RES   H15725055   4.331   3.727   4.319  0.1441  1.9274 -0.4897
   60RES   H15825056   4.316   3.727   4.570  2.0001 -0.1802  0.2401
   60RES   H15925057   4.173   3.926   4.596  1.3281  0.8115  0.8431
   60RES   H16025058   4.229   3.994   4.446  2.1811 -0.0298  1.0256
   60RES   H16125059   4.056   3.747   4.476 -3.1037  1.1662  0.2779
   60RES   H16225060   4.117   3.785   4.323 -0.8486 -0.8664  0.6676
   60RES   H16325061   4.018   4.007   4.318 -1.1900 -0.5414 -0.7796
   60RES   H16425062   3.927   3.967   4.464  0.3948 -0.4628  1.3463
   60RES   H16525063   3.852   3.760   4.365  2.0133 -0.1859  0.0385
   60RES   H16625064   3.925   3.795   4.216  1.1657 -0.1543  0.3093
   60RES   H16725065   3.794   4.022   4.203  0.7830 -0.1144 -0.1497
   60RES   H16825066   3.703   3.968   4.343 -0.4125 -4.0852  1.2061
   60RES   H16925067   3.702   3.869   4.204 -1.4025  0.4997  0.7073
   60RES   C17025068   4.441   3.895   4.600 -0.9437 -0.1841 -0.0566
   60RES   C17125069   4.439   3.897   4.751  0.5118 -0.0047 -0.6250
   60RES   C17225070   4.458   3.755   4.808 -0.5359  0.0490 -0.0953
   60RES   C17325071   4.576   3.665   4.771 -0.0925 -0.0835 -0.5492
   60RES   C17425072   4.575   3.529   4.831  0.4478  0.5616 -0.3364
   60RES   C17525073   4.600   3.528   4.979 -0.1874  0.8053 -0.0598
   60RES   C17625074   4.582   3.387   5.028  0.3239  0.0492 -0.3598
   60RES   H17725075   4.433   3.997   4.563  0.7570  1.1677  3.1739
   60RES   H17825076   4.543   3.866   4.576 -0.5005  0.3977  1.1303
   60RES   H17925077   4.344   3.931   4.793 -1.5514 -2.2027 -3.2997
   60RES   H18025078   4.369   3.704   4.770  0.1920 -2.2354  1.1987
   60RES   H18125079   4.457   3.757   4.917  1.0422 -1.3256 -0.0344
   60RES   H18225080   4.670   3.713   4.800 -0.7562  0.8366  0.0809
   60RES   H18325081   4.591   3.647   4.664 -0.3605  1.5541 -0.8727
   60RES   H18425082   4.640   3.465   4.772  0.1621  0.7463 -0.8525
   60RES   H18525083   4.481   3.478   4.814  1.4020 -1.8698  1.4152
   60RES   H18625084   4.532   3.596   5.029 -1.6347  1.3570 -2.6553
   60RES   H18725085   4.706   3.550   4.984 -0.0865  0.4020 -0.3840
   60RES   H18825086   4.605   3.370   5.134 -1.8398  0.0520  0.1343
   60RES   H18925087   4.649   3.317   4.977 -0.4778 -0.5064 -0.6464
   60RES   H19025088   4.477   3.358   5.024  0.7714 -1.6589 -0.4064
   60RES   C19125089   4.544   3.991   4.814 -0.1060  0.1689  0.5634
   60RES   C19225090   4.517   4.146   4.801 -0.3782  0.8081 -0.3946
   60RES   C19325091   4.415   4.200   4.910 -0.0684  0.2345  0.1072
   60RES   C19425092   4.263   4.155   4.896 -0.0416 -0.0890  0.6544
   60RES   C19525093   4.198   4.203   4.768 -0.0233 -0.0872  0.6133
   60RES   C19625094   4.054   4.175   4.762 -0.5479  0.3485 -0.1172
   60RES   C19725095   3.973   4.190   4.892  0.3617 -0.1706 -0.1121
   60RES   H19825096   4.645   3.959   4.787 -0.0675  0.1573  0.7201
   60RES   H19925097   4.535   3.963   4.919 -1.1129 -2.7727 -0.2596
   60RES   H20025098   4.467   4.161   4.705  0.3539 -1.3544 -1.1415
   60RES   H20125099   4.422   4.308   4.921  1.8321 -0.0212  1.6680
   60RES   H20225100   4.451   4.163   5.006  0.3749 -2.5526 -1.0614
   60RES   H20325101   4.210   4.211   4.974 -0.9889 -0.5268  0.3360
   60RES   H20425102   4.234   4.054   4.925 -0.3457 -0.0840  0.3682
   60RES   H20525103   4.218   4.310   4.772  1.7533 -0.3496 -0.6797
   60RES   H20625104   4.246   4.167   4.678 -0.3618  1.6539 -0.2836
   60RES   H20725105   4.040   4.079   4.713  2.2421 -0.1718  0.0085
   60RES   H20825106   4.006   4.252   4.700 -0.0717  0.8986  0.1908
   60RES   H20925107   3.987   4.288   4.937  0.5184  0.0805 -0.7181
   60RES   H21025108   4.015   4.132   4.975 -1.1174  0.2255  0.9339
   60RES   H21125109   3.871   4.153   4.876  0.8610 -0.5572 -2.4358
   60RES   C21225110   4.651   4.228   4.796 -0.0526 -0.4724 -0.6679
   60RES   C21325111   4.731   4.254   4.922 -0.9844  0.0490 -0.2736
   60RES   C21425112   4.875   4.200   4.922  0.4451 -0.2399 -0.1179
   60RES   C21525113   4.894   4.048   4.953  0.0380  0.0185 -0.5645
   60RES   C21625114   4.901   4.004   5.102 -0.2729 -0.4501 -0.0536
   60RES   C21725115   4.909   3.859   5.143  1.4219 -0.3131 -0.6162
   60RES   C21825116   4.794   3.770   5.103 -0.0823  0.1202 -0.4406
   60RES   H21925117   4.616   4.323   4.754 -1.9262 -1.6281 -1.8475
   60RES   H22025118   4.720   4.193   4.719  1.9661 -0.5458  1.1607
   60RES   H22125119   4.691   4.186   4.997  0.3462 -0.8116 -0.3278
   60RES   H22225120   4.923   4.223   4.827  1.2999  0.0231  0.3701
   60RES   H22325121   4.936   4.243   5.002 -1.3044  1.5662  0.2629
   60RES   H22425122   4.990   4.023   4.908 -0.7625 -0.1531 -2.2072
   60RES   H22525123   4.823   3.980   4.905 -0.7273  1.3089 -1.2936
   60RES   H22625124   4.988   4.062   5.133  1.0804 -2.7968  0.5872
   60RES   H22725125   4.807   4.049   5.135 -0.2267 -0.2074 -0.2502
   60RES   H22825126   5.001   3.826   5.093  1.3157  0.0157 -1.0354
   60RES   H22925127   4.927   3.856   5.250 -0.3859  1.1798 -0.2564
   60RES   H23025128   4.701   3.821   5.129 -0.5208 -0.1646 -1.4354
   60RES   H23125129   4.797   3.676   5.158 -1.2932 -0.5153 -1.4394
   60RES   H23225130   4.791   3.760   4.995  2.5711  0.2711 -0.5716
   60RES   C23325131   4.709   4.404   4.972 -1.2487 -0.0036 -0.4238
   60RES   C23425132   4.735   4.430   5.127 -0.1680 -0.2546 -0.4627
   60RES   C23525133   4.751   4.581   5.168  0.0714  0.7530  0.7980
   60RES   C23625134   4.853   4.667   5.086 -0.5375 -0.2411 -0.1692
   60RES   C23725135   4.992   4.605   5.082 -0.6266  0.0394  0.3666
   60RES   C23825136   5.071   4.697   4.998  0.0743 -0.2239 -0.5645
   60RES   C23925137   5.206   4.637   4.947 -0.1719  0.4909  0.5066
   60RES   H24025138   4.610   4.446   4.957 -0.2415  3.0815  1.2290
   60RES   H24125139   4.773   4.471   4.915 -1.8634  1.4613  0.5670
   60RES   H24225140   4.829   4.382   5.154  1.0705  1.4499 -1.6322
   60RES   H24325141   4.791   4.572   5.269 -1.0761  0.8861  1.2757
   60RES   H24425142   4.649   4.618   5.166 -0.5945 -1.1034 -0.7593
   60RES   H24525143   4.849   4.768   5.128 -1.3890 -0.9350  1.4584
   60RES   H24625144   4.825   4.674   4.981 -0.9389 -2.6757 -0.2482
   60RES   H24725145   4.987   4.502   5.049 -2.8223  0.0727  0.5269
   60RES   H24825146   5.026   4.603   5.185  2.1819  0.2859 -0.5210
   60RES   H24925147   5.011   4.711   4.908  1.9271  1.6645 -1.5545
   60RES   H25025148   5.078   4.797   5.042  0.4278 -0.8881  0.9379
   60RES   H25125149   5.178   4.559   4.876 -0.9623  0.8701  0.3985
   60RES   H25225150   5.269   4.706   4.891  0.3096  0.4680  1.0217
   60RES   H25325151   5.264   4.589   5.025  0.4268 -0.2324 -0.3671
   60RES   C25425152   4.629   4.363   5.223 -0.1896 -0.3539 -0.1269
   60RES   C25525153   4.662   4.329   5.371  0.0428  0.1374 -0.5451
   60RES   C25625154   4.761   4.209   5.366 -0.0613 -0.2377 -0.9484
   60RES   C25725155   4.833   4.190   5.496  0.4125  0.4889  0.2253
   60RES   C25825156   4.936   4.071   5.499  0.4258 -0.0048  0.4489
   60RES   C25925157   5.035   4.070   5.612  0.3609 -0.0136 -0.0725
   60RES   C26025158   5.121   3.942   5.596 -0.9349  1.0368  0.6287
   60RES   H26125159   4.582   4.278   5.173 -1.3044  0.0204  0.2651
   60RES   H26225160   4.541   4.427   5.223  1.8476  2.5038 -0.8785
   60RES   H26325161   4.716   4.411   5.420 -1.8269  1.1703 -0.1621
   60RES   H26425162   4.838   4.229   5.292  1.4457  2.5923  1.2708
   60RES   H26525163   4.703   4.123   5.331  0.3903 -0.3409 -1.4439
   60RES   H26625164   4.896   4.279   5.508  3.3055 -1.5668  0.8229
   60RES   H26725165   4.772   4.186   5.586  0.5408  1.4830  0.3703
   60RES   H26825166   4.982   4.073   5.401 -1.3331 -2.8160 -0.4985
   60RES   H26925167   4.874   3.981   5.504 -0.8577  0.8010 -0.6861
   60RES   H27025168   5.098   4.156   5.635 -0.2763  0.5895 -0.6141
   60RES   H27125169   4.985   4.059   5.708  1.4273 -1.0614  0.3843
   60RES   H27225170   5.143   3.922   5.491 -0.3594 -1.8669  1.2362
   60RES   H27325171   5.220   3.948   5.641 -1.0207  1.4732  0.7561
   60RES   H27425172   5.073   3.851   5.634 -0.6484  0.5940 -0.0602
   60RES   C27525173   4.543   4.301   5.462 -0.2316  0.5892  0.5682
   60RES   C27625174   4.463   4.424   5.497  0.3408 -0.2059 -0.4531
   60RES   C27725175   4.484   4.468   5.646 -0.4598 -0.4516 -0.0799
   60RES   C27825176   4.628   4.523   5.670  0.0585 -0.1211 -0.3724
   60RES   C27925177   4.645   4.563   5.820 -0.0306 -0.4367  0.6875
   60RES   C28025178   4.784   4.599   5.862 -0.3052 -1.2763  0.5327
   60RES   C28125179   4.820   4.749   5.852 -0.2206 -0.8243  0.9360
   60RES   H28225180   4.579   4.261   5.557  2.4584  0.2626 -0.5300
   60RES   H28325181   4.481   4.224   5.414  2.1714 -0.1521 -1.5003
   60RES   H28425182   4.465   4.512   5.433  0.6868  1.1017  1.2914
   60RES   H28525183   4.407   4.534   5.684  1.3393  1.6809 -0.0491
   60RES   H28625184   4.475   4.382   5.713 -0.9258  0.4404  1.0095
   60RES   H28725185   4.642   4.608   5.603  1.4311 -1.6967 -2.1297
   60RES   H28825186   4.694   4.442   5.639 -1.5144 -1.7977  0.6415
   60RES   H28925187   4.622   4.469   5.871  3.4114 -0.7799  1.6995
   60RES   H29025188   4.576   4.637   5.861  0.1162  0.7353 -1.1531
   60RES   H29125189   4.800   4.571   5.966  0.3737 -0.7943  0.5691
   60RES   H29225190   4.848   4.545   5.793 -2.4238 -2.7666 -0.2845
   60RES   H29325191   4.817   4.781   5.747 -0.1509 -1.1376  0.8398
   60RES   H29425192   4.920   4.768   5.891 -0.1663 -1.7459  1.2401
   60RES   H29525193   4.752   4.815   5.906 -2.1311 -2.4784  0.6211
   60RES   C29625194   4.314   4.382   5.483 -0.3533 -0.2247 -0.3637
   60RES   C29725195   4.263   4.367   5.340 -0.6629  0.2060  0.3800
   60RES   C29825196   4.242   4.506   5.273  0.0026  0.1715  0.2246
   60RES   C29925197   4.231   4.499   5.123  0.2522 -0.6931  0.5422
   60RES   C30025198   4.246   4.643   5.059 -0.0518 -0.5986  0.4594
   60RES   C30125199   4.387   4.706   5.053 -0.2616 -0.0259  0.6929
   60RES   C30225200   4.385   4.834   4.972 -0.3991  0.4747 -0.0668
   60RES   H30325201   4.303   4.289   5.539 -2.5380  1.1066  1.4980
   60RES   H30425202   4.250   4.450   5.539  0.9202  1.5602 -1.0338
   60RES   H30525203   4.340   4.315   5.282  1.3943  2.6322  0.8225
   60RES   H30625204   4.159   4.562   5.316 -1.4394  0.2345 -2.5359
   60RES   H30725205   4.331   4.565   5.293 -0.2080  1.1702 -1.6810
   60RES   H30825206   4.133   4.456   5.101 -1.4065  3.2073 -0.0628
   60RES   H30925207   4.302   4.432   5.075  0.6831 -1.5012  2.2678
   60RES   H31025208   4.180   4.715   5.108  0.9817 -0.2555  1.3624
   60RES   H31125209   4.206   4.648   4.958  0.7822  2.7551  0.2364
   60RES   H31225210   4.428   4.723   5.152 -1.0117 -0.9785  1.1742
   60RES   H31325211   4.461   4.634   5.018 -0.8654  0.1279 -0.9544
   60RES   H31425212   4.336   4.820   4.876  0.5473 -0.0071 -0.4957
   60RES   H31525213   4.329   4.908   5.029 -2.3024 -0.9178 -0.0709
   60RES   H31625214   4.487   4.873   4.967  1.1927 -3.3711  0.2547
   60RES   C31725215   4.147   4.270   5.341  0.1306 -0.2325  0.2708
   60RES   C31825216   4.194   4.128   5.383 -0.2351 -0.1338  0.0834
   60RES   C31925217   4.085   4.059   5.465  0.2985 -0.0648 -0.2685
   60RES   C32025218   4.056   4.131   5.598  0.1680 -0.3104  0.6475
   60RES   C32125219   3.963   4.040   5.687  0.4730  0.4514 -0.0588
   60RES   C32225220   4.034   3.934   5.770 -0.0565 -0.1347 -0.2646
   60RES   C32325221   3.967   3.795   5.781 -0.1198 -0.1136  0.4502
   60RES   H32425222   4.106   4.266   5.240  0.6543  1.2035 -0.0026
   60RES   H32525223   4.064   4.319   5.391 -0.6134  0.5271 -1.6695
   60RES   H32625224   4.292   4.127   5.431  0.3242  1.9677 -0.9393
   60RES   H32725225   4.130   3.964   5.495 -1.7870 -0.7890  0.6362
   60RES   H32825226   3.994   4.040   5.409  0.0408  1.3097 -0.3331
   60RES   H32925227   4.025   4.234   5.584  1.4187 -0.3326 -2.8239
   60RES   H33025228   4.154   4.129   5.647  0.5250 -3.7456 -0.0453
   60RES   H33125229   3.893   3.991   5.619  1.4313 -3.4375  1.6058
   60RES   H33225230   3.910   4.099   5.761  0.4158 -0.0186  0.2812
   60RES   H33325231   4.057   3.982   5.865 -0.1919 -2.0865  0.7806
   60RES   H33425232   4.126   3.907   5.718 -0.3442 -0.8620 -0.4000
   60RES   H33525233   3.930   3.767   5.683 -0.6909 -0.7439  0.8409
   60RES   H33625234   3.879   3.799   5.845 -0.8662  0.0193 -0.5821
   60RES   H33725235   4.037   3.725   5.827  0.2062  0.2216  0.4595
   60RES   C33825236   4.225   4.047   5.253  0.1805 -0.2176 -0.2969
   60RES   C33925237   4.289   3.909   5.266 -0.9174 -0.0762  0.1554
   60RES   C34025238   4.433   3.917   5.326  0.6434  0.2839 -0.2175
   60RES   C34125239   4.494   3.781   5.364 -1.2439 -0.3001  0.3406
   60RES   C34225240   4.610   3.805   5.463 -0.1086  0.1734  0.6705
   60RES   C34325241   4.689   3.673   5.484  0.2277  0.7772 -0.6346
   60RES   C34425242   4.829   3.694   5.537 -0.4869  0.1642 -0.5203
   60RES   H34525243   4.277   4.111   5.182 -0.8702  1.6367  0.5817
   60RES   H34625244   4.128   4.041   5.202  0.0423  1.3613 -0.2237
   60RES   H34725245   4.231   3.852   5.339 -1.4981  1.4425  0.8866
   60RES   H34825246   4.497   3.976   5.261 -0.8751  1.7084 -0.4459
   60RES   H34925247   4.423   3.964   5.424  0.4614 -2.0888  0.9511
   60RES   H35025248   4.532   3.728   5.276  0.4992  1.8420 -0.2734
   60RES   H35125249   4.416   3.726   5.416 -1.1384 -2.0304 -1.2792
   60RES   H35225250   4.668   3.881   5.412  0.0718 -0.7965 -0.6073
   60RES   H35325251   4.579   3.835   5.563  0.0593  2.7522 -0.0200
   60RES   H35425252   4.623   3.607   5.540 -0.4418  1.9109 -0.0845
   60RES   H35525253   4.707   3.627   5.387  1.7335 -1.6569  0.7312
   60RES   H35625254   4.878   3.597   5.544 -0.3345  0.2596 -0.2544
   60RES   H35725255   4.819   3.739   5.635  2.1612  1.3003 -0.7321
   60RES   H35825256   4.897   3.762   5.485  1.7364 -0.7758  1.0531
   60RES   C35925257   4.283   3.829   5.124 -0.0377 -0.2286 -0.2384
   60RES   C36025258   4.159   3.749   5.106 -0.2184  1.0755 -0.1211
   60RES   C36125259   4.108   3.745   4.957 -0.4441 -0.4107 -0.5357
   60RES   C36225260   3.954   3.721   4.945  0.3130 -0.8513  0.4486
   60RES   C36325261   3.900   3.762   4.806 -0.3421 -0.2388  0.5198
   60RES   C36425262   3.748   3.756   4.786 -0.0463  0.6764 -0.4712
   60RES   C36525263   3.723   3.838   4.661 -0.3327  0.1122  0.3806
   60RES   H36625264   4.368   3.763   5.112 -0.5136 -0.5724 -1.9374
   60RES   H36725265   4.288   3.896   5.038 -0.3075  1.1191  0.7785
   60RES   H36825266   4.078   3.797   5.162  0.5492  2.8007 -0.4502
   60RES   H36925267   4.140   3.837   4.909  0.8041 -0.7532 -0.3690
   60RES   H37025268   4.172   3.672   4.907  1.5386  0.1181  1.1771
   60RES   H37125269   3.923   3.617   4.959 -3.0045 -0.0523 -0.5677
   60RES   H37225270   3.905   3.778   5.024  2.0430  0.5431  0.5253
   60RES   H37325271   3.935   3.865   4.799  1.7486 -0.8846  1.1290
   60RES   H37425272   3.948   3.709   4.724  0.4791 -2.3023  2.3062
   60RES   H37525273   3.700   3.658   4.783  0.1297  0.4635  2.4470
   60RES   H37625274   3.695   3.805   4.867 -1.0279  0.8761 -1.2155
   60RES   H37725275   3.746   3.777   4.573  4.5807  2.5326 -0.1563
   60RES   H37825276   3.619   3.869   4.651  0.3289  2.2199 -0.0791
   60RES   H37925277   3.792   3.919   4.640 -1.0965  0.2164 -1.8684
   60RES   C38025278   4.174   3.600   5.163 -0.3256  0.2499  0.4399
   60RES   C38125279   4.168   3.577   5.313  0.5967 -0.1774 -0.8859
   60RES   C38225280   4.029   3.612   5.374 -0.1175  0.3355 -0.3367
   60RES   C38325281   3.906   3.546   5.303 -0.7256  0.4039  0.7636
   60RES   C38425282   3.774   3.554   5.381  0.0038 -0.4146 -0.0999
   60RES   C38525283   3.708   3.696   5.379  0.3342 -0.1724  0.8831
   60RES   C38625284   3.579   3.697   5.461  0.1663 -0.0855  0.0467
   60RES   H38725285   4.101   3.540   5.110 -2.3048  0.9704  2.3090
   60RES   H38825286   4.269   3.563   5.125 -0.8612  0.2215 -0.8755
   60RES   H38925287   4.228   3.650   5.368 -2.3967 -1.0308  3.8011
   60RES   H39025288   4.019   3.720   5.380 -0.0314  0.3691 -0.7775
   60RES   H39125289   4.031   3.584   5.480  0.2338 -0.0501 -0.4417
   60RES   H39225290   3.894   3.570   5.197 -1.2891  0.5033  0.8465
   60RES   H39325291   3.926   3.438   5.300  0.4027  0.6612 -3.0562
   60RES   H39425292   3.700   3.483   5.343 -1.7820  0.7166  1.2151
   60RES   H39525293   3.790   3.527   5.485  0.7572  0.7310  0.0873
   60RES   H39625294   3.694   3.725   5.274  2.2098 -2.3220 -0.0180
   60RES   H39725295   3.777   3.768   5.421  0.8974  0.7501 -1.5301
   60RES   H39825296   3.528   3.793   5.456 -0.2592 -0.1466  2.6670
   60RES   H39925297   3.602   3.684   5.567  3.0867  1.8073 -0.3080
   60RES   H40025298   3.510   3.625   5.416 -1.0244  0.4748  0.9203
   60RES   C40125299   4.211   3.429   5.353  0.7960 -0.1897  0.1910
   60RES   C40225300   4.358   3.404   5.345  0.2333  0.0651  0.6306
   60RES   C40325301   4.391   3.265   5.401  0.0206  0.7321 -0.6273
   60RES   C40425302   4.525   3.208   5.354  0.0254 -0.1292  0.7686
   60RES   C40525303   4.575   3.081   5.437  0.6651 -0.0039  0.0601
   60RES   C40625304   4.683   3.010   5.361 -0.5869  0.0701 -0.8530
   60RES   C40725305   4.716   2.872   5.419  0.2590  0.0301 -0.2038
   60RES   H40825306   4.144   3.364   5.296  0.3887  2.8419 -2.9406
   60RES   H40925307   4.182   3.419   5.457  0.2521 -0.9606 -0.0343
   60RES   H41025308   4.416   3.483   5.392  0.0823  1.3752 -1.3052
   60RES   H41125309   4.314   3.200   5.358  0.8219  0.5085 -1.7615
   60RES   H41225310   4.390   3.266   5.510  1.7882  0.4864 -0.5974
   60RES   H41325311   4.603   3.283   5.372 -1.8962  1.6124  2.0058
   60RES   H41425312   4.520   3.182   5.248 -0.3280  1.8164  0.2806
   60RES   H41525313   4.603   3.112   5.538  0.7340 -0.8666  0.3174
   60RES   H41625314   4.492   3.011   5.445  0.1317  0.3893 -1.8554
   60RES   H41725315   4.658   2.990   5.256  2.2231 -3.2837 -0.9774
   60RES   H41825316   4.764   3.083   5.350 -0.7794  0.6817  1.4973
   60RES   H41925317   4.712   2.875   5.528  0.2695 -1.2840 -0.1657
   60RES   H42025318   4.820   2.847   5.397 -0.2928 -0.6079 -2.2345
   60RES   H42125319   4.646   2.793   5.391 -0.1925  0.1327  0.6304
   60RES   H42225320   4.374   3.401   5.237 -0.7357  1.1285  0.4305
   61RES     C125321   6.011   3.610   4.174  0.3401  0.7819 -0.8106
   61RES     C225322   6.097   3.486   4.176  0.0160  0.3107  0.3371
   61RES     C325323   6.236   3.526   4.118  0.8342 -0.5801 -0.7864
   61RES     C425324   6.323   3.639   4.184  0.0855 -0.4925 -0.0130
   61RES     C525325   6.458   3.673   4.107 -0.2793 -0.2150  0.3541
   61RES     C625326   6.504   3.819   4.133 -0.0913  0.5098 -0.0026
   61RES     C725327   6.629   3.861   4.054  0.1345  0.4069  0.0921
   61RES     H825328   5.991   3.644   4.073 -0.5141  0.2839 -0.8196
   61RES     H925329   6.045   3.695   4.233  1.1446 -0.4365  0.5259
   61RES    H1025330   6.116   3.449   4.277  1.5094  0.9613  0.3044
   61RES    H1125331   6.298   3.436   4.118  0.8592 -0.5649 -0.0971
   61RES    H1225332   6.225   3.557   4.014  1.3284  2.3079 -0.0041
   61RES    H1325333   6.252   3.721   4.176  0.3383 -0.2348  0.3552
   61RES    H1425334   6.347   3.628   4.290  0.2615  0.1951  0.0161
   61RES    H1525335   6.442   3.663   3.999  1.6893 -0.0500  0.0379
   61RES    H1625336   6.532   3.603   4.145 -0.6208 -1.2410 -0.8333
   61RES    H1725337   6.518   3.843   4.239 -0.1008  0.0223  0.1110
   61RES    H1825338   6.420   3.883   4.106  1.1387  2.2459  0.1833
   61RES    H1925339   6.619   3.850   3.946  0.1176  0.5117  0.0827
   61RES    H2025340   6.721   3.806   4.071 -0.3147 -0.5515 -0.5249
   61RES    H2125341   6.651   3.966   4.072 -1.1741  0.4197  1.7568
   61RES    H2225342   5.916   3.586   4.223  0.9454  0.7560  0.3767
   61RES    C2325343   6.030   3.392   4.081  0.1634  0.0318 -0.2423
   61RES    C2425344   6.069   3.245   4.109 -0.2317 -0.6755 -0.0383
   61RES    C2525345   6.093   3.170   3.976 -0.5696 -0.2200 -0.2112
   61RES    C2625346   6.196   3.232   3.878  0.0133 -0.1134 -0.2661
   61RES    C2725347   6.209   3.175   3.738 -0.1065  0.7763 -0.1115
   61RES    C2825348   6.339   3.224   3.687 -0.1540 -0.5237 -0.1704
   61RES    C2925349   6.355   3.186   3.536 -0.0276 -0.0574 -0.4479
   61RES    H3025350   5.922   3.394   4.095  0.1206  2.7533 -0.5649
   61RES    H3125351   6.030   3.422   3.976  1.2888  1.5702  0.1898
   61RES    H3225352   6.168   3.233   4.154 -0.2122  0.5127  0.2469
   61RES    H3325353   6.007   3.169   3.910 -1.1379  0.5578  0.5110
   61RES    H3425354   6.122   3.066   3.988 -0.8563 -0.2386  0.3114
   61RES    H3525355   6.294   3.232   3.927 -0.6809  1.3200  1.1547
   61RES    H3625356   6.174   3.336   3.856 -2.7593 -0.4232  0.8698
   61RES    H3725357   6.126   3.207   3.674  1.3779  1.6319 -1.6492
   61RES    H3825358   6.225   3.067   3.749  2.4183  0.8827 -2.2236
   61RES    H3925359   6.419   3.185   3.750  0.4629  0.3022 -0.4410
   61RES    H4025360   6.358   3.331   3.689 -0.3845 -0.4663 -1.0160
   61RES    H4125361   6.379   3.080   3.526 -0.8193 -0.4606  1.6105
   61RES    H4225362   6.260   3.190   3.484 -0.5515 -0.6960  0.4446
   61RES    H4325363   6.422   3.246   3.475 -1.2211  3.0407  1.1889
   61RES    C4425364   5.967   3.175   4.203 -0.2819 -0.6012 -0.2466
   61RES    C4525365   6.031   3.047   4.285 -0.1366  0.2821 -0.0808
   61RES    C4625366   6.153   3.092   4.370  0.4867 -0.0373  1.0414
   61RES    C4725367   6.290   3.021   4.343  0.2769 -0.5278  0.2960
   61RES    C4825368   6.279   2.868   4.361 -0.1828 -0.1283 -0.3938
   61RES    C4925369   6.405   2.785   4.334 -0.2954 -0.1547  0.1255
   61RES    C5025370   6.530   2.865   4.390 -0.3437 -0.2955  0.3434
   61RES    H5125371   5.886   3.132   4.145  0.1268  1.1498 -2.1865
   61RES    H5225372   5.927   3.251   4.271 -3.3196 -0.4854 -2.0928
   61RES    H5325373   6.068   2.982   4.206  0.0971  0.1917  0.1024
   61RES    H5425374   6.128   3.096   4.476 -0.2523  2.7327  0.8071
   61RES    H5525375   6.167   3.199   4.354 -0.3678 -0.0375  0.2716
   61RES    H5625376   6.332   3.041   4.244  0.6228  0.5159  0.6503
   61RES    H5725377   6.358   3.072   4.411  2.9475 -1.7104 -1.4195
   61RES    H5825378   6.198   2.833   4.297  0.4201 -0.4170 -1.0060
   61RES    H5925379   6.249   2.862   4.466 -3.1787  2.1141 -1.0694
   61RES    H6025380   6.419   2.779   4.226 -1.2892  1.3951 -0.1210
   61RES    H6125381   6.391   2.684   4.370  1.9165 -1.5510 -2.6787
   61RES    H6225382   6.621   2.806   4.388 -0.3708 -0.4071  2.0933
   61RES    H6325383   6.522   2.886   4.496  2.2623 -0.7461  0.6615
   61RES    H6425384   6.547   2.951   4.326  2.2613 -0.4084  0.8252
   61RES    C6525385   5.932   2.973   4.371 -0.2570 -0.3381  0.9648
   61RES    C6625386   5.824   2.882   4.299 -0.9837  0.0126 -0.7111
   61RES    C6725387   5.734   2.848   4.416 -0.2059  0.3205  0.1667
   61RES    C6825388   5.629   2.746   4.375  0.1478 -0.3164 -0.3902
   61RES    C6925389   5.545   2.710   4.499  0.0774 -0.9159 -0.2809
   61RES    C7025390   5.433   2.613   4.477  0.6249  0.1846  0.4549
   61RES    C7125391   5.365   2.585   4.618 -0.1103  0.4212  0.6736
   61RES    H7225392   5.996   2.917   4.439  0.3465 -0.1643  0.5453
   61RES    H7325393   5.894   3.051   4.437  1.9656  2.0436 -0.4368
   61RES    H7425394   5.773   2.952   4.233  0.8869  0.8069 -1.3720
   61RES    H7525395   5.792   2.809   4.500 -1.8738  0.8238  1.5800
   61RES    H7625396   5.693   2.944   4.447 -0.6507  1.0166 -2.5167
   61RES    H7725397   5.571   2.791   4.294 -0.7952  2.1394  1.5807
   61RES    H7825398   5.662   2.648   4.341 -1.0904 -1.1813  0.8849
   61RES    H7925399   5.600   2.691   4.590 -0.0025 -2.6472 -0.5837
   61RES    H8025400   5.505   2.807   4.528 -1.1513 -0.7650 -2.3222
   61RES    H8125401   5.467   2.520   4.431 -0.6436 -0.4554  0.7651
   61RES    H8225402   5.355   2.649   4.410 -0.6232 -2.3214  0.4653
   61RES    H8325403   5.445   2.546   4.681  1.9781  1.9620 -0.9429
   61RES    H8425404   5.334   2.670   4.678 -1.3865  0.1756  0.3878
   61RES    H8525405   5.292   2.504   4.608  1.0366 -0.5494  0.1045
   61RES    C8625406   5.876   2.759   4.218 -0.2276 -0.2147 -0.2432
   61RES    C8725407   5.806   2.721   4.086 -0.0641  0.1432 -0.6955
   61RES    C8825408   5.837   2.836   3.990 -0.0459 -0.1592  0.8427
   61RES    C8925409   5.762   2.833   3.850  0.5235  0.0719 -0.4808
   61RES    C9025410   5.761   2.965   3.766 -0.0541  0.2214  0.4857
   61RES    C9125411   5.696   2.942   3.628 -0.1266  0.2815 -0.7014
   61RES    C9225412   5.795   2.881   3.527 -0.0396 -0.6134 -0.1967
   61RES    H9325413   5.979   2.788   4.196  0.7271 -1.4538  2.4928
   61RES    H9425414   5.885   2.679   4.291 -3.9877  0.6336  1.2430
   61RES    H9525415   5.699   2.726   4.104  0.4759  0.7071  2.8748
   61RES    H9625416   5.821   2.937   4.028  0.2601 -0.2522  1.2264
   61RES    H9725417   5.942   2.839   3.959 -1.1366  2.9072 -2.8786
   61RES    H9825418   5.799   2.747   3.795  1.4458 -0.0072  0.2492
   61RES    H9925419   5.659   2.813   3.880  1.4574 -0.4270  2.6251
   61RES   H10025420   5.856   3.019   3.757  0.1292 -0.5801 -3.5710
   61RES   H10125421   5.701   3.037   3.821  0.7856  0.3151  1.2898
   61RES   H10225422   5.602   2.887   3.637  0.9039 -1.5373 -0.7618
   61RES   H10325423   5.674   3.040   3.586 -2.4522 -0.3243 -0.9382
   61RES   H10425424   5.770   2.905   3.424 -0.2407 -1.5098 -0.3648
   61RES   H10525425   5.785   2.772   3.522  1.4921 -0.7643 -0.1638
   61RES   H10625426   5.898   2.906   3.552 -0.0422  0.5295 -1.2796
   61RES   C10725427   5.848   2.585   4.033  0.4629 -0.3270  0.0253
   61RES   C10825428   5.829   2.464   4.116  0.3583  0.0865 -0.3512
   61RES   C10925429   5.682   2.410   4.133 -0.0126  0.6173  0.4429
   61RES   C11025430   5.646   2.313   4.254 -1.0393 -0.0474  0.2272
   61RES   C11125431   5.500   2.251   4.258 -0.5675 -0.3396  0.5985
   61RES   C11225432   5.479   2.148   4.366  0.4081 -0.6476 -0.4401
   61RES   C11325433   5.333   2.092   4.366 -0.2927  0.4447  0.4828
   61RES   H11425434   5.949   2.588   3.990  0.6410  1.3151  0.5182
   61RES   H11525435   5.797   2.574   3.937  0.0383 -0.2702  0.2471
   61RES   H11625436   5.875   2.483   4.213 -0.0838 -0.2897 -0.0639
   61RES   H11725437   5.643   2.371   4.038 -0.1243 -1.7514  1.4328
   61RES   H11825438   5.624   2.501   4.150  0.3304  1.4141 -2.3576
   61RES   H11925439   5.722   2.235   4.248 -1.1277 -0.2776  1.9498
   61RES   H12025440   5.665   2.363   4.349  1.1487 -0.3422 -0.0148
   61RES   H12125441   5.475   2.204   4.163 -0.5476  3.1360 -1.2078
   61RES   H12225442   5.428   2.332   4.270  0.1555  0.0158  2.8565
   61RES   H12325443   5.557   2.072   4.361  0.8794 -0.2395  0.4077
   61RES   H12425444   5.477   2.211   4.456 -0.8231 -2.1484  0.6037
   61RES   H12525445   5.305   2.028   4.449  2.6765 -1.3795  0.1692
   61RES   H12625446   5.259   2.172   4.364 -0.7344 -0.0017 -1.3106
   61RES   H12725447   5.325   2.046   4.268 -0.4243  3.8399 -1.1747
   61RES   C12825448   5.914   2.351   4.062  0.1716 -0.8660  0.2882
   61RES   C12925449   6.057   2.334   4.117 -0.2428  0.2387  0.1580
   61RES   C13025450   6.143   2.248   4.013 -0.2200 -0.1101 -0.2539
   61RES   C13125451   6.088   2.114   3.950 -0.2927 -0.2792  0.7236
   61RES   C13225452   6.204   2.026   3.894  0.5434  0.2053  0.1856
   61RES   C13325453   6.169   1.883   3.858  0.2213  0.2465  0.1226
   61RES   C13425454   6.077   1.863   3.736  0.3080 -0.7148  0.5694
   61RES   H13525455   5.860   2.259   4.085  0.7925 -1.3456 -0.1935
   61RES   H13625456   5.920   2.373   3.955 -2.8034 -1.9777 -0.1550
   61RES   H13725457   6.092   2.437   4.128 -2.5377  0.9626  0.9328
   61RES   H13825458   6.241   2.218   4.050 -0.7044 -1.1243  0.1929
   61RES   H13925459   6.174   2.308   3.926  1.1248 -0.1056  0.2173
   61RES   H14025460   6.006   2.140   3.883  2.3615  2.6413 -1.4774
   61RES   H14125461   6.039   2.053   4.026  1.3427 -2.2714  0.2497
   61RES   H14225462   6.286   2.022   3.966  1.2297 -1.6271 -0.6760
   61RES   H14325463   6.246   2.076   3.806 -0.0025  1.0601  0.4016
   61RES   H14425464   6.119   1.826   3.937  1.9130 -0.3579  0.7731
   61RES   H14525465   6.264   1.836   3.835  0.2591 -0.4171  1.5599
   61RES   H14625466   6.065   1.757   3.711 -3.0493 -0.8852  2.6073
   61RES   H14725467   6.110   1.929   3.656  0.3212  0.7790  1.7774
   61RES   H14825468   5.978   1.901   3.761 -0.0575 -1.1692 -0.1548
   61RES   C14925469   6.052   2.283   4.259 -0.8889 -0.8199 -0.3268
   61RES   C15025470   6.144   2.336   4.369  0.1760  0.2767  0.0668
   61RES   C15125471   6.099   2.479   4.410 -0.5651 -0.2956  0.6155
   61RES   C15225472   6.132   2.533   4.552  0.6373  0.2662  0.2760
   61RES   C15325473   6.051   2.659   4.575  0.6475  0.1014 -0.3712
   61RES   C15425474   6.103   2.738   4.697  0.2667  0.6357  0.4963
   61RES   C15525475   6.005   2.839   4.759  0.6096 -0.2481 -0.5075
   61RES   H15625476   5.950   2.289   4.297  0.2261 -3.0235  3.2494
   61RES   H15725477   6.064   2.175   4.248  3.5354 -0.2214 -2.5621
   61RES   H15825478   6.114   2.278   4.457 -0.4896 -0.6556 -0.7626
   61RES   H15925479   6.138   2.544   4.332 -1.5317 -1.4866 -0.8956
   61RES   H16025480   5.991   2.462   4.412 -0.9483  2.0494  1.3096
   61RES   H16125481   6.234   2.548   4.588  0.0030 -0.1988  2.3204
   61RES   H16225482   6.110   2.457   4.627 -0.8987  0.2674 -0.1597
   61RES   H16325483   5.943   2.649   4.576  0.5408  1.0507 -1.1306
   61RES   H16425484   6.070   2.725   4.490  1.4349 -0.0659 -0.3349
   61RES   H16525485   6.192   2.792   4.664  0.3354 -0.0558 -0.4554
   61RES   H16625486   6.129   2.671   4.779 -1.3996 -0.6056  0.0364
   61RES   H16725487   6.042   2.886   4.850 -0.8603 -1.6674  0.8394
   61RES   H16825488   5.922   2.779   4.794  0.8225 -0.6221 -0.6405
   61RES   H16925489   5.969   2.909   4.683 -2.4803 -1.1627  0.0523
   61RES   C17025490   6.295   2.322   4.335  0.6239  0.5630 -0.1385
   61RES   C17125491   6.391   2.292   4.455 -0.4434 -0.0878 -0.0387
   61RES   C17225492   6.384   2.140   4.501 -0.5899  0.1976  0.2311
   61RES   C17325493   6.305   2.117   4.631  0.2594 -0.5248 -0.9631
   61RES   C17425494   6.321   1.976   4.690 -0.1921 -0.2549  0.4429
   61RES   C17525495   6.467   1.954   4.748  0.2894  0.4880  0.8029
   61RES   C17625496   6.477   2.061   4.857  0.1179  1.0443  0.4058
   61RES   H17725497   6.318   2.412   4.277  1.8512  0.5638  0.3234
   61RES   H17825498   6.305   2.233   4.274  1.0940 -0.6375  1.6590
   61RES   H17925499   6.370   2.351   4.544  2.3884 -2.0641  2.0253
   61RES   H18025500   6.482   2.102   4.529 -1.3120 -0.7351  1.5301
   61RES   H18125501   6.349   2.074   4.422 -3.7747  1.9618  0.0618
   61RES   H18225502   6.200   2.136   4.608  0.2842  1.5056  0.4369
   61RES   H18325503   6.327   2.194   4.705 -1.8317 -0.5354 -0.2858
   61RES   H18425504   6.277   1.904   4.622 -1.6806 -1.0475  2.1911
   61RES   H18525505   6.247   1.953   4.768  1.1571 -1.4112  1.4087
   61RES   H18625506   6.550   1.959   4.678 -1.4020 -0.3550 -1.3357
   61RES   H18725507   6.455   1.857   4.797 -2.5573  1.8058  2.8682
   61RES   H18825508   6.380   2.088   4.898 -1.3540  0.5418 -2.6371
   61RES   H18925509   6.528   2.146   4.812 -1.4723  0.6625 -2.2442
   61RES   H19025510   6.541   2.026   4.938 -1.0506  0.2682  1.0150
   61RES   C19125511   6.530   2.333   4.409  0.0552  0.0993  0.2800
   61RES   C19225512   6.622   2.339   4.544  0.6009 -0.5837  0.7774
   61RES   C19325513   6.767   2.289   4.518 -0.3821 -0.3903  0.0803
   61RES   C19425514   6.781   2.140   4.556  0.3692  0.1409  0.8380
   61RES   C19525515   6.931   2.101   4.538  0.0446 -0.4816  0.2638
   61RES   C19625516   6.960   1.960   4.598 -0.1839  0.3833  0.3126
   61RES   C19725517   7.107   1.935   4.608  0.3801  0.5324  0.1167
   61RES   H19825518   6.520   2.430   4.360 -1.5663 -0.8705 -1.3926
   61RES   H19925519   6.566   2.265   4.331  1.1449  1.0336 -0.0386
   61RES   H20025520   6.592   2.282   4.632  0.9880 -1.0409  0.6158
   61RES   H20125521   6.840   2.344   4.578 -0.5665 -0.7836  0.6789
   61RES   H20225522   6.793   2.314   4.415 -0.3310 -0.6831  0.0227
   61RES   H20325523   6.717   2.077   4.495 -0.7963  1.4969  0.6348
   61RES   H20425524   6.762   2.127   4.663 -0.3527 -1.8618  0.4969
   61RES   H20525525   6.977   2.115   4.440 -1.5850 -0.8097 -0.5605
   61RES   H20625526   6.997   2.165   4.596  0.6533  0.3347 -1.2777
   61RES   H20725527   6.919   1.870   4.552  0.3607  0.2597  0.0678
   61RES   H20825528   6.932   1.960   4.704  2.0266 -1.0822  0.9272
   61RES   H20925529   7.143   1.851   4.668  1.2634  0.8563  0.0547
   61RES   H21025530   7.161   2.021   4.648 -1.6228  1.2800  1.2467
   61RES   H21125531   7.145   1.916   4.508  0.0221 -3.5134  0.6464
   61RES   C21225532   6.616   2.483   4.584  0.1869  0.0816 -0.1877
   61RES   C21325533   6.633   2.504   4.734  0.9577 -0.0961  0.5545
   61RES   C21425534   6.709   2.634   4.759 -0.3995 -0.3998  0.0808
   61RES   C21525535   6.861   2.633   4.713  0.1699 -0.0379  0.2501
   61RES   C21625536   6.932   2.739   4.785  0.0487 -0.2897  0.0074
   61RES   C21725537   6.898   2.878   4.743 -0.1889  0.2071 -0.1339
   61RES   C21825538   6.980   2.990   4.807  0.5677  0.1924  0.2371
   61RES   H21925539   6.522   2.529   4.557 -1.1784 -2.0402  0.7980
   61RES   H22025540   6.700   2.527   4.531  0.6182  1.1667  1.3550
   61RES   H22125541   6.690   2.417   4.765 -0.0675  0.3310  3.8681
   61RES   H22225542   6.648   2.714   4.718  0.9957  1.7475  2.0802
   61RES   H22325543   6.712   2.639   4.868  1.1920 -0.2450  0.0280
   61RES   H22425544   6.858   2.663   4.608  0.1961 -0.3238  0.1683
   61RES   H22525545   6.909   2.536   4.715 -0.6053 -0.4583 -0.9165
   61RES   H22625546   6.902   2.728   4.890 -1.1955 -0.1977 -0.3256
   61RES   H22725547   7.037   2.711   4.775 -0.2285 -0.8048 -1.6374
   61RES   H22825548   6.918   2.880   4.636 -1.8242 -0.0502 -0.4597
   61RES   H22925549   6.792   2.893   4.764  0.1468 -0.5536  2.1982
   61RES   H23025550   6.944   3.083   4.762  0.2128  0.9569  2.0679
   61RES   H23125551   7.087   2.984   4.787  0.2966  0.9183 -1.5281
   61RES   H23225552   6.958   2.996   4.914  2.9161 -3.3229  0.9756
   61RES   C23325553   6.490   2.509   4.811 -0.2218  0.2687  0.1925
   61RES   C23425554   6.481   2.509   4.967 -0.5915 -0.3282 -0.5754
   61RES   C23525555   6.340   2.510   5.029  0.5922  0.8242 -0.2482
   61RES   C23625556   6.245   2.407   4.971 -0.0592  0.0410 -0.2986
   61RES   C23725557   6.108   2.413   5.040  0.8376 -0.9353 -0.8902
   61RES   C23825558   6.002   2.308   4.987 -0.3000  0.1543  0.8187
   61RES   C23925559   5.873   2.324   5.049 -0.0341 -0.2695  0.1680
   61RES   H24025560   6.431   2.428   4.769  0.3031 -0.7715  1.4171
   61RES   H24125561   6.427   2.587   4.769  1.1240 -0.2464 -2.8977
   61RES   H24225562   6.531   2.598   5.004 -1.1846  0.1880 -1.0081
   61RES   H24325563   6.300   2.612   5.026  0.9341  1.0231  1.7459
   61RES   H24425564   6.343   2.510   5.138 -0.0045 -0.4717 -0.2216
   61RES   H24525565   6.282   2.308   4.997  0.7860  0.3698 -0.2096
   61RES   H24625566   6.241   2.404   4.862 -0.5588  0.9114 -0.3069
   61RES   H24725567   6.065   2.512   5.022  0.5380 -0.8259  0.3541
   61RES   H24825568   6.116   2.406   5.148 -0.3126 -0.4315 -0.7550
   61RES   H24925569   5.991   2.326   4.880  1.9491 -0.4446  0.4530
   61RES   H25025570   6.046   2.210   5.008 -0.5862  0.1161  1.2440
   61RES   H25125571   5.802   2.251   5.009  0.8347 -0.6756 -0.6322
   61RES   H25225572   5.871   2.315   5.158  0.3692  0.7030  0.2573
   61RES   H25325573   5.838   2.427   5.038 -0.0233  0.1623  3.5357
   61RES   C25425574   6.557   2.376   5.014  0.4165  0.1431  0.4513
   61RES   C25525575   6.606   2.398   5.164 -0.7563 -0.2405 -0.1135
   61RES   C25625576   6.726   2.496   5.160 -0.2860 -0.2430 -0.3065
   61RES   C25725577   6.703   2.626   5.246 -0.0214 -0.2841 -0.3757
   61RES   C25825578   6.806   2.737   5.242 -0.3220  0.0428  0.0149
   61RES   C25925579   6.805   2.829   5.366  0.2449 -0.8049 -0.5105
   61RES   C26025580   6.878   2.965   5.346 -0.0007 -0.4097  0.2350
   61RES   H26125581   6.644   2.355   4.952  0.8125  3.9183 -0.3883
   61RES   H26225582   6.488   2.292   5.011  1.4988 -0.7327  0.0967
   61RES   H26325583   6.522   2.439   5.221 -0.1587  0.5810  0.1880
   61RES   H26425584   6.738   2.532   5.057 -2.1170 -0.7369 -0.7215
   61RES   H26525585   6.824   2.459   5.190  0.2368  1.6554  0.3875
   61RES   H26625586   6.609   2.679   5.233  0.2636  0.7285  1.4946
   61RES   H26725587   6.699   2.585   5.347  1.8630 -1.6640 -0.8361
   61RES   H26825588   6.799   2.796   5.150 -1.4883  1.5842  1.0445
   61RES   H26925589   6.903   2.689   5.244  0.7571  2.1759  3.7812
   61RES   H27025590   6.701   2.856   5.384 -0.4612 -0.8528 -4.1464
   61RES   H27125591   6.845   2.774   5.451  1.1178 -1.6032 -1.4133
   61RES   H27225592   6.864   3.032   5.430  2.3707 -0.8674  1.0236
   61RES   H27325593   6.982   2.943   5.326  0.4582  3.5592 -2.3997
   61RES   H27425594   6.831   3.015   5.260 -0.1507  1.0752  1.1696
   61RES   C27525595   6.646   2.265   5.228 -0.5213  0.3436  0.0114
   61RES   C27625596   6.685   2.258   5.374 -0.3127  0.4739 -0.8636
   61RES   C27725597   6.743   2.116   5.412 -0.4712  0.8048  0.4394
   61RES   C27825598   6.902   2.102   5.399  0.2853 -0.6348  0.0710
   61RES   C27925599   6.986   2.190   5.495  0.6051  0.0657 -0.1396
   61RES   C28025600   7.138   2.157   5.478  0.6076 -0.1154  0.3866
   61RES   C28125601   7.221   2.271   5.536  0.5222 -0.0184  0.4549
   61RES   H28225602   6.729   2.235   5.164  0.0684 -0.4990  1.1411
   61RES   H28325603   6.568   2.190   5.212 -1.2935  1.6014 -2.3109
   61RES   H28425604   6.770   2.324   5.392 -1.8405  3.4503 -4.1013
   61RES   H28525605   6.712   2.094   5.514 -2.9179  2.3863  0.0824
   61RES   H28625606   6.688   2.040   5.356 -1.5924  1.4503  0.6450
   61RES   H28725607   6.935   2.118   5.296 -0.8316  2.9938  0.2106
   61RES   H28825608   6.932   1.998   5.408 -0.6949 -0.8342  1.1581
   61RES   H28925609   6.954   2.183   5.599 -0.2282  0.2150 -0.3804
   61RES   H29025610   6.973   2.295   5.466  0.4069 -0.4843 -2.1045
   61RES   H29125611   7.163   2.061   5.523 -2.0454 -1.2342 -0.4106
   61RES   H29225612   7.153   2.150   5.371 -0.0892 -1.9441  0.3893
   61RES   H29325613   7.180   2.354   5.479  1.7590  1.8503  2.1893
   61RES   H29425614   7.325   2.249   5.514  0.7366  1.0280  0.3767
   61RES   H29525615   7.205   2.280   5.644  1.0666 -0.4309  0.5685
   61RES   C29625616   6.566   2.293   5.474 -0.0222  0.3035 -0.9083
   61RES   C29725617   6.619   2.335   5.617 -0.1564 -0.1626  0.2729
   61RES   C29825618   6.504   2.315   5.729 -0.3029  0.1043 -0.0159
   61RES   C29925619   6.448   2.179   5.743  0.0556  0.3593 -0.1910
   61RES   C30025620   6.549   2.079   5.795 -0.4755  0.2369  0.3064
   61RES   C30125621   6.490   1.942   5.813 -0.1423  0.1573 -0.0931
   61RES   C30225622   6.462   1.879   5.671 -0.4336  0.7865 -0.6797
   61RES   H30325623   6.499   2.373   5.441 -0.4027  0.0800 -0.6720
   61RES   H30425624   6.502   2.207   5.491 -0.5167  1.2589  2.4666
   61RES   H30525625   6.692   2.258   5.640 -1.2493 -1.8374 -1.6717
   61RES   H30625626   6.556   2.340   5.821  0.1982  0.8920 -0.5087
   61RES   H30725627   6.429   2.394   5.717  0.1585  0.7277  1.1036
   61RES   H30825628   6.401   2.143   5.652  1.1727 -0.7660 -0.3255
   61RES   H30925629   6.367   2.183   5.816 -0.4041 -2.1629 -0.5176
   61RES   H31025630   6.583   2.114   5.892 -0.0996  0.3335  0.1395
   61RES   H31125631   6.633   2.067   5.727  0.1902 -0.9668  1.3153
   61RES   H31225632   6.550   1.883   5.882 -0.1237  0.5370  0.2207
   61RES   H31325633   6.398   1.961   5.868  0.0715  0.5330  0.1384
   61RES   H31425634   6.420   1.781   5.693  1.2194  0.2451  0.1862
   61RES   H31525635   6.403   1.942   5.604 -0.7927  1.3127  0.1191
   61RES   H31625636   6.556   1.852   5.622  0.8635  1.2745  1.4671
   61RES   C31725637   6.681   2.482   5.624 -0.1063  0.6509  0.4589
   61RES   C31825638   6.759   2.536   5.754  0.0657 -0.1352  0.1865
   61RES   C31925639   6.662   2.606   5.861 -0.2227 -0.4887 -0.3786
   61RES   C32025640   6.704   2.750   5.890 -0.3234 -0.5124  0.0789
   61RES   C32125641   6.603   2.820   5.987 -0.2344 -0.2664  0.2783
   61RES   C32225642   6.634   2.778   6.133  0.6297 -0.1707  0.8423
   61RES   C32325643   6.536   2.826   6.239  0.1553 -0.1323  0.3247
   61RES   H32425644   6.606   2.550   5.583 -1.2159 -0.9460 -0.1898
   61RES   H32525645   6.758   2.483   5.547 -1.0625  1.6527 -0.5011
   61RES   H32625646   6.817   2.613   5.704 -0.1193  0.5986  1.0976
   61RES   H32725647   6.641   2.551   5.953  1.0849 -0.5194 -0.0942
   61RES   H32825648   6.562   2.604   5.818 -0.1777 -2.1480 -0.4210
   61RES   H32925649   6.708   2.803   5.795  2.4657  0.7408  0.8500
   61RES   H33025650   6.807   2.755   5.927 -0.3512  0.8023 -0.0039
   61RES   H33125651   6.500   2.803   5.958 -0.1933  0.1796 -0.1221
   61RES   H33225652   6.619   2.928   5.981  1.3704 -0.4557  0.7903
   61RES   H33325653   6.735   2.808   6.161 -0.7661  3.1798  2.4474
   61RES   H33425654   6.647   2.670   6.129 -0.8509 -0.4115  1.9669
   61RES   H33525655   6.516   2.933   6.235 -3.2137 -0.7452 -0.3800
   61RES   H33625656   6.587   2.826   6.335  0.0035 -0.2557  0.4042
   61RES   H33725657   6.440   2.775   6.241  0.7371 -1.4482 -1.9985
   61RES   C33825658   6.858   2.430   5.817  1.0348 -0.7185 -0.2971
   61RES   C33925659   6.973   2.475   5.901 -0.9915 -0.1447  0.7783
   61RES   C34025660   7.076   2.549   5.816  0.2328 -0.5631 -0.2511
   61RES   C34125661   7.194   2.627   5.884 -0.0022  0.4073  0.6425
   61RES   C34225662   7.289   2.699   5.795  0.4092 -0.0242  0.8160
   61RES   C34325663   7.414   2.747   5.861 -0.6459 -0.4314  0.2695
   61RES   C34425664   7.509   2.813   5.756  0.1297  0.2492  0.0069
   61RES   H34525665   6.906   2.369   5.740  1.6860  0.6028 -0.9429
   61RES   H34625666   6.794   2.359   5.870 -0.1077  0.7576  0.3121
   61RES   H34725667   6.935   2.544   5.977  0.2791 -0.0117  1.3018
   61RES   H34825668   7.122   2.473   5.753 -0.5342 -2.2054  1.1460
   61RES   H34925669   7.028   2.622   5.751  0.9069  0.7222  0.6665
   61RES   H35025670   7.249   2.550   5.937 -0.5631 -0.0985  0.4947
   61RES   H35125671   7.149   2.701   5.951 -2.1494  0.4197 -0.7353
   61RES   H35225672   7.314   2.637   5.709  0.6452 -1.5991  2.0079
   61RES   H35325673   7.236   2.785   5.752 -0.6736 -0.6816  0.8210
   61RES   H35425674   7.394   2.815   5.944  0.2229  0.3890 -0.1904
   61RES   H35525675   7.460   2.662   5.912  0.7776  0.0084 -0.2551
   61RES   H35625676   7.533   2.741   5.678  1.1015  0.1416  0.3975
   61RES   H35725677   7.602   2.857   5.792  0.6734  3.6171 -5.0201
   61RES   H35825678   7.451   2.892   5.708 -0.9529 -0.1051  0.7035
   61RES   C35925679   7.039   2.353   5.972  0.8019  0.0615 -0.0426
   61RES   C36025680   7.084   2.372   6.118 -0.3503 -0.1362  0.0119
   61RES   C36125681   6.972   2.438   6.197 -0.1192  0.4734 -0.4332
   61RES   C36225682   6.834   2.369   6.190 -0.6628  0.0235 -0.1416
   61RES   C36325683   6.737   2.428   6.291 -0.4519 -0.2349  0.3228
   61RES   C36425684   6.597   2.384   6.259  0.4272  0.5843  0.2290
   61RES   C36525685   6.486   2.431   6.360 -0.3969 -0.2034 -0.0981
   61RES   H36625686   7.123   2.320   5.911  0.8488 -1.1180  0.6469
   61RES   H36725687   6.970   2.268   5.978  1.7350 -0.6188  1.2079
   61RES   H36825688   7.157   2.453   6.122 -0.4740 -0.0202 -0.0472
   61RES   H36925689   6.998   2.445   6.303  1.1470  1.5661 -0.8077
   61RES   H37025690   6.971   2.545   6.177 -0.2661  0.6474  0.4646
   61RES   H37125691   6.794   2.373   6.089 -0.0926 -0.8648 -0.4042
   61RES   H37225692   6.859   2.268   6.223  3.8787  0.5908 -1.5909
   61RES   H37325693   6.763   2.404   6.394 -0.7004 -1.5236  0.1026
   61RES   H37425694   6.747   2.536   6.291  2.1149 -0.4448 -0.9174
   61RES   H37525695   6.563   2.395   6.156  1.2522 -0.5308 -0.1747
   61RES   H37625696   6.596   2.275   6.263  1.6834  0.5459 -0.4706
   61RES   H37725697   6.396   2.372   6.345 -1.7554  1.5129  1.0150
   61RES   H37825698   6.528   2.428   6.461  0.6292 -0.9865 -0.5322
   61RES   H37925699   6.471   2.535   6.332 -0.0480 -0.5507 -1.5897
   61RES   C38025700   7.144   2.247   6.185 -0.5127  0.0653 -0.5129
   61RES   C38125701   7.273   2.187   6.122 -0.2550  0.2479  0.7276
   61RES   C38225702   7.380   2.294   6.095 -0.0065  0.0548  0.4765
   61RES   C38325703   7.487   2.235   6.008 -0.2070  0.4670 -0.8182
   61RES   C38425704   7.571   2.352   5.951 -0.4873 -0.0685  0.6690
   61RES   C38525705   7.723   2.332   5.957 -0.6779  0.4366 -0.0644
   61RES   C38625706   0.078   2.461   5.917  0.5771  0.2112  0.1445
   61RES   H38725707   7.160   2.286   6.286 -3.6510  2.7748 -0.9840
   61RES   H38825708   7.062   2.175   6.183  1.1193 -1.8799  0.4553
   61RES   H38925709   7.236   2.146   6.028 -0.6483 -0.6961  1.2760
   61RES   H39025710   7.414   2.330   6.192 -0.4272  0.4371  0.4896
   61RES   H39125711   7.347   2.387   6.047 -2.3923  0.3258  2.5075
   61RES   H39225712   7.546   2.160   6.062  1.4399  2.4721  0.2576
   61RES   H39325713   7.445   2.162   5.939  0.5449 -1.6868  0.9177
   61RES   H39425714   7.539   2.384   5.852  0.4541  0.8567  0.6591
   61RES   H39525715   7.558   2.442   6.011  2.3993  1.4037 -0.8332
   61RES   H39625716   0.020   2.246   5.894  1.9666  0.4255  0.8867
   61RES   H39725717   0.038   2.295   6.051 -2.2093 -0.4827  0.2764
   61RES   H39825718   0.109   2.532   5.994 -0.7087 -1.2316  2.0453
   61RES   H39925719   0.017   2.519   5.848 -2.4391 -2.8334  0.1080
   61RES   H40025720   0.161   2.434   5.851 -0.2042  2.8897 -1.9908
   61RES   C40125721   7.326   2.067   6.205 -0.3621 -0.1791 -0.3068
   61RES   C40225722   7.387   2.100   6.343 -0.0120 -0.3542 -0.4491
   61RES   C40325723   7.470   1.984   6.406  0.0097  0.5951 -0.0904
   61RES   C40425724   7.565   2.037   6.519 -0.0152 -0.2842 -0.2163
   61RES   C40525725   7.487   2.102   6.635 -0.0055  0.3707  0.6001
   61RES   C40625726   7.568   2.102   6.766  0.0204  0.4700  0.6211
   61RES   C40725727   7.676   2.216   6.778 -0.1592  0.3752 -0.9227
   61RES   H40825728   7.407   2.006   6.165 -1.4629 -1.8547 -0.0868
   61RES   H40925729   7.252   1.988   6.221 -0.4085 -0.2033 -0.6448
   61RES   H41025730   7.312   2.132   6.415 -1.3007  0.2490 -2.0474
   61RES   H41125731   7.521   1.914   6.340  0.1888 -1.8363  2.5557
   61RES   H41225732   7.408   1.908   6.453 -0.1551 -0.1095 -1.4391
   61RES   H41325733   7.639   2.107   6.481 -0.2121 -0.2653 -0.5639
   61RES   H41425734   7.617   1.950   6.560  1.7136  0.1268 -1.4731
   61RES   H41525735   7.461   2.200   6.595 -1.6546  0.8406  2.7017
   61RES   H41625736   7.393   2.049   6.647 -0.1643 -0.0667 -2.3521
   61RES   H41725737   7.494   2.122   6.843 -0.2569  0.0643  0.4601
   61RES   H41825738   7.612   2.004   6.782 -0.9054  0.0421  0.6003
   61RES   H41925739   7.638   2.314   6.747 -1.2128  0.0681 -0.6100
   61RES   H42025740   0.037   2.199   6.715 -0.0189  0.4341 -0.7421
   61RES   H42125741   7.710   2.232   6.880  0.5828  2.0946 -1.4153
   61RES   H42225742   7.462   2.177   6.327  1.0121 -1.3407 -0.5036
   62RES     C125743   5.322   7.609   3.220  0.3268 -0.4450 -0.0941
   62RES     C225744   5.198   7.678   3.167 -0.1304 -0.3981 -0.2695
   62RES     C325745   5.098   7.581   3.096 -0.0693 -0.3238  0.4791
   62RES     C425746   5.145   7.529   2.960  0.4146 -0.9069 -0.0449
   62RES     C525747   5.067   7.404   2.914 -0.3907  0.2916  0.1235
   62RES     C625748   5.142   7.337   2.793  0.0989  0.4015  0.3155
   62RES     C725749   5.102   7.187   2.784 -0.7698 -0.4761  0.0871
   62RES     H825750   5.303   7.521   3.282  1.4623 -0.2576  0.5298
   62RES     H925751   5.379   7.668   3.292  1.9522  0.1633 -1.8390
   62RES    H1025752   5.147   7.709   3.259 -1.9439  0.5973 -1.5819
   62RES    H1125753   5.065   7.490   3.147  1.6328 -0.4491  1.3790
   62RES    H1225754   5.006   7.637   3.080 -1.0260 -1.9071  0.2538
   62RES    H1325755   5.132   7.609   2.886 -0.7003 -1.3251 -0.3218
   62RES    H1425756   5.253   7.518   2.955  0.7883  1.4069  2.0361
   62RES    H1525757   4.963   7.422   2.887 -0.0707  1.1292 -0.5869
   62RES    H1625758   5.064   7.340   3.002  0.4847 -1.2730 -0.9555
   62RES    H1725759   5.250   7.341   2.808  0.1889 -0.5740  0.0006
   62RES    H1825760   5.117   7.393   2.703  0.5973 -2.4946 -1.6925
   62RES    H1925761   4.996   7.194   2.760 -0.3913  0.0901 -1.4787
   62RES    H2025762   5.114   7.150   2.886  0.9318  2.0608  0.8447
   62RES    H2125763   5.151   7.118   2.715 -0.5203 -1.2676  1.0548
   62RES    H2225764   5.392   7.585   3.139  2.9118 -1.6625  2.4127
   62RES    C2325765   5.234   0.078   3.089 -0.4365 -0.0196  0.6664
   62RES    C2425766   5.153   0.209   3.123 -0.1731  0.0853 -0.5745
   62RES    C2525767   5.016   0.207   3.037  0.4381 -0.1297 -0.3487
   62RES    C2625768   5.022   0.226   2.884  0.6640 -0.2684 -0.3584
   62RES    C2725769   4.913   0.144   2.804 -0.0737  0.0503  0.5751
   62RES    C2825770   4.771   0.209   2.812  0.1811 -0.1464  0.1787
   62RES    C2925771   4.675   0.171   2.697  0.7068  0.3758  0.1544
   62RES    H3025772   5.340   0.102   3.099 -0.6307  1.6135 -0.9391
   62RES    H3125773   5.217   0.060   2.982  0.1868 -0.2440  0.6019
   62RES    H3225774   5.145   0.201   3.231 -1.6465 -0.7293 -0.7358
   62RES    H3325775   4.960   0.291   3.078 -2.5407 -1.9836 -0.4564
   62RES    H3425776   4.965   0.115   3.067 -2.5939  0.4165 -3.5289
   62RES    H3525777   5.117   0.202   2.837  0.1964 -2.4547 -0.2206
   62RES    H3625778   4.993   0.329   2.862  0.0154 -0.8367 -2.3086
   62RES    H3725779   4.911   0.039   2.832  0.3926  0.1747  1.0884
   62RES    H3825780   4.945   0.145   2.699 -2.9441 -2.1418 -0.3867
   62RES    H3925781   4.792   0.316   2.810 -0.1541 -0.0818  0.1502
   62RES    H4025782   4.726   0.195   2.910 -0.7069 -0.3929 -0.2646
   62RES    H4125783   4.698   0.209   2.598  0.2169 -1.3954 -0.6650
   62RES    H4225784   4.668   0.064   2.678 -1.5647  0.8094 -1.6529
   62RES    H4325785   4.576   0.197   2.734  1.2563 -1.1829  2.8836
   62RES    C4425786   5.241   0.334   3.101  0.0918 -0.2736 -0.4695
   62RES    C4525787   5.184   0.454   3.187  0.1180 -0.0791  1.0604
   62RES    C4625788   5.307   0.541   3.238 -0.6471  0.5971  0.3526
   62RES    C4725789   5.379   0.484   3.358 -0.2238 -0.2808 -0.2055
   62RES    C4825790   5.513   0.550   3.381 -0.2959 -0.2119  0.5691
   62RES    C4925791   5.591   0.497   3.500  0.5258 -0.1601 -0.1555
   62RES    C5025792   5.739   0.551   3.508  0.3088  0.0760 -0.6305
   62RES    H5125793   5.259   0.355   2.996 -0.3771 -2.2500 -0.9809
   62RES    H5225794   5.336   0.295   3.135 -0.3279 -0.8147  0.1085
   62RES    H5325795   5.140   0.410   3.276 -1.0202 -0.1104  0.4868
   62RES    H5425796   5.263   0.634   3.273 -0.0779  1.8172 -2.0575
   62RES    H5525797   5.373   0.576   3.159  0.8356  2.2509  2.2526
   62RES    H5625798   5.324   0.482   3.452  0.5180 -0.5886  0.2308
   62RES    H5725799   5.391   0.380   3.326 -0.5113 -0.0976 -0.9237
   62RES    H5825800   5.505   0.659   3.383  2.1992  0.0196 -0.3076
   62RES    H5925801   5.581   0.521   3.301 -1.5856  1.5307 -1.2266
   62RES    H6025802   5.585   0.389   3.508 -0.8988  0.0093  1.3872
   62RES    H6125803   5.542   0.532   3.590 -1.4724 -2.3931 -0.3400
   62RES    H6225804   5.745   0.657   3.533 -0.1867  0.0714 -0.4907
   62RES    H6325805   5.798   0.522   3.421  1.1627  1.0169 -0.3716
   62RES    H6425806   5.784   0.504   3.596  1.2961  0.4193 -0.9473
   62RES    C6525807   5.089   0.547   3.102  0.1049  0.0264 -0.0062
   62RES    C6625808   5.003   0.658   3.167  0.0995 -0.5904 -0.4428
   62RES    C6725809   4.910   0.606   3.283 -0.0870 -0.2654  0.0618
   62RES    C6825810   4.970   0.623   3.429 -0.1267  0.4262  0.4312
   62RES    C6925811   4.867   0.603   3.545 -0.4020 -0.2033  0.1260
   62RES    C7025812   4.915   0.613   3.686 -0.3604  0.0043  0.2679
   62RES    C7125813   4.803   0.629   3.781 -0.0721 -0.2090 -0.3825
   62RES    H7225814   5.158   0.597   3.034 -1.0228  0.0250 -1.1776
   62RES    H7325815   5.035   0.483   3.032 -0.5950  0.6219 -0.0204
   62RES    H7425816   5.057   0.738   3.216 -2.2224  2.3836 -2.5825
   62RES    H7525817   4.808   0.645   3.281 -0.7022 -1.7165  2.0595
   62RES    H7625818   4.911   0.497   3.275  0.9278 -0.1619 -1.3741
   62RES    H7725819   5.054   0.556   3.447  0.3256  1.8956  4.2434
   62RES    H7825820   5.004   0.723   3.455  1.1704  0.2276 -0.4524
   62RES    H7925821   4.783   0.673   3.538 -0.1976  0.2592  1.8989
   62RES    H8025822   4.821   0.508   3.519 -1.1629  0.5596 -1.4116
   62RES    H8125823   4.986   0.695   3.701  0.1722 -0.7418  1.9556
   62RES    H8225824   4.970   0.521   3.708 -2.1379 -0.9424  0.9022
   62RES    H8325825   4.746   0.718   3.757 -0.9802 -0.4864  0.6901
   62RES    H8425826   4.734   0.545   3.778 -0.1478 -0.0992 -1.7902
   62RES    H8525827   4.835   0.636   3.885 -2.0603 -0.8926  0.2972
   62RES    C8625828   4.914   0.725   3.055 -0.0692 -0.6208 -0.4096
   62RES    C8725829   4.983   0.773   2.923  0.4605  0.3341  0.0677
   62RES    C8825830   4.892   0.808   2.808  0.0052  0.2214 -0.0994
   62RES    C8925831   4.786   0.925   2.829  0.6702  0.0184 -0.4047
   62RES    C9025832   4.686   0.950   2.712 -0.4487 -0.1670 -0.2966
   62RES    C9125833   4.753   0.992   2.581 -0.1658 -0.5599  0.0043
   62RES    C9225834   4.644   1.003   2.472  1.0298  0.6405  0.9740
   62RES    H9325835   4.851   0.641   3.023 -1.4110  0.6100 -1.0523
   62RES    H9425836   4.844   0.801   3.090 -0.7055 -1.6586  0.6498
   62RES    H9525837   5.030   0.683   2.884 -2.7210 -0.4682 -2.0663
   62RES    H9625838   4.949   0.830   2.717  0.6234 -0.9850 -0.0226
   62RES    H9725839   4.841   0.715   2.781 -1.1780  0.6107  0.7665
   62RES    H9825840   4.729   0.900   2.918 -0.1886 -0.2281 -1.0174
   62RES    H9925841   4.841   1.016   2.852 -0.5862  0.9090 -0.8558
   62RES   H10025842   4.614   1.028   2.738  0.0155 -0.2901  1.4312
   62RES   H10125843   4.632   0.858   2.691 -2.1490  1.2358 -2.2096
   62RES   H10225844   4.788   1.095   2.578 -2.0856  0.0773 -1.1384
   62RES   H10325845   4.838   0.928   2.554 -0.3611 -0.1474 -1.6484
   62RES   H10425846   4.587   1.093   2.497  0.8599  0.9174 -0.3377
   62RES   H10525847   4.587   0.910   2.465  0.4940  0.9672  0.9089
   62RES   H10625848   4.686   1.033   2.376 -0.8579  0.2538 -0.0177
   62RES   C10725849   5.087   0.884   2.945  1.0358 -0.1624 -0.2671
   62RES   C10825850   5.194   0.907   2.832 -0.6725 -0.1388  0.1519
   62RES   C10925851   5.274   1.032   2.873 -0.1989 -0.9208  0.3991
   62RES   C11025852   5.205   1.173   2.858 -0.8831 -0.0005  0.3778
   62RES   C11125853   5.291   1.292   2.909 -0.3794 -0.5118  0.7756
   62RES   C11225854   5.231   1.430   2.893  0.6352 -0.0782 -0.1325
   62RES   C11325855   5.295   1.530   2.981 -0.3631 -0.1019 -0.0243
   62RES   H11425856   5.138   0.849   3.035  1.2623 -0.1916 -0.4047
   62RES   H11525857   5.040   0.980   2.966  1.2962 -0.1553  0.3078
   62RES   H11625858   5.146   0.930   2.738 -1.1570  1.0635  0.6909
   62RES   H11725859   5.366   1.039   2.815 -0.1946  0.0095  0.5124
   62RES   H11825860   5.310   1.013   2.974 -0.3786 -1.3747  0.3820
   62RES   H11925861   5.190   1.183   2.751 -2.3460 -0.8234  0.4958
   62RES   H12025862   5.107   1.174   2.906 -1.0837 -1.1219 -0.0082
   62RES   H12125863   5.380   1.289   2.846 -1.1875 -1.2112 -0.3461
   62RES   H12225864   5.322   1.276   3.012  0.9258 -0.2613  0.4342
   62RES   H12325865   5.228   1.461   2.788 -0.8473 -2.2738 -0.7514
   62RES   H12425866   5.129   1.405   2.920  0.6846  1.0254  1.1450
   62RES   H12525867   5.403   1.518   2.992  0.0672  1.7780 -1.9166
   62RES   H12625868   5.268   1.635   2.967  1.2627  0.5087  1.1807
   62RES   H12725869   5.252   1.510   3.079 -0.2730 -0.0378  0.0285
   62RES   C12825870   5.294   0.785   2.815 -0.1838 -0.1669  0.0710
   62RES   C12925871   5.335   0.757   2.672  0.5199 -0.1486  0.7269
   62RES   C13025872   5.220   0.722   2.570 -0.6771 -1.0520  0.5240
   62RES   C13125873   5.143   0.588   2.601 -0.4456  0.1355 -0.8222
   62RES   C13225874   5.029   0.560   2.503  0.1969 -0.1265 -0.0499
   62RES   C13325875   4.956   0.424   2.519 -0.8053  0.9481  0.3859
   62RES   C13425876   4.856   0.397   2.407 -0.3519 -0.1709  0.6619
   62RES   H13525877   5.384   0.810   2.870  0.7845 -0.1628 -1.4720
   62RES   H13625878   5.254   0.694   2.858  1.6487 -1.1294 -0.2455
   62RES   H13725879   5.375   0.850   2.630 -0.4037 -0.5724 -1.1744
   62RES   H13825880   5.269   0.714   2.473  0.4010  1.5715  0.8319
   62RES   H13925881   5.151   0.803   2.547 -0.4500 -0.6439  1.2812
   62RES   H14025882   5.107   0.583   2.704  0.5568  1.1360 -0.4116
   62RES   H14125883   5.225   0.517   2.592  1.7399  2.5858 -0.9130
   62RES   H14225884   5.083   0.564   2.408 -0.4595 -0.3471 -0.4320
   62RES   H14325885   4.957   0.640   2.520  0.3282 -0.3336  1.5237
   62RES   H14425886   4.906   0.431   2.616  0.1229  1.3623  0.8488
   62RES   H14525887   5.024   0.340   2.508 -5.2932 -2.6954 -1.3650
   62RES   H14625888   4.831   0.291   2.415 -0.7634 -0.0654  0.8027
   62RES   H14725889   4.896   0.406   2.306  1.5633  2.3598  1.5959
   62RES   H14825890   4.768   0.460   2.424 -0.9736 -1.1236  1.0472
   62RES   C14925891   5.450   0.660   2.652  0.0264 -0.2529 -0.6611
   62RES   C15025892   5.584   0.680   2.727  1.0461 -0.5730  0.3046
   62RES   C15125893   5.709   0.625   2.648  1.5176  0.4986  0.9160
   62RES   C15225894   5.768   0.711   2.542  0.0390  0.2889 -0.1036
   62RES   C15325895   5.902   0.660   2.489 -0.1203 -0.2496  0.9289
   62RES   C15425896   5.952   0.748   2.371  0.2700 -0.1668  0.0429
   62RES   C15525897   6.078   0.699   2.300 -0.1664  0.7085 -0.0192
   62RES   H15625898   5.416   0.557   2.656  1.5437 -0.7110  1.0520
   62RES   H15725899   5.473   0.675   2.546  0.2686 -1.5270 -0.7963
   62RES   H15825900   5.589   0.789   2.728  0.0029 -0.5226  0.1314
   62RES   H15925901   5.789   0.608   2.720  1.5059 -0.9743  0.6086
   62RES   H16025902   5.699   0.525   2.606 -0.4813  2.0792 -2.6373
   62RES   H16125903   5.779   0.813   2.579  0.5451  0.5434 -0.9483
   62RES   H16225904   5.692   0.718   2.465 -0.9456 -2.0583  0.6279
   62RES   H16325905   5.898   0.552   2.469  2.4095 -0.0224 -0.9384
   62RES   H16425906   5.975   0.673   2.568  1.2723  2.3618 -0.7480
   62RES   H16525907   5.954   0.849   2.412 -0.0075  0.3902 -1.2764
   62RES   H16625908   5.872   0.762   2.298  0.3885  2.2946  0.3367
   62RES   H16725909   6.054   0.609   2.243 -2.1697  1.7120 -0.8188
   62RES   H16825910   6.145   0.664   2.377  0.8407  2.1550 -0.2274
   62RES   H16925911   6.123   0.771   2.232  1.0534 -2.3377 -2.5463
   62RES   C17025912   5.584   0.614   2.870 -0.0805  0.2773 -0.1736
   62RES   C17125913   5.682   0.679   2.975  0.6578  0.5970 -0.5701
   62RES   C17225914   5.621   0.803   3.054 -0.0372 -0.4466 -1.0805
   62RES   C17325915   5.735   0.877   3.127  0.0928 -0.6469  0.4242
   62RES   C17425916   5.707   1.016   3.165 -0.1115 -1.3510 -0.4712
   62RES   C17525917   5.701   1.114   3.042 -0.3048 -0.1202 -0.7518
   62RES   C17625918   5.709   1.265   3.083  0.6921 -0.5993 -0.4646
   62RES   H17725919   5.617   0.510   2.866 -0.9788 -0.0254  0.1612
   62RES   H17825920   5.484   0.593   2.907 -0.4336 -0.5626 -1.5412
   62RES   H17925921   5.768   0.714   2.918  1.0551 -0.0335 -0.3612
   62RES   H18025922   5.552   0.765   3.130 -0.3017  1.3060 -0.4196
   62RES   H18125923   5.577   0.869   2.980  0.1873  0.2615 -0.5936
   62RES   H18225924   5.828   0.882   3.071  0.9633  3.0993  1.9735
   62RES   H18325925   5.752   0.840   3.228  0.5759 -0.6423  0.3490
   62RES   H18425926   5.791   1.056   3.223 -1.7311  2.6766 -0.7788
   62RES   H18525927   5.624   1.047   3.228  0.9159 -0.3936  0.4309
   62RES   H18625928   5.610   1.100   2.985  0.8443 -1.3158 -2.3549
   62RES   H18725929   5.789   1.102   2.978  1.3344 -0.1721  1.4262
   62RES   H18825930   5.788   1.289   3.155 -0.7950 -0.4635  1.1472
   62RES   H18925931   5.608   1.283   3.119 -0.4302 -0.6522 -3.4927
   62RES   H19025932   5.743   1.329   3.001  2.1659 -0.6961  0.0435
   62RES   C19125933   5.736   0.576   3.080 -0.4008  0.5615  0.1044
   62RES   C19225934   5.860   0.495   3.033  0.3389  0.0920 -0.2734
   62RES   C19325935   5.985   0.584   3.040  0.7328  0.2059  0.5976
   62RES   C19425936   6.103   0.526   2.961 -0.2039 -0.1921  0.2766
   62RES   C19525937   6.221   0.623   2.957  0.4295 -0.6574 -0.6980
   62RES   C19625938   6.340   0.597   2.873 -0.7309 -0.1115  0.2656
   62RES   C19725939   6.334   0.667   2.736  0.3398  0.4955  0.3222
   62RES   H19825940   5.657   0.504   3.101  0.8050 -1.2651 -1.3952
   62RES   H19925941   5.760   0.620   3.177 -1.2398  0.9124  0.1540
   62RES   H20025942   5.843   0.461   2.932  1.5272 -2.4700  0.3617
   62RES   H20125943   6.009   0.588   3.146 -1.6706  0.8489  1.1459
   62RES   H20225944   5.978   0.687   3.005  1.0942 -0.6357 -2.0501
   62RES   H20325945   6.061   0.484   2.870 -2.0781 -0.4436  1.2370
   62RES   H20425946   6.145   0.434   3.003 -1.1526 -0.7089  0.1065
   62RES   H20525947   6.184   0.725   2.947 -0.5158 -0.7881  1.2251
   62RES   H20625948   6.251   0.629   3.062  0.8630  1.7267 -0.9245
   62RES   H20725949   6.355   0.489   2.870  1.4222  0.0614  2.9589
   62RES   H20825950   6.424   0.645   2.923  0.4236 -1.4545 -0.3472
   62RES   H20925951   6.339   0.776   2.744  2.4619  0.3802  0.7967
   62RES   H21025952   6.251   0.640   2.671  2.4154  0.3136 -2.3269
   62RES   H21125953   6.424   0.648   2.679  0.0961 -2.2218  0.7847
   62RES   C21225954   5.896   0.372   3.125 -0.0041 -0.8815  0.2067
   62RES   C21325955   5.793   0.253   3.135 -0.4748  0.2985 -0.0573
   62RES   C21425956   5.745   0.212   2.996 -0.7085  0.0157 -0.2896
   62RES   C21525957   5.645   0.100   3.008 -0.4005  0.9352  0.3750
   62RES   C21625958   5.582   0.072   2.861 -0.4992  0.3877  1.2763
   62RES   C21725959   5.552   7.654   2.846  0.9758  0.7444  0.4758
   62RES   C21825960   5.552   7.604   2.695 -0.2350  0.2807 -1.6034
   62RES   H21925961   5.938   0.412   3.218 -0.3864 -0.9659  0.4192
   62RES   H22025962   5.983   0.315   3.096  0.2584 -0.3977  0.0371
   62RES   H22125963   5.713   0.283   3.202  0.8132  1.9014  0.8216
   62RES   H22225964   5.699   0.297   2.945  2.2582  2.9951  1.7386
   62RES   H22325965   5.829   0.177   2.937 -0.9359 -0.3823 -0.3821
   62RES   H22425966   5.565   0.144   3.067 -1.5591  0.6344 -0.9494
   62RES   H22525967   5.688   0.004   3.038  0.7054  0.9608 -1.0859
   62RES   H22625968   5.486   0.122   2.848 -0.9779 -0.6934  0.5086
   62RES   H22725969   5.651   0.099   2.781  2.9287 -2.5091  3.1305
   62RES   H22825970   5.624   7.593   2.900 -2.3202 -2.8926  0.9799
   62RES   H22925971   5.461   7.613   2.890  1.7344 -1.9699 -0.3785
   62RES   H23025972   5.526   7.685   2.626 -2.9437  0.5907 -0.2955
   62RES   H23125973   5.480   7.523   2.682 -0.6039 -0.0830  2.1518
   62RES   H23225974   5.650   7.565   2.668 -0.7183 -0.4426 -2.3363
   62RES   C23325975   5.856   0.128   3.203  0.4453  0.4983  0.2350
   62RES   C23425976   5.771   0.050   3.307  0.1363  0.2506 -0.2278
   62RES   C23525977   5.820   7.628   3.325 -0.2934  0.8636 -0.9407
   62RES   C23625978   5.797   7.533   3.210  0.1940 -0.0607 -0.5189
   62RES   C23725979   5.820   7.386   3.251 -0.0446  0.4721 -0.5309
   62RES   C23825980   5.831   7.298   3.123  0.3773  0.3169  0.0922
   62RES   C23925981   5.947   7.347   3.033  0.1210  0.2995  0.0554
   62RES   H24025982   5.944   0.169   3.252  0.3843  1.5546 -0.5237
   62RES   H24125983   5.897   0.068   3.122  0.2963  1.1846 -0.3466
   62RES   H24225984   5.667   0.064   3.278  0.5601  0.3750 -1.7226
   62RES   H24325985   5.776   7.588   3.416  0.4232 -0.8718 -1.3448
   62RES   H24425986   5.928   7.622   3.341 -0.2805  2.3280 -0.3841
   62RES   H24525987   5.859   7.562   3.125  0.2516  1.4593  0.0341
   62RES   H24625988   5.697   7.549   3.168  0.5791 -0.7255 -1.7326
   62RES   H24725989   5.743   7.345   3.318  2.3864 -1.0534  1.4027
   62RES   H24825990   5.917   7.388   3.301  0.0949 -2.3129 -0.6275
   62RES   H24925991   5.848   7.196   3.158  1.7493  0.3309 -0.5312
   62RES   H25025992   5.736   7.301   3.069 -0.4813  0.9621  1.6209
   62RES   H25125993   6.025   7.397   3.091  0.6521 -2.7019  2.0374
   62RES   H25225994   5.992   7.264   2.978 -0.2997 -0.2828  0.5877
   62RES   H25325995   5.913   7.406   2.947 -1.4416  1.2064  1.2822
   62RES   C25425996   5.791   0.123   3.447 -0.3878  0.3890 -0.2321
   62RES   C25525997   5.711   0.075   3.569 -0.6516  0.3261  0.4744
   62RES   C25625998   5.557   0.084   3.541 -0.5725  0.1088 -0.3441
   62RES   C25725999   5.465   0.051   3.657  0.2331 -0.2790  0.2795
   62RES   C25826000   5.323   0.059   3.609  0.4495 -0.3816  0.4758
   62RES   C25926001   5.275   0.195   3.560 -0.0009 -0.5903 -0.0875
   62RES   C26026002   5.122   0.213   3.538 -0.5191 -0.0698 -0.0190
   62RES   H26126003   5.778   0.231   3.438  0.7907  0.4315 -1.5822
   62RES   H26226004   5.897   0.119   3.474  0.3983  1.3134 -3.0055
   62RES   H26326005   5.729   7.696   3.589 -0.6344  0.4779  1.3218
   62RES   H26426006   5.542   0.003   3.470  3.3690 -0.9623 -0.1116
   62RES   H26526007   5.537   0.178   3.489 -1.7839 -1.1972 -2.3071
   62RES   H26626008   5.482   7.683   3.708 -1.9869 -1.6865 -1.4998
   62RES   H26726009   5.483   0.127   3.734 -0.1167  0.5754 -0.4732
   62RES   H26826010   5.260   0.024   3.690 -0.1203 -0.3500  0.0559
   62RES   H26926011   5.303   7.705   3.538  0.9712  0.8659 -1.1286
   62RES   H27026012   5.313   0.271   3.630  1.1906 -0.3561 -0.9774
   62RES   H27126013   5.331   0.212   3.468  0.7027 -2.9216 -0.1069
   62RES   H27226014   5.083   0.149   3.459 -1.2842 -0.8421  0.9790
   62RES   H27326015   5.077   0.195   3.636  0.2739  3.5279  1.0953
   62RES   H27426016   5.106   0.316   3.505 -0.2027 -0.3643 -1.1260
   62RES   C27526017   5.752   0.153   3.693  0.0355 -0.4203 -0.1436
   62RES   C27626018   5.893   0.129   3.754  0.1454 -0.7783 -0.0667
   62RES   C27726019   5.906   7.713   3.822  0.2549  0.3884 -0.5746
   62RES   C27826020   6.043   7.690   3.880  0.1274  0.0583  0.3268
   62RES   C27926021   6.082   7.540   3.893  0.1512  0.3695  0.0945
   62RES   C28026022   6.202   7.514   3.979 -0.3291 -1.0274  0.1684
   62RES   C28126023   6.172   7.517   4.127  1.0040 -0.3227 -0.3828
   62RES   H28226024   5.686   0.121   3.774  0.6980  0.6314  0.8272
   62RES   H28326025   5.741   0.261   3.680  2.2591 -0.4047 -2.2227
   62RES   H28426026   5.962   0.140   3.671 -0.8362  0.9684 -0.6840
   62RES   H28526027   5.831   7.694   3.899  1.6484 -0.0266  0.6985
   62RES   H28626028   5.892   7.642   3.741  1.5239 -2.5743  1.7343
   62RES   H28726029   6.056   0.019   3.973 -1.9998 -0.9702  1.2669
   62RES   H28826030   6.117   7.722   3.807 -0.3695  0.4932  0.0118
   62RES   H28926031   6.082   7.506   3.790  2.5739  0.5771 -0.0078
   62RES   H29026032   5.992   7.492   3.932  0.4772 -1.6287 -1.5662
   62RES   H29126033   6.238   7.412   3.961  0.4110 -0.5628 -1.0689
   62RES   H29226034   6.281   7.579   3.942 -1.5281 -0.5803 -1.6677
   62RES   H29326035   6.081   7.462   4.149  0.4833  0.6074 -0.1859
   62RES   H29426036   6.154   7.622   4.152  2.2225  0.2292 -1.7460
   62RES   H29526037   6.263   7.493   4.183  2.4132  1.6681 -1.7587
   62RES   C29626038   5.927   0.241   3.858  0.1848 -0.3178  0.1948
   62RES   C29726039   6.068   0.302   3.843  0.4172  0.7602  0.0039
   62RES   C29826040   6.113   0.383   3.964  1.1105  0.5625 -0.0341
   62RES   C29926041   6.093   0.317   4.100  0.2627 -0.3038 -0.1178
   62RES   C30026042   6.185   0.370   4.216 -0.8475  0.0633  0.0985
   62RES   C30126043   6.157   0.322   4.361  0.3192  1.0525 -0.5317
   62RES   C30226044   6.180   0.171   4.386  0.3188  0.1164  0.3291
   62RES   H30326045   5.850   0.317   3.868  0.6320  0.1439  0.1786
   62RES   H30426046   5.919   0.200   3.958 -1.8589 -0.1132  0.1229
   62RES   H30526047   6.147   0.228   3.831 -0.0839  0.1739  0.2362
   62RES   H30626048   6.214   0.423   3.958  0.9275  1.2830  1.3580
   62RES   H30726049   6.059   0.478   3.966 -0.2550 -0.1120 -2.8809
   62RES   H30826050   6.102   0.208   4.100 -3.3369 -0.6540 -0.1030
   62RES   H30926051   5.991   0.332   4.137  0.7001 -2.2227  1.9899
   62RES   H31026052   6.181   0.479   4.224  0.8016 -0.0258  2.4651
   62RES   H31126053   6.290   0.351   4.193 -1.1588 -0.0590 -1.3154
   62RES   H31226054   6.233   0.369   4.423 -0.4622 -0.2706  1.4896
   62RES   H31326055   6.061   0.360   4.396  0.6987  0.1793  1.5929
   62RES   H31426056   6.240   0.137   4.302  0.3947 -1.5516  1.0441
   62RES   H31526057   6.226   0.154   4.484 -1.2751  1.6676  1.3907
   62RES   H31626058   6.092   0.107   4.383 -1.1450  2.1332 -3.4327
   62RES   C31726059   6.056   0.393   3.724  0.4492  0.4723 -0.1283
   62RES   C31826060   6.182   0.472   3.679  0.1642  0.3690 -0.5575
   62RES   C31926061   6.300   0.382   3.643 -0.2128 -0.0685 -0.1839
   62RES   C32026062   6.438   0.449   3.622  0.3539  0.1301  0.0003
   62RES   C32126063   6.521   0.496   3.756 -0.2792 -0.0406 -0.2597
   62RES   C32226064   6.610   0.620   3.733 -0.0531 -0.3285  0.1843
   62RES   C32326065   6.701   0.636   3.852  0.1438  0.1358  0.5084
   62RES   H32426066   5.974   0.461   3.748 -0.3557 -0.7541  0.6737
   62RES   H32526067   6.004   0.345   3.641 -2.4480 -1.2544  2.5565
   62RES   H32626068   6.210   0.547   3.753  1.5738 -1.0855  0.4068
   62RES   H32726069   6.261   0.325   3.558  0.5496 -1.8352  0.6133
   62RES   H32826070   6.319   0.315   3.727  2.2353  0.2471 -0.4580
   62RES   H32926071   6.452   0.528   3.548  1.9900 -0.1719 -0.0218
   62RES   H33026072   6.505   0.379   3.573  1.3778  0.2806  1.1543
   62RES   H33126073   6.580   0.418   3.805  1.9498  0.8805 -1.3814
   62RES   H33226074   6.453   0.521   3.837 -0.4115  1.8744 -0.9504
   62RES   H33326075   6.548   0.709   3.719 -1.7864 -1.4819  0.2920
   62RES   H33426076   6.681   0.616   3.650 -0.2815  1.0446 -0.0975
   62RES   H33526077   6.776   0.714   3.836 -0.8353  1.1286  0.7158
   62RES   H33626078   6.755   0.542   3.860  2.0303  0.7815 -3.2718
   62RES   H33726079   6.653   0.658   3.947  0.0384 -1.3237  0.8080
   62RES   C33826080   6.127   0.564   3.559  0.5735 -0.3865 -0.3293
   62RES   C33926081   6.201   0.703   3.552  0.5476 -0.0491  0.2901
   62RES   C34026082   6.130   0.813   3.636 -0.4648 -0.9154  0.1494
   62RES   C34126083   6.177   0.819   3.781 -0.1404  0.0587 -0.7148
   62RES   C34226084   6.151   0.952   3.850 -0.1228  0.5134 -0.5020
   62RES   C34326085   6.272   1.046   3.839 -0.1566  0.4970  0.3372
   62RES   C34426086   6.245   1.177   3.914 -0.2411  0.1618 -0.5031
   62RES   H34526087   6.025   0.600   3.568  0.5405 -0.7458  0.8334
   62RES   H34626088   6.134   0.505   3.468  2.1029 -2.2527  0.9454
   62RES   H34726089   6.307   0.690   3.574  0.4766  0.3547  0.8699
   62RES   H34826090   6.147   0.915   3.601 -2.7617 -0.0926  1.3005
   62RES   H34926091   6.022   0.798   3.631 -0.3541 -3.0086  2.8853
   62RES   H35026092   6.282   0.791   3.789  0.0249  0.7946 -0.3031
   62RES   H35126093   6.128   0.747   3.847  0.1249  1.6419  1.2596
   62RES   H35226094   6.068   1.005   3.804 -1.2656 -0.2560  0.6256
   62RES   H35326095   6.126   0.936   3.955  0.2843  0.8281 -0.3575
   62RES   H35426096   6.361   0.997   3.878  0.0167  0.5873  0.0558
   62RES   H35526097   6.290   1.076   3.735  1.7523 -0.0584  0.4989
   62RES   H35626098   6.181   1.243   3.855 -1.3660 -0.4428  0.0198
   62RES   H35726099   6.342   1.226   3.920  0.1289 -0.8563  2.6374
   62RES   H35826100   6.202   1.167   4.014  3.2881 -0.5253  1.0193
   62RES   C35926101   6.190   0.753   3.399  0.0552 -1.2717  0.0423
   62RES   C36026102   6.298   0.863   3.374  0.6846  0.1954  0.3540
   62RES   C36126103   6.434   0.795   3.350  0.3355  0.4723 -0.7660
   62RES   C36226104   6.562   0.881   3.363  0.2743 -0.0069  0.8240
   62RES   C36326105   6.697   0.805   3.367 -0.1707  0.0445  0.5496
   62RES   C36426106   6.810   0.908   3.346  0.0331  0.2881  0.0507
   62RES   C36526107   6.817   1.010   3.459  0.6492 -0.0045 -0.5606
   62RES   H36626108   6.089   0.782   3.370  0.7148 -0.0094 -1.0492
   62RES   H36726109   6.206   0.666   3.336 -1.4683 -1.8349  0.4233
   62RES   H36826110   6.303   0.935   3.456  1.6634  0.6657 -0.1114
   62RES   H36926111   6.442   0.706   3.414 -1.4134 -0.5554 -1.9443
   62RES   H37026112   6.429   0.739   3.257 -0.4122  0.2064 -0.5736
   62RES   H37126113   6.569   0.946   3.276  3.0309 -2.9374 -1.2370
   62RES   H37226114   6.543   0.939   3.453 -2.4225  0.2969  0.1106
   62RES   H37326115   6.699   0.745   3.459  0.7324  0.6220  0.9068
   62RES   H37426116   6.699   0.727   3.291  2.3932 -0.6219  1.2802
   62RES   H37526117   6.902   0.850   3.342 -1.9000 -2.8317 -1.1125
   62RES   H37626118   6.809   0.961   3.251  0.6664  1.3499  0.6227
   62RES   H37726119   6.911   1.065   3.468  2.3593 -2.7934 -0.7036
   62RES   H37826120   6.733   1.079   3.464 -1.1243 -1.9636 -2.3945
   62RES   H37926121   6.800   0.956   3.551 -1.4879  1.4568 -0.0652
   62RES   C38026122   6.264   0.951   3.252  0.0788  0.3462  0.3691
   62RES   C38126123   6.198   1.084   3.280  0.0706  0.2393 -0.6786
   62RES   C38226124   6.308   1.169   3.347  0.2144 -0.7023 -0.2718
   62RES   C38326125   6.263   1.264   3.458  0.3033  0.0728 -0.2077
   62RES   C38426126   6.379   1.338   3.513  0.0142  1.1370  0.7992
   62RES   C38526127   6.357   1.490   3.496  0.2379 -0.1049  0.1142
   62RES   C38626128   6.450   1.567   3.577  0.0183 -0.0129 -0.4516
   62RES   H38726129   6.346   0.987   3.190 -1.0604 -0.3187 -1.5910
   62RES   H38826130   6.212   0.892   3.176  1.1277 -0.9196  0.6092
   62RES   H38926131   6.115   1.058   3.346  1.3678  2.1102  1.7720
   62RES   H39026132   6.347   1.232   3.267  0.8538 -1.2173 -0.3674
   62RES   H39126133   6.393   1.110   3.382  0.7339 -0.5127 -1.2005
   62RES   H39226134   6.182   1.325   3.417 -0.4424 -1.4084 -0.9852
   62RES   H39326135   6.211   1.211   3.537 -1.0886  1.1302 -0.3919
   62RES   H39426136   6.387   1.321   3.621  1.5302 -1.2769  0.3519
   62RES   H39526137   6.479   1.306   3.483 -0.5474  1.0407 -1.0147
   62RES   H39626138   6.254   1.514   3.523  0.1345  0.3880 -0.6902
   62RES   H39726139   6.372   1.511   3.390 -0.3980 -0.8124 -0.1251
   62RES   H39826140   6.377   1.610   3.646 -0.3462 -0.1108 -0.7725
   62RES   H39926141   6.497   1.656   3.535 -0.3231 -0.4934 -1.8970
   62RES   H40026142   6.512   1.501   3.637 -1.5137  0.2725  1.5268
   62RES   C40126143   6.139   1.138   3.144  0.4017  0.1600 -0.6410
   62RES   C40226144   6.094   1.285   3.152  0.2418  0.6165 -1.1792
   62RES   C40326145   6.055   1.350   3.019 -0.1306  0.2906 -0.6528
   62RES   C40426146   6.183   1.365   2.933 -0.2512  0.4916  0.0256
   62RES   C40526147   6.155   1.460   2.813  0.0481 -0.2331  0.0088
   62RES   C40626148   6.282   1.489   2.735 -0.0349  0.5516  0.1294
   62RES   C40726149   6.379   1.585   2.807  0.3910 -0.3151 -0.0778
   62RES   H40826150   6.047   1.082   3.125  0.0962  1.2758 -2.5798
   62RES   H40926151   6.208   1.125   3.061  0.4230  1.3024 -0.8003
   62RES   H41026152   6.169   1.338   3.211  1.4860 -1.8529 -0.4602
   62RES   H41126153   6.026   1.452   3.043 -1.7915 -0.2207 -0.4491
   62RES   H41226154   5.973   1.301   2.966 -0.9476  0.9451 -0.0198
   62RES   H41326155   6.219   1.270   2.893  1.2551  1.2518 -0.4529
   62RES   H41426156   6.266   1.398   2.996 -1.1409  2.5907  0.1322
   62RES   H41526157   6.093   1.406   2.741  0.3263  0.6226 -0.8951
   62RES   H41626158   6.102   1.551   2.841 -0.5910 -0.5425 -0.1944
   62RES   H41726159   6.336   1.394   2.725  1.4611  1.3130  0.7716
   62RES   H41826160   6.263   1.529   2.636  0.0095 -0.2210 -0.1906
   62RES   H41926161   6.465   1.603   2.743 -0.7006 -1.2975 -1.8682
   62RES   H42026162   6.415   1.555   2.906 -1.9973  3.2285  2.0166
   62RES   H42126163   6.325   1.675   2.838 -1.9382 -2.4482  2.4175
   62RES   H42226164   6.006   1.288   3.215  1.1456  0.9158  0.0909
   63RES     C126165   6.549   0.904   2.406  0.3703 -0.4009  0.5661
   63RES     C226166   6.450   1.004   2.466  0.0758 -0.1049 -0.0955
   63RES     C326167   6.311   0.991   2.406 -0.6125  0.6633 -0.0499
   63RES     C426168   6.205   1.065   2.481  0.9030  0.5930  0.0122
   63RES     C526169   6.180   1.014   2.624 -0.1591  0.0010 -0.8163
   63RES     C626170   6.058   1.052   2.698 -0.2100  0.4853 -0.1657
   63RES     C726171   6.032   0.968   2.823  0.1037 -0.4620  0.7700
   63RES     H826172   6.507   0.803   2.399  2.4547 -1.4210  2.1820
   63RES     H926173   6.627   0.887   2.481 -0.8739 -3.1331  1.3229
   63RES    H1026174   6.443   0.978   2.572 -0.7387  1.5543  0.2786
   63RES    H1126175   6.299   1.014   2.300 -0.3738  1.8300  0.1631
   63RES    H1226176   6.279   0.888   2.418  2.1730 -0.4628 -1.7094
   63RES    H1326177   6.231   1.171   2.480 -0.1319  0.8522 -1.3352
   63RES    H1426178   6.112   1.075   2.426  0.3365 -1.1216  0.6186
   63RES    H1526179   6.262   1.035   2.692 -2.0458  1.5630  1.0174
   63RES    H1626180   6.182   0.905   2.622  0.7048 -0.0373  1.0238
   63RES    H1726181   5.973   1.034   2.632 -0.1465  1.3707 -0.4967
   63RES    H1826182   6.055   1.159   2.720 -2.8650  0.3644  0.2154
   63RES    H1926183   6.120   0.972   2.887  0.8452 -0.0380 -0.2635
   63RES    H2026184   6.027   0.860   2.808  0.2312 -0.4083  0.3325
   63RES    H2126185   5.949   1.009   2.882 -2.0220 -1.7996 -1.2013
   63RES    H2226186   6.592   0.943   2.314 -2.6038  2.8373  0.4772
   63RES    C2326187   6.504   1.151   2.448  0.0808  0.1780  0.1312
   63RES    C2426188   6.621   1.177   2.552  0.1211 -0.2364 -0.4556
   63RES    C2526189   6.569   1.230   2.683 -0.6494 -0.0384  0.1613
   63RES    C2626190   6.664   1.207   2.802 -0.2205  0.4229  0.1484
   63RES    C2726191   6.588   1.228   2.932  0.0443  1.2397  0.3416
   63RES    C2826192   6.689   1.201   3.046 -0.2899  0.6895 -0.6429
   63RES    C2926193   6.625   1.228   3.181  0.5521  0.6067 -0.1961
   63RES    H3026194   6.534   1.172   2.345  1.5799 -1.8019  0.1493
   63RES    H3126195   6.429   1.229   2.465 -0.4048 -0.3274  0.3394
   63RES    H3226196   6.668   1.082   2.574  1.4597  0.5739  0.2408
   63RES    H3326197   6.479   1.175   2.710  0.5150 -1.1968  1.7415
   63RES    H3426198   6.538   1.334   2.675 -0.6214 -0.1098 -0.9845
   63RES    H3526199   6.742   1.282   2.806 -0.3532  0.4580  2.8515
   63RES    H3626200   6.711   1.108   2.797  2.0219  1.5189 -1.0866
   63RES    H3726201   6.506   1.156   2.941 -0.1060  1.4167  0.3847
   63RES    H3826202   6.546   1.328   2.932  1.8547  2.0177  0.3546
   63RES    H3926203   6.773   1.268   3.028  0.0364  0.7076  0.8637
   63RES    H4026204   6.721   1.096   3.043 -0.6049  0.5777 -0.1549
   63RES    H4126205   6.701   1.242   3.257  0.2232  2.1642 -0.1356
   63RES    H4226206   6.565   1.318   3.193 -0.6613 -0.5231  2.5059
   63RES    H4326207   6.566   1.142   3.214  0.8752  0.6797  0.5613
   63RES    C4426208   6.723   1.268   2.485  0.6099 -0.3924 -0.2053
   63RES    C4526209   6.830   1.192   2.412 -0.0264 -0.0709 -0.5999
   63RES    C4626210   6.870   1.273   2.282 -0.3383 -0.1430 -0.6926
   63RES    C4726211   6.777   1.248   2.161 -0.4145 -0.1248  0.0265
   63RES    C4826212   6.814   1.328   2.030  0.5720 -0.2473 -0.0449
   63RES    C4926213   6.702   1.378   1.948  0.2102  0.4476 -0.1407
   63RES    C5026214   6.612   1.264   1.885  0.3333 -0.1343  0.1932
   63RES    H5126215   6.775   1.324   2.562 -0.8889  0.1375  0.4535
   63RES    H5226216   6.669   1.345   2.429  0.7346 -0.4427 -0.3959
   63RES    H5326217   6.800   1.094   2.373  0.5114  0.3545 -2.1163
   63RES    H5426218   6.968   1.251   2.240  0.0263  4.8411 -2.8595
   63RES    H5526219   6.868   1.380   2.301  3.3734 -0.2118  0.3792
   63RES    H5626220   6.794   1.141   2.146  0.1364 -0.0608  0.1989
   63RES    H5726221   6.671   1.255   2.186 -0.2910 -2.3303  1.3413
   63RES    H5826222   6.881   1.265   1.971 -1.1097 -0.9442 -1.2303
   63RES    H5926223   6.879   1.413   2.050 -1.1229  0.5318  2.4144
   63RES    H6026224   6.740   1.437   1.865 -1.1314  1.2769 -0.1787
   63RES    H6126225   6.642   1.447   2.007 -0.4477  0.3233 -0.6658
   63RES    H6226226   6.581   1.194   1.962 -2.1674  1.1010  0.3381
   63RES    H6326227   6.655   1.212   1.799 -0.4619  1.1263 -0.9780
   63RES    H6426228   6.514   1.300   1.857  0.5700  0.0122 -0.4456
   63RES    C6526229   6.948   1.187   2.507  0.1027 -0.0320 -0.9258
   63RES    C6626230   7.078   1.107   2.465 -0.2882 -0.1371  0.1618
   63RES    C6726231   7.068   0.953   2.452 -0.2319  0.3194 -0.2692
   63RES    C6826232   7.194   0.883   2.386 -0.0437  0.2710  0.0735
   63RES    C6926233   7.156   0.741   2.337 -0.4284  0.2588 -0.1453
   63RES    C7026234   7.275   0.662   2.298 -0.1514  0.2753 -0.0468
   63RES    C7126235   7.236   0.528   2.228  0.1763  0.3936  0.3398
   63RES    H7226236   6.983   1.287   2.529  0.7928 -0.4947  0.1520
   63RES    H7326237   6.913   1.154   2.605  0.1928 -0.0447 -0.8972
   63RES    H7426238   7.100   1.144   2.365  2.6433 -0.7831  0.5253
   63RES    H7526239   7.054   0.911   2.552  1.3466 -0.2432 -0.2683
   63RES    H7626240   6.979   0.925   2.396 -1.4638 -0.2284  1.9133
   63RES    H7726241   7.221   0.939   2.297  0.4432 -0.8012 -0.4577
   63RES    H7826242   7.284   0.887   2.448 -1.3290  1.9432  1.8917
   63RES    H7926243   7.104   0.674   2.406  1.0893 -2.0302 -1.1908
   63RES    H8026244   7.081   0.753   2.259 -0.3133  1.1058 -0.1288
   63RES    H8126245   7.340   0.657   2.386 -0.1911 -0.2399 -0.0443
   63RES    H8226246   7.339   0.724   2.236  2.3628 -1.0849  1.0981
   63RES    H8326247   7.330   0.475   2.210 -0.6127 -0.9580  0.1846
   63RES    H8426248   7.154   0.472   2.270  0.2173 -0.4772 -0.7167
   63RES    H8526249   7.211   0.553   2.125 -0.3810 -1.6264 -0.0270
   63RES    C8626250   7.213   1.156   2.541 -0.7130  0.5178  0.7293
   63RES    C8726251   7.315   1.225   2.442  0.5034  0.0441 -0.2833
   63RES    C8826252   7.267   1.364   2.402  0.3734  0.5280 -0.0137
   63RES    C8926253   7.331   1.417   2.278  0.5992 -0.0410  0.6553
   63RES    C9026254   7.244   1.381   2.153 -0.0549 -0.3155  0.4459
   63RES    C9126255   7.289   1.470   2.033 -0.6729  0.4705 -0.2895
   63RES    C9226256   7.191   1.447   1.912 -0.7307  0.0129 -0.3917
   63RES    H9326257   7.184   1.226   2.620 -1.1967  0.6227  0.4624
   63RES    H9426258   7.243   1.063   2.587 -2.8713  0.0267  1.2025
   63RES    H9526259   7.338   1.161   2.356 -2.1768 -0.9006 -0.3413
   63RES    H9626260   7.159   1.381   2.398  0.3892  0.4724 -0.6870
   63RES    H9726261   7.286   1.426   2.489 -1.4941 -1.9014  2.2252
   63RES    H9826262   7.315   1.525   2.270 -1.8050 -0.3109  1.4671
   63RES    H9926263   7.438   1.398   2.274  0.7014  0.7246 -0.7299
   63RES   H10026264   7.138   1.403   2.163 -0.0267  0.2197 -0.4159
   63RES   H10126265   7.245   1.276   2.124  2.6664 -0.5027  1.0065
   63RES   H10226266   7.310   1.575   2.055  2.8979 -0.1392 -0.4046
   63RES   H10326267   7.382   1.423   2.002 -2.1123 -1.4727 -1.7758
   63RES   H10426268   7.231   1.492   1.821  0.8559  1.6418  1.0694
   63RES   H10526269   7.095   1.492   1.934  0.2941  3.0781 -1.9267
   63RES   H10626270   7.173   1.340   1.901 -2.1483  0.2041  0.0573
   63RES   C10726271   7.455   1.232   2.511 -0.6907 -0.1784 -0.7459
   63RES   C10826272   7.518   1.095   2.549 -0.4761  0.1811  0.1659
   63RES   C10926273   7.583   1.019   2.431 -0.3375 -0.1765  0.1209
   63RES   C11026274   7.640   0.879   2.468  0.2370  0.1945  0.2856
   63RES   C11126275   7.695   0.805   2.345 -0.0308 -0.4323 -0.0991
   63RES   C11226276   0.024   0.662   2.381  0.6141  0.9391  0.5653
   63RES   C11326277   0.108   0.595   2.269 -0.1254  0.5656  0.8906
   63RES   H11426278   7.434   1.275   2.609  1.5460 -0.1695 -0.2575
   63RES   H11526279   7.517   1.299   2.450 -1.2862  0.7372 -0.3669
   63RES   H11626280   7.446   1.023   2.586  0.5940 -1.5660 -1.0738
   63RES   H11726281   7.655   1.086   2.385 -0.4134 -0.5339 -0.5183
   63RES   H11826282   7.510   1.021   2.350 -0.5734  0.6546  0.3450
   63RES   H11926283   7.717   0.875   2.545 -0.9966 -0.0518  1.5174
   63RES   H12026284   7.563   0.817   2.514 -0.5036  0.6281 -0.3693
   63RES   H12126285   0.052   0.859   2.300  1.6695 -2.9922 -0.1242
   63RES   H12226286   7.621   0.797   2.265 -0.8669 -1.1919  0.7360
   63RES   H12326287   0.088   0.676   2.469  0.7896  3.3790  0.0695
   63RES   H12426288   7.670   0.592   2.403 -1.3634  1.8855 -3.2332
   63RES   H12526289   0.211   0.629   2.283 -0.9330  2.4925  2.3300
   63RES   H12626290   0.106   0.487   2.279 -0.7950  0.3668 -1.1884
   63RES   H12726291   0.077   0.633   2.171  1.8470 -0.2736 -0.0894
   63RES   C12826292   7.631   1.117   2.663  0.3377 -0.2482 -0.4931
   63RES   C12926293   7.586   1.048   2.792 -0.1027 -0.1603  0.0428
   63RES   C13026294   7.462   1.122   2.852  0.9049  0.1694 -0.1195
   63RES   C13126295   7.401   1.055   2.974 -0.5161  0.0320  0.0087
   63RES   C13226296   7.263   1.116   3.014 -0.2686  0.4935  0.9806
   63RES   C13326297   7.147   1.072   2.925  0.1056  0.1100 -0.1836
   63RES   C13426298   7.014   1.121   2.973  0.1380 -0.1222 -0.2120
   63RES   H13526299   0.005   1.083   2.639  1.2766  1.2193  1.2474
   63RES   H13626300   7.636   1.224   2.678  1.1235  0.0243 -2.4697
   63RES   H13726301   7.544   0.949   2.772  0.1820 -0.2376 -0.1856
   63RES   H13826302   7.383   1.136   2.779  0.4524  1.2875  0.5825
   63RES   H13926303   7.479   1.226   2.879  1.9259 -0.4134  1.5880
   63RES   H14026304   7.470   1.075   3.055  1.0905 -0.3391 -1.2419
   63RES   H14126305   7.414   0.949   2.951  0.0861 -0.1850  1.3497
   63RES   H14226306   7.271   1.224   3.025 -1.3172  1.1405 -3.5802
   63RES   H14326307   7.243   1.076   3.113 -0.2640 -0.4994  0.5847
   63RES   H14426308   7.150   0.963   2.915 -0.4226 -0.0496  1.2524
   63RES   H14526309   7.163   1.124   2.830 -0.4011  0.4274 -0.0957
   63RES   H14626310   6.938   1.099   2.897 -1.1800  0.2677  0.9829
   63RES   H14726311   7.001   1.228   2.982 -0.2809 -0.1966  0.0263
   63RES   H14826312   6.986   1.060   3.059 -0.2668 -2.6299 -2.0500
   63RES   C14926313   7.709   1.045   2.891 -0.1979 -0.0224  0.0337
   63RES   C15026314   0.016   0.910   2.963  0.0222  0.4521  0.1727
   63RES   C15126315   0.115   0.933   3.077 -0.3152 -0.4406  0.1547
   63RES   C15226316   0.046   0.991   3.191 -0.0855 -0.0452 -0.7932
   63RES   C15326317   0.141   1.012   3.319  0.0611 -0.3153  0.0424
   63RES   C15426318   0.074   1.097   3.433  0.5431 -0.3485  0.1979
   63RES   C15526319   0.087   1.245   3.402  0.3142  0.2061  0.2775
   63RES   H15626320   0.078   1.077   2.850 -0.0173  1.1743  1.3414
   63RES   H15726321   7.685   1.118   2.968 -4.3102  1.2283 -2.2714
   63RES   H15826322   7.648   0.882   3.010  0.1221  2.7365  1.7954
   63RES   H15926323   0.185   0.855   3.108  0.6107 -0.3124 -1.5433
   63RES   H16026324   0.186   1.009   3.044 -2.8269  1.5169 -0.9194
   63RES   H16126325   7.703   0.914   3.224  0.8851 -0.1117  1.1804
   63RES   H16226326   7.720   1.085   3.173 -1.0583 -0.5094 -0.4303
   63RES   H16326327   0.235   1.061   3.291  0.4048 -0.6930  0.5256
   63RES   H16426328   0.171   0.915   3.359  0.5492 -1.1772 -2.3572
   63RES   H16526329   0.111   1.066   3.531  1.4901  0.9704  0.2824
   63RES   H16626330   7.697   1.065   3.434  0.4408 -0.0662 -1.1631
   63RES   H16726331   0.004   1.303   3.444 -0.7221 -0.7361 -0.4411
   63RES   H16826332   0.091   1.263   3.295 -1.0310 -0.2402  0.1376
   63RES   H16926333   0.180   1.285   3.443 -0.0879 -0.1740  1.6051
   63RES   C17026334   0.048   0.797   2.871  0.0989 -0.4205  0.1733
   63RES   C17126335   0.040   0.647   2.915 -0.3268 -0.5269 -0.0325
   63RES   C17226336   7.626   0.605   2.963 -0.0455  0.3187 -0.2086
   63RES   C17326337   7.608   0.592   3.109 -0.7422  0.4559  0.1626
   63RES   C17426338   7.468   0.529   3.145 -0.0658 -0.1878 -0.4531
   63RES   C17526339   7.390   0.617   3.250 -0.0941  0.3696  0.5445
   63RES   C17626340   7.333   0.738   3.179 -0.1984  0.3018 -0.7835
   63RES   H17726341   0.152   0.809   2.841 -0.1097  1.4746  0.1712
   63RES   H17826342   7.724   0.810   2.775  3.3975 -2.6259 -1.9752
   63RES   H17926343   0.105   0.630   3.001 -0.7250 -1.0985  0.1614
   63RES   H18026344   7.590   0.521   2.904 -2.5957  0.0762  1.6016
   63RES   H18126345   7.554   0.682   2.940 -1.8748 -1.3122 -0.0847
   63RES   H18226346   7.640   0.684   3.159 -0.8132 -0.7620  2.4927
   63RES   H18326347   7.687   0.530   3.151  0.1421  1.0151 -0.6607
   63RES   H18426348   7.488   0.432   3.192 -0.8185  0.3763  1.0614
   63RES   H18526349   7.413   0.502   3.054  2.2647 -0.8574 -1.7083
   63RES   H18626350   7.451   0.637   3.338 -1.1706  0.5112  1.2608
   63RES   H18726351   7.300   0.565   3.283 -0.3718  0.5226  0.0348
   63RES   H18826352   7.277   0.697   3.095 -3.4405  3.0775 -0.0966
   63RES   H18926353   7.409   0.802   3.134  0.4159  0.7430  0.8633
   63RES   H19026354   7.279   0.807   3.244  0.8499 -0.3780  0.8443
   63RES   C19126355   0.093   0.560   2.798  0.0207  0.1354  0.7176
   63RES   C19226356   0.131   0.410   2.834  0.0145  0.3072  0.3132
   63RES   C19326357   0.135   0.329   2.705  0.2798  0.4867  0.1600
   63RES   C19426358   0.001   0.282   2.645  0.2760 -0.1624  0.4260
   63RES   C19526359   0.000   0.257   2.492  0.0656 -0.0438 -0.3944
   63RES   C19626360   7.587   0.233   2.436 -0.2540  0.1717  0.1541
   63RES   C19726361   7.577   0.237   2.282  0.4882  0.7358  0.0935
   63RES   H19826362   0.171   0.618   2.749 -2.4988  1.4963 -1.8229
   63RES   H19926363   0.017   0.560   2.720  0.4100 -1.7763  0.3167
   63RES   H20026364   0.060   0.361   2.900  1.2952 -0.7637  0.9182
   63RES   H20126365   0.192   0.237   2.713  0.4952  0.4483 -1.5501
   63RES   H20226366   0.193   0.382   2.630 -1.9866  1.7906 -0.7286
   63RES   H20326367   7.665   0.369   2.662  1.1637  0.9243 -1.6409
   63RES   H20426368   7.682   0.201   2.702  0.8521 -2.1209 -1.7884
   63RES   H20526369   0.042   0.349   2.450  1.6071 -1.3368 -1.7953
   63RES   H20626370   0.068   0.175   2.468  0.3137 -0.0638  0.3553
   63RES   H20726371   7.520   0.295   2.496 -1.3021  0.0065 -0.8449
   63RES   H20826372   7.560   0.131   2.465 -1.7135  1.0316  1.8914
   63RES   H20926373   7.471   0.242   2.256  0.3846  0.7029  0.5127
   63RES   H21026374   7.619   0.150   2.231 -3.4093 -0.4655 -1.2228
   63RES   H21126375   7.617   0.332   2.246  2.6326 -0.1417  0.0930
   63RES   C21226376   0.269   0.416   2.907 -0.2262 -0.1205 -0.2219
   63RES   C21326377   0.294   0.292   2.997 -0.0727  0.0773  0.0551
   63RES   C21426378   0.445   0.262   2.997  0.2671  0.1371 -0.4919
   63RES   C21526379   0.492   0.174   2.882 -0.0628 -1.0288 -0.1160
   63RES   C21626380   0.634   0.134   2.886 -0.3173  0.4464  0.1941
   63RES   C21726381   0.658   0.002   2.816  0.1748  0.0398  0.4538
   63RES   C21826382   0.642   0.013   2.668 -0.2292  0.2463 -0.2829
   63RES   H21926383   0.275   0.511   2.959  0.3978 -0.0351 -0.4459
   63RES   H22026384   0.350   0.431   2.836  0.8613  2.2590  1.4716
   63RES   H22126385   0.247   0.204   2.953 -0.1868  1.0286 -1.8000
   63RES   H22226386   0.504   0.354   3.004 -1.5372  1.4353 -1.7092
   63RES   H22326387   0.465   0.211   3.091 -0.6723 -3.1574 -1.9917
   63RES   H22426388   0.467   0.219   2.786  0.4033  2.2983  1.2681
   63RES   H22526389   0.429   0.085   2.880  1.9768 -2.5097 -0.4393
   63RES   H22626390   0.690   0.218   2.844 -0.1016 -0.0457 -0.5011
   63RES   H22726391   0.679   0.128   2.986 -0.4767 -0.6872  0.2011
   63RES   H22826392   0.761   7.700   2.837  1.7427  3.5695 -1.8057
   63RES   H22926393   0.600   7.647   2.858  2.7270 -0.8018  2.3901
   63RES   H23026394   0.544   0.048   2.635 -0.8191  1.1684  2.3242
   63RES   H23126395   0.666   7.644   2.620 -0.6469 -1.0841  2.0685
   63RES   H23226396   0.709   0.091   2.633  0.9723  0.6439  2.7578
   63RES   C23326397   0.232   0.313   3.135  0.0909 -0.1099  0.4685
   63RES   C23426398   0.200   0.179   3.211  0.7961 -0.0630  0.1253
   63RES   C23526399   0.318   0.107   3.286  0.4543 -0.0648  0.7126
   63RES   C23626400   0.401   0.189   3.383  0.4369 -0.5399  0.0199
   63RES   C23726401   0.521   0.117   3.442  0.4126 -0.9508 -0.1324
   63RES   C23826402   0.597   0.230   3.524 -0.1864 -0.0934 -0.2454
   63RES   C23926403   0.686   0.168   3.628  0.1501  0.1640 -0.3681
   63RES   H24026404   0.135   0.359   3.120  0.1424  0.5580  2.0621
   63RES   H24126405   0.295   0.388   3.185  3.6350 -1.1269 -2.2673
   63RES   H24226406   0.158   0.108   3.141 -1.6821  3.2914 -1.9554
   63RES   H24326407   0.369   0.047   3.210  0.8119  1.5660 -0.3584
   63RES   H24426408   0.278   0.023   3.343 -1.6291  0.1000 -0.4722
   63RES   H24526409   0.325   0.225   3.454  0.7893 -0.9401  0.6024
   63RES   H24626410   0.439   0.270   3.320  0.2082  0.4718  1.1459
   63RES   H24726411   0.582   0.069   3.366  2.9139 -2.9863  3.0126
   63RES   H24826412   0.494   0.042   3.517 -0.9196 -0.5495 -0.1903
   63RES   H24926413   0.650   0.297   3.457  2.1293 -2.9746 -1.3819
   63RES   H25026414   0.527   0.302   3.566  0.5306  0.9648 -0.8570
   63RES   H25126415   0.634   0.149   3.722  0.3052  1.4539 -0.0016
   63RES   H25226416   0.740   0.081   3.591 -1.6704 -0.3203 -1.9123
   63RES   H25326417   0.759   0.242   3.663 -1.2858  0.2209  2.6664
   63RES   C25426418   0.084   0.185   3.311  0.1331 -0.1716 -0.2370
   63RES   C25526419   7.667   0.206   3.257  0.4455 -0.0834 -0.4418
   63RES   C25626420   7.564   0.175   3.370 -0.1473 -0.7485  0.2829
   63RES   C25726421   7.575   0.283   3.482  0.3250 -0.9792  0.0618
   63RES   C25826422   7.456   0.289   3.573 -0.1703 -0.8062 -0.0789
   63RES   C25926423   7.469   0.377   3.699  0.1566 -0.1430 -0.4785
   63RES   C26026424   7.441   0.529   3.662 -0.0351  0.2517  0.0737
   63RES   H26126425   0.108   0.264   3.381  0.6727 -1.1758  0.7333
   63RES   H26226426   0.090   0.101   3.381  0.0240 -0.9082 -1.0907
   63RES   H26326427   7.659   0.310   3.225  1.0743  0.4205  0.9593
   63RES   H26426428   7.582   0.081   3.422 -0.6942 -0.9798  0.0511
   63RES   H26526429   7.463   0.182   3.331  0.2746  1.3997 -0.5187
   63RES   H26626430   7.664   0.270   3.543  1.1125  0.0215 -0.8657
   63RES   H26726431   7.587   0.377   3.430  0.4787 -0.9958  0.0678
   63RES   H26826432   7.428   0.187   3.601  0.1737 -1.0717 -0.6789
   63RES   H26926433   7.370   0.321   3.515 -0.4480  1.2915  1.4695
   63RES   H27026434   7.396   0.349   3.775 -2.5530 -1.1967 -3.3304
   63RES   H27126435   7.570   0.374   3.741  0.0282 -2.9331 -0.2715
   63RES   H27226436   7.477   0.543   3.561 -0.5709 -2.5967 -0.5638
   63RES   H27326437   7.334   0.548   3.660 -0.3453 -1.3217  0.8663
   63RES   H27426438   7.479   0.601   3.734 -0.4068 -1.0421  1.5946
   63RES   C27526439   7.616   0.127   3.141  0.0479 -0.2703  0.4130
   63RES   C27626440   7.635   7.700   3.138  0.0994 -0.4595  0.3620
   63RES   C27726441   7.672   7.660   2.989  0.2685 -0.4732  1.0004
   63RES   C27826442   7.552   7.659   2.895 -0.3801  0.8754  0.8446
   63RES   C27926443   7.579   7.600   2.756  0.1160  0.4638  0.5184
   63RES   C28026444   7.449   7.602   2.683 -0.3457 -0.6660  0.0459
   63RES   C28126445   7.456   7.576   2.540 -0.0377 -0.6199  0.3159
   63RES   H28226446   7.659   0.171   3.051 -0.5259  1.7980  1.1324
   63RES   H28326447   7.511   0.143   3.120  0.2299  0.0198 -0.2917
   63RES   H28426448   7.721   7.685   3.203 -0.2502 -3.1095  0.2669
   63RES   H28526449   0.023   7.721   2.944 -1.3219  1.5999  1.0298
   63RES   H28626450   7.714   7.559   2.989 -0.2792 -0.7172 -0.3039
   63RES   H28726451   7.527   0.039   2.891  2.2972  1.5398  0.9530
   63RES   H28826452   7.477   7.602   2.949 -0.7416  0.6174  0.0870
   63RES   H28926453   7.623   7.503   2.782  0.3091  0.9258  1.9520
   63RES   H29026454   7.660   7.663   2.718  1.4699 -0.1174  2.3192
   63RES   H29126455   7.395   7.519   2.729  1.4318 -1.6978  0.3053
   63RES   H29226456   7.403   7.697   2.709  0.8221 -0.0944  0.0629
   63RES   H29326457   7.502   7.478   2.526  0.7163 -0.1305 -0.7561
   63RES   H29426458   7.528   7.634   2.482  1.2309 -1.4319  1.0542
   63RES   H29526459   7.361   7.588   2.489  0.4555 -0.2170 -0.5147
   63RES   C29626460   7.516   7.616   3.204 -0.3197 -0.4225 -0.4782
   63RES   C29726461   7.533   7.467   3.204 -0.0294 -0.5292 -0.1518
   63RES   C29826462   7.409   7.390   3.255  0.1084  0.1492 -0.5611
   63RES   C29926463   7.416   7.238   3.234 -0.2978  0.7653 -0.0108
   63RES   C30026464   7.284   7.178   3.274  1.0705  0.3020 -0.1044
   63RES   C30126465   7.292   7.027   3.267 -0.8161 -0.6079 -0.1102
   63RES   C30226466   7.322   6.965   3.131  0.1716 -0.0218  0.5803
   63RES   H30326467   7.495   7.665   3.299 -2.0678  0.3300 -1.2329
   63RES   H30426468   7.425   7.649   3.154 -1.4373  0.8145  2.2480
   63RES   H30526469   7.532   7.445   3.097 -0.9521  1.4878 -0.5831
   63RES   H30626470   7.401   7.409   3.362 -0.0810  1.5544 -0.8252
   63RES   H30726471   7.316   7.426   3.210 -1.0979 -1.4957  0.5507
   63RES   H30826472   7.497   7.200   3.297 -0.0244  0.1392 -0.7354
   63RES   H30926473   7.433   7.217   3.129 -1.5356 -1.3122  0.1904
   63RES   H31026474   7.204   7.209   3.207  1.0629  0.0217 -0.2271
   63RES   H31126475   7.260   7.207   3.376  1.3295  1.1819 -0.2878
   63RES   H31226476   7.362   6.996   3.346 -0.2973  0.8883  0.0280
   63RES   H31326477   7.197   6.998   3.311 -0.5828 -0.2684  0.6299
   63RES   H31426478   7.421   6.982   3.089 -0.1288 -0.9363 -0.5384
   63RES   H31526479   7.291   6.861   3.126  1.6960 -0.4370 -0.3375
   63RES   H31626480   7.251   7.012   3.063 -0.1884 -1.3120  0.0528
   63RES   C31726481   7.662   7.415   3.275 -0.0211 -0.0335  0.2154
   63RES   C31826482   7.668   7.425   3.432 -0.4777 -0.3853  0.2410
   63RES   C31926483   7.669   7.285   3.506 -0.0558 -0.4977  0.1316
   63RES   C32026484   0.049   7.185   3.472 -0.3637  0.5066  0.1185
   63RES   C32126485   0.063   7.075   3.576  0.6472 -0.0008 -0.5751
   63RES   C32226486   0.183   6.978   3.571  1.0518 -0.6295 -0.5675
   63RES   C32326487   0.187   6.870   3.674 -0.2176  0.3958  0.6991
   63RES   H32426488   0.017   7.480   3.240 -1.2478  1.8839  0.8189
   63RES   H32526489   7.689   7.315   3.241 -0.1966 -1.6503  4.5865
   63RES   H32626490   7.580   7.471   3.477 -0.2494 -0.7166  1.0536
   63RES   H32726491   7.577   7.226   3.495  0.4958 -1.2335 -0.5897
   63RES   H32826492   7.662   7.308   3.613 -0.2068  3.0010 -0.5800
   63RES   H32926493   0.145   7.237   3.470  0.6135 -1.2887 -0.3241
   63RES   H33026494   0.034   7.131   3.378  1.0839 -1.1842  0.8224
   63RES   H33126495   7.691   7.030   3.575  0.7755 -0.4114  1.7827
   63RES   H33226496   0.069   7.113   3.678  1.7396 -1.7743  0.0451
   63RES   H33326497   0.273   7.039   3.584  0.7304  0.2245 -2.2138
   63RES   H33426498   0.185   6.942   3.468  0.2064  1.7604 -1.4562
   63RES   H33526499   0.112   6.795   3.651  1.1239 -0.8727  0.3801
   63RES   H33626500   0.172   6.898   3.778  2.8203  0.9579  1.0542
   63RES   H33726501   0.284   6.821   3.664 -0.0201  0.7709  0.7718
   63RES   C33826502   0.060   7.521   3.480  0.3584  0.3468  0.0642
   63RES   C33926503   0.082   7.546   3.630  0.2452 -0.2994 -0.0870
   63RES   C34026504   7.717   7.655   3.674  0.1211  0.3695 -0.5830
   63RES   C34126505   7.694   7.667   3.815 -0.1987 -0.3405 -0.5896
   63RES   C34226506   7.603   0.057   3.867  0.6583  0.3487 -0.1234
   63RES   C34326507   7.572   0.067   4.016 -0.1078  0.1673 -0.5844
   63RES   C34426508   7.473   7.688   4.067 -0.4688 -0.9568  0.4669
   63RES   H34526509   0.055   7.616   3.427 -2.6174  0.8610  1.1649
   63RES   H34626510   0.156   7.478   3.450 -0.2010 -1.1218  0.3573
   63RES   H34726511   0.061   7.460   3.693  2.3224 -0.7991 -0.0317
   63RES   H34826512   0.030   0.025   3.643  0.5144  0.2679 -0.4090
   63RES   H34926513   7.617   7.652   3.632  0.3959 -2.4321 -1.1407
   63RES   H35026514   0.055   7.668   3.880 -0.1363 -1.7807 -0.6502
   63RES   H35126515   7.649   7.570   3.836 -0.0525 -0.4893 -0.9597
   63RES   H35226516   7.653   0.148   3.833 -0.9641  1.3835  0.2202
   63RES   H35326517   7.516   0.040   3.805  0.7334  0.3021 -0.2160
   63RES   H35426518   7.662   0.068   4.078 -0.3174 -0.9358 -0.2459
   63RES   H35526519   7.517   0.161   4.014 -0.1787  0.1034 -2.1194
   63RES   H35626520   7.380   7.711   4.015  1.6989  1.5855 -2.4090
   63RES   H35726521   7.464   7.697   4.176  1.1034  1.1024  0.4632
   63RES   H35826522   7.514   7.591   4.039  0.5026  0.0419 -1.6600
   63RES   C35926523   0.226   7.590   3.659 -1.2575  0.7491 -0.7942
   63RES   C36026524   0.336   7.473   3.667  0.0651 -0.2638 -0.1764
   63RES   C36126525   0.301   7.346   3.751  0.2460 -0.5574  0.1950
   63RES   C36226526   0.260   7.375   3.900 -0.5513  0.3622  0.1733
   63RES   C36326527   0.155   7.280   3.952 -0.0079 -0.1170  0.3008
   63RES   C36426528   0.072   7.340   4.065  0.0093 -0.7672  0.4412
   63RES   C36526529   0.135   7.311   4.197 -0.3506 -0.1933  0.9845
   63RES   H36626530   0.235   7.646   3.752  0.2080  0.0748 -0.5206
   63RES   H36726531   0.258   7.652   3.575  0.7519 -0.6894 -1.1242
   63RES   H36826532   0.417   7.524   3.719  1.0913 -0.4253 -1.5843
   63RES   H36926533   0.222   7.293   3.699 -1.2088  0.4318  1.3487
   63RES   H37026534   0.386   7.277   3.755  1.2840  0.6936  0.4343
   63RES   H37126535   0.353   7.367   3.956  0.0091  2.0983 -0.4645
   63RES   H37226536   0.225   7.477   3.918 -0.6007  0.3150  0.3440
   63RES   H37326537   0.081   7.262   3.874 -0.9846  0.9547  0.9626
   63RES   H37426538   0.204   7.192   3.993 -2.8813 -2.3908 -1.0690
   63RES   H37526539   0.048   7.446   4.059  1.8732 -0.2595  1.5053
   63RES   H37626540   7.705   7.284   4.063 -0.5092  0.1281 -0.6320
   63RES   H37726541   0.083   7.379   4.265  1.7939  0.7896  1.6829
   63RES   H37826542   0.131   7.206   4.226  1.4118 -0.8191 -0.9077
   63RES   H37926543   0.240   7.340   4.193 -0.2862 -0.6236 -2.3937
   63RES   C38026544   0.416   7.439   3.536 -0.1058  0.1529  0.6164
   63RES   C38126545   0.552   7.373   3.548 -0.5665 -0.3139  0.0669
   63RES   C38226546   0.584   7.300   3.414  0.5433 -0.6025  0.2556
   63RES   C38326547   0.516   7.168   3.391 -0.2129 -0.3650  0.8108
   63RES   C38426548   0.460   7.141   3.244  0.1086  0.1079 -0.0486
   63RES   C38526549   0.336   7.220   3.196  0.5240 -0.1272  0.0372
   63RES   C38626550   0.285   7.194   3.049 -0.0530 -0.6070  0.5197
   63RES   H38726551   0.361   7.368   3.474  1.9509  0.6285 -1.8488
   63RES   H38826552   0.429   7.523   3.469  0.0820 -1.2178 -1.1023
   63RES   H38926553   0.562   7.303   3.631  0.6335 -0.1304  0.0776
   63RES   H39026554   0.691   7.279   3.408  0.8383  0.9032 -0.0011
   63RES   H39126555   0.562   7.359   3.325 -0.1007 -0.6647  0.3716
   63RES   H39226556   0.582   7.090   3.428 -0.2591  0.2764  2.2846
   63RES   H39326557   0.433   7.153   3.459 -0.4397 -0.4541  0.5166
   63RES   H39426558   0.552   7.158   3.187 -0.7990  0.4183 -1.4456
   63RES   H39526559   0.443   7.034   3.236  0.4481  0.0929 -0.6179
   63RES   H39626560   0.355   7.327   3.205 -1.6950  0.5280 -2.5184
   63RES   H39726561   0.248   7.199   3.257  0.8662  0.7329  0.8480
   63RES   H39826562   0.354   7.227   2.972  0.3061 -0.7401  0.7868
   63RES   H39926563   0.193   7.251   3.033 -0.4325 -1.3121  0.1685
   63RES   H40026564   0.275   7.090   3.017  0.2979  0.2217 -2.4821
   63RES   C40126565   0.661   7.477   3.581 -0.2793  0.1228 -0.4293
   63RES   C40226566   0.789   7.415   3.650  0.5674  0.0843  0.4123
   63RES   C40326567   0.903   7.517   3.673 -0.6083  0.4748 -0.6517
   63RES   C40426568   1.039   7.455   3.734 -0.0532 -0.2290  0.3858
   63RES   C40526569   1.105   7.557   3.827 -0.0578 -0.5552  0.1635
   63RES   C40626570   1.253   7.531   3.858 -0.2907  0.1159  0.5384
   63RES   C40726571   1.314   7.636   3.949  0.1138  0.0620 -0.0649
   63RES   H40826572   0.634   7.563   3.644  0.5502 -0.4588  0.7368
   63RES   H40926573   0.697   7.528   3.492  0.1276  0.5267 -0.0328
   63RES   H41026574   0.828   7.335   3.588 -0.1721 -0.5825  0.7953
   63RES   H41126575   0.871   7.596   3.741  1.3794  0.3646  0.4646
   63RES   H41226576   0.928   7.568   3.580  1.3077 -1.8072 -1.4440
   63RES   H41326577   1.108   7.427   3.655 -0.5210 -0.9487  0.2232
   63RES   H41426578   1.017   7.370   3.800 -2.6885 -0.5288 -0.7951
   63RES   H41526579   1.094   7.657   3.785  0.5549  0.0912  1.4907
   63RES   H41626580   1.052   7.563   3.922  0.0167 -0.3729  0.1945
   63RES   H41726581   1.264   7.434   3.907 -2.3617 -0.1758  0.4630
   63RES   H41826582   1.314   7.541   3.768 -0.1226  0.2105  0.6638
   63RES   H41926583   1.245   7.671   4.026 -0.6547 -1.6431  0.0546
   63RES   H42026584   1.344   7.723   3.891  0.3980  0.7310  1.0722
   63RES   H42126585   1.409   7.597   3.987 -0.0224 -1.4380 -1.2246
   63RES   H42226586   0.763   7.362   3.742 -1.2707 -0.6915 -0.5279
   64RES     C126587   2.684   7.651   4.295  0.7694  0.1735 -0.2161
   64RES     C226588   2.551   7.708   4.321 -0.9984  0.5100 -0.2181
   64RES     C326589   2.564   0.107   4.415  0.9267  0.7520 -0.3594
   64RES     C426590   2.674   0.212   4.379 -0.6926  0.3158  0.1365
   64RES     C526591   2.649   0.334   4.473  0.0199 -0.7995  0.9815
   64RES     C626592   2.734   0.456   4.438  0.5771  0.2898  0.1052
   64RES     C726593   2.680   0.504   4.305 -0.3365 -0.0235  0.2879
   64RES     H826594   2.715   7.620   4.395 -1.8852  0.7922  0.8173
   64RES     H926595   2.765   7.710   4.251  2.0375 -0.8739  0.6809
   64RES    H1026596   2.510   0.006   4.223 -3.1403 -1.0962  0.2340
   64RES    H1126597   2.464   0.149   4.429  0.4449 -0.0538 -1.3432
   64RES    H1226598   2.587   0.072   4.515 -2.0963 -3.9744 -1.1419
   64RES    H1326599   2.775   0.182   4.404 -1.3804 -1.8445  0.4592
   64RES    H1426600   2.665   0.235   4.273 -0.5673  0.0176  0.0615
   64RES    H1526601   2.663   0.306   4.578  0.4621  1.4486  1.5472
   64RES    H1626602   2.546   0.370   4.473  0.7414  1.4023 -0.8224
   64RES    H1726603   2.836   0.419   4.445  0.1068 -1.1617 -0.5476
   64RES    H1826604   2.715   0.530   4.515  0.8951 -1.1493  1.5902
   64RES    H1926605   2.723   0.601   4.281 -2.4052  0.6211 -0.9909
   64RES    H2026606   2.571   0.511   4.306 -0.3036  0.3828  1.1876
   64RES    H2126607   2.714   0.447   4.218  0.5519 -1.3526  1.4872
   64RES    H2226608   2.679   7.566   4.227 -3.4702 -0.4648  0.7700
   64RES    C2326609   2.455   7.597   4.375  0.1777 -0.3620 -0.0467
   64RES    C2426610   2.309   7.638   4.386  0.4997  0.1373  0.0986
   64RES    C2526611   2.233   7.530   4.467 -0.3494  0.7718 -0.0286
   64RES    C2626612   2.102   7.569   4.528 -0.1875  0.4847  0.1055
   64RES    C2726613   2.039   7.461   4.612 -0.6101  0.1949 -0.4488
   64RES    C2826614   1.896   7.508   4.669 -0.8399 -0.1082 -0.2047
   64RES    C2926615   1.821   7.428   4.780 -0.2456 -0.6805  0.0494
   64RES    H3026616   2.461   7.502   4.322 -1.3237 -0.5970  0.1749
   64RES    H3126617   2.498   7.560   4.469 -1.3063  0.6889  1.0638
   64RES    H3226618   2.316   7.721   4.456  0.0757  0.0784  0.2097
   64RES    H3326619   2.295   7.502   4.552  1.8219 -0.5967 -2.0341
   64RES    H3426620   2.209   7.450   4.398  1.9271  1.8199 -2.1087
   64RES    H3526621   2.032   7.603   4.452  0.2820 -0.0531 -0.5827
   64RES    H3626622   2.122   7.654   4.593  1.3697 -0.0273  0.3301
   64RES    H3726623   2.099   7.436   4.699 -1.3212 -0.0144 -0.0183
   64RES    H3826624   2.016   7.373   4.552 -6.0978  2.1440 -1.4945
   64RES    H3926625   1.830   7.517   4.583 -2.3947  1.5714  1.1191
   64RES    H4026626   1.912   7.611   4.700 -0.9542  0.6634 -2.5996
   64RES    H4126627   1.718   7.464   4.779 -0.2086 -0.5366  0.8152
   64RES    H4226628   1.819   7.327   4.741 -0.1275 -1.0785  1.0549
   64RES    H4326629   1.867   7.437   4.878 -1.9758 -0.6578  0.8798
   64RES    C4426630   2.228   7.669   4.255  0.2704 -0.5608 -0.4204
   64RES    C4526631   2.202   0.101   4.239  0.0093  0.4062  0.1224
   64RES    C4626632   2.181   0.128   4.081  0.1502 -0.3388 -0.9626
   64RES    C4726633   2.311   0.141   4.009  0.8456 -0.4022 -0.2577
   64RES    C4826634   2.392   0.271   4.043  0.3744 -0.2899 -0.1770
   64RES    C4926635   2.347   0.405   3.973  0.6561  0.1753  0.7501
   64RES    C5026636   2.414   0.517   4.051  0.0634  0.0974 -0.3560
   64RES    H5126637   2.135   7.618   4.232 -0.6697  0.5033  0.8975
   64RES    H5226638   2.297   7.638   4.177  1.8000 -0.6095  0.9143
   64RES    H5326639   2.291   0.158   4.263  0.9597 -0.4580 -1.2083
   64RES    H5426640   2.124   0.217   4.054 -2.3285 -1.7666 -0.6195
   64RES    H5526641   2.114   0.059   4.028  1.6221 -1.1446 -1.8139
   64RES    H5626642   2.376   0.056   4.029  0.8456 -0.0067  1.5736
   64RES    H5726643   2.289   0.161   3.904 -0.1765 -0.2371 -0.0176
   64RES    H5826644   2.490   0.251   4.000 -0.9007 -0.8068 -2.9216
   64RES    H5926645   2.396   0.287   4.151 -1.2933  1.5978 -0.3663
   64RES    H6026646   2.239   0.419   3.985  0.0630 -2.0940 -1.4857
   64RES    H6126647   2.383   0.419   3.872 -1.7706  1.1883 -0.0121
   64RES    H6226648   2.376   0.533   4.152 -0.5971 -0.5051 -0.4976
   64RES    H6326649   2.399   0.616   4.008  0.1450  0.1813 -0.1925
   64RES    H6426650   2.519   0.491   4.064  0.6988  3.2798  1.5734
   64RES    C6526651   2.076   0.156   4.318 -0.2240  0.2261 -0.4296
   64RES    C6626652   2.059   0.306   4.318  0.7384  0.0921  0.2502
   64RES    C6726653   2.149   0.376   4.424  0.7746 -0.1182  0.4021
   64RES    C6826654   2.184   0.523   4.393 -0.4317  0.1603  0.0212
   64RES    C6926655   2.282   0.585   4.488 -0.4217 -0.3494  0.2129
   64RES    C7026656   2.289   0.737   4.474  0.5234  0.6488  0.3257
   64RES    C7126657   2.368   0.794   4.585 -0.2417  0.5552 -0.5090
   64RES    H7226658   1.989   0.117   4.266  0.1873 -1.3984  0.0702
   64RES    H7326659   2.067   0.110   4.416 -0.7321  0.4016 -0.3956
   64RES    H7426660   2.113   0.340   4.230  2.5706 -1.9479  0.5584
   64RES    H7526661   2.091   0.379   4.516  1.5211  0.4345  0.8574
   64RES    H7626662   2.240   0.315   4.424 -0.2363 -1.6726  2.1178
   64RES    H7726663   2.229   0.524   4.294  0.0563  1.5153  0.2364
   64RES    H7826664   2.101   0.592   4.378 -1.5307 -0.7015  1.8944
   64RES    H7926665   2.266   0.552   4.590 -1.9552  0.9821  0.4269
   64RES    H8026666   2.380   0.547   4.462  0.5536  1.1157  1.7026
   64RES    H8126667   2.200   0.797   4.491  0.5854  0.3948  1.5803
   64RES    H8226668   2.333   0.765   4.378  1.0348 -0.7430  0.1466
   64RES    H8326669   2.472   0.761   4.579  0.2898  1.9747  0.6717
   64RES    H8426670   2.365   0.903   4.577  1.2999  0.6012 -0.6945
   64RES    H8526671   2.329   0.766   4.682  1.1937 -0.2526 -0.1433
   64RES    C8626672   1.905   0.340   4.317  0.0534  0.8763  0.3451
   64RES    C8726673   1.840   0.322   4.174  0.4256 -0.4281 -0.3797
   64RES    C8826674   1.701   0.256   4.192  1.0801  0.4720 -0.1662
   64RES    C8926675   1.701   0.106   4.234  0.2729 -0.7380 -0.2273
   64RES    C9026676   1.562   0.059   4.213 -0.0972 -0.3987  0.1083
   64RES    C9126677   1.459   0.131   4.299  0.4740 -0.6287 -0.0793
   64RES    C9226678   1.326   0.053   4.316 -0.3802  0.5656 -0.0612
   64RES    H9326679   1.857   0.269   4.385 -0.0434 -0.1909 -0.8381
   64RES    H9426680   1.881   0.442   4.347 -4.4416 -0.7848  2.9343
   64RES    H9526681   1.902   0.252   4.117  0.6596  0.2238 -0.9333
   64RES    H9626682   1.642   0.316   4.260  1.0919 -0.7567  0.9529
   64RES    H9726683   1.659   0.266   4.092 -1.4396  0.4929  0.8632
   64RES    H9826684   1.767   0.049   4.168  0.0635 -0.6463 -0.5154
   64RES    H9926685   1.730   0.082   4.336  0.3344 -1.7007 -0.4605
   64RES   H10026686   1.549   7.678   4.227 -3.7354 -0.1538 -0.6803
   64RES   H10126687   1.532   0.075   4.110  0.5889 -0.3061 -0.0768
   64RES   H10226688   1.495   0.173   4.393  0.3536  0.1288 -0.3730
   64RES   H10326689   1.437   0.222   4.245  0.0711 -0.0893  0.9760
   64RES   H10426690   1.341   7.686   4.369 -2.1098  0.9953  1.2278
   64RES   H10526691   1.291   0.015   4.220  0.8374 -2.4924  0.6438
   64RES   H10626692   1.244   0.110   4.359 -0.8200  0.9690 -1.3868
   64RES   C10726693   1.824   0.462   4.103 -0.0559  0.6899 -0.1974
   64RES   C10826694   1.807   0.471   3.945 -0.0823  0.2811  1.0862
   64RES   C10926695   1.774   0.621   3.898 -0.0299  0.3646  0.2214
   64RES   C11026696   1.650   0.689   3.947  0.3416 -0.2880 -0.4790
   64RES   C11126697   1.611   0.812   3.864  0.8033  0.3883  0.1361
   64RES   C11226698   1.500   0.898   3.928 -0.4529 -0.0605 -0.1102
   64RES   C11326699   1.366   0.825   3.932 -0.6443 -0.1928  0.5841
   64RES   H11426700   1.914   0.517   4.127  1.5154 -2.4048  1.2755
   64RES   H11526701   1.737   0.502   4.155  0.1655  1.4692 -0.4281
   64RES   H11626702   1.714   0.419   3.921  2.0469 -2.8667 -0.5798
   64RES   H11726703   1.775   0.609   3.790 -1.9879 -0.0394  0.2394
   64RES   H11826704   1.862   0.680   3.924  2.2965 -2.7376 -0.3608
   64RES   H11926705   1.573   0.611   3.942  0.7609 -0.7045 -0.4278
   64RES   H12026706   1.659   0.721   4.050  0.9929 -0.3495 -0.5200
   64RES   H12126707   1.576   0.781   3.766  1.1503 -1.0009  0.4396
   64RES   H12226708   1.703   0.871   3.854  1.7474 -0.5865  2.5944
   64RES   H12326709   1.534   0.918   4.029 -1.4565  0.8683  0.0468
   64RES   H12426710   1.496   0.998   3.885 -1.6365  0.5448  1.3724
   64RES   H12526711   1.343   0.791   4.033  1.0083 -0.9437  0.7282
   64RES   H12626712   1.286   0.894   3.908 -1.6684 -0.7618  2.3030
   64RES   H12726713   1.358   0.739   3.864 -1.6912 -0.6761  1.3026
   64RES   C12826714   1.929   0.406   3.872  0.4893 -0.3037 -0.0580
   64RES   C12926715   1.898   0.312   3.751 -0.5142 -0.6837 -0.3383
   64RES   C13026716   1.860   0.169   3.797 -0.0328 -0.4029 -0.1825
   64RES   C13126717   1.795   0.078   3.694  0.2603  0.6567 -0.3778
   64RES   C13226718   1.754   7.663   3.748  0.2499 -0.1600  0.4897
   64RES   C13326719   1.681   7.562   3.660  0.2327  0.1237  0.3401
   64RES   C13426720   1.639   7.433   3.731 -0.3593 -0.4907  0.0963
   64RES   H13526721   2.007   0.478   3.846  0.6576 -0.0640  1.1050
   64RES   H13626722   1.984   0.356   3.951 -2.6832 -0.9455  1.8336
   64RES   H13726723   1.810   0.351   3.701  1.2211  0.4801 -2.6341
   64RES   H13826724   1.800   0.178   3.888 -2.8699 -1.3175 -1.8836
   64RES   H13926725   1.951   0.123   3.834  1.1032  1.4067 -0.6958
   64RES   H14026726   1.871   0.042   3.624  0.9357 -1.0993  1.2238
   64RES   H14126727   1.718   0.123   3.632 -0.2023 -1.3688 -1.3338
   64RES   H14226728   1.698   7.691   3.837 -1.8583  1.8027 -1.4016
   64RES   H14326729   1.841   7.602   3.773  0.4223  0.0522  0.4036
   64RES   H14426730   1.747   7.539   3.576  1.2467 -1.0856  1.4348
   64RES   H14526731   1.587   7.603   3.625  0.4878 -1.5814 -2.4866
   64RES   H14626732   1.723   7.363   3.735  0.5547  0.5623 -0.3860
   64RES   H14726733   1.562   7.375   3.680  1.4837 -2.3523 -0.6001
   64RES   H14826734   1.597   7.453   3.830  0.6051 -0.5074  0.5203
   64RES   C14926735   2.021   0.303   3.657  0.0291 -0.2907  0.0062
   64RES   C15026736   2.035   0.422   3.559  0.1561  0.2056  0.9596
   64RES   C15126737   1.923   0.433   3.449  0.6739 -0.4767  0.3513
   64RES   C15226738   1.903   0.314   3.364  0.8053  0.6241  0.0851
   64RES   C15326739   1.804   0.336   3.249 -0.0536  0.1125  0.8904
   64RES   C15426740   1.793   0.223   3.153 -0.8816 -0.4348  0.4588
   64RES   C15526741   1.696   0.240   3.034 -0.1719 -0.2478  1.0462
   64RES   H15626742   2.114   0.300   3.714  1.1196  0.1019 -1.7084
   64RES   H15726743   2.011   0.213   3.596 -2.7646  0.5661 -0.8354
   64RES   H15826744   2.034   0.512   3.621 -0.9064  0.1841  0.9915
   64RES   H15926745   1.834   0.450   3.510 -1.8516 -1.4350 -2.9143
   64RES   H16026746   1.929   0.519   3.381 -2.2814 -0.2851  0.2476
   64RES   H16126747   1.877   0.233   3.432  1.0508  0.4880  0.0187
   64RES   H16226748   1.998   0.279   3.323 -0.3740 -1.6740 -0.8197
   64RES   H16326749   1.838   0.420   3.189  1.6786 -0.0877  1.5747
   64RES   H16426750   1.705   0.366   3.284 -0.3852  1.1958 -0.8749
   64RES   H16526751   1.752   0.139   3.210 -2.5632  0.8695  1.2164
   64RES   H16626752   1.890   0.186   3.120 -0.8154 -0.7806  1.0433
   64RES   H16726753   1.601   0.259   3.083 -0.8213 -1.6723  0.3776
   64RES   H16826754   1.675   0.158   2.965  0.1781 -0.7066  1.4818
   64RES   H16926755   1.719   0.335   2.985  0.6284 -0.9992 -0.0798
   64RES   C17026756   2.179   0.431   3.504  0.5555 -0.1919  0.0095
   64RES   C17126757   2.220   0.566   3.438  0.4500 -0.6384  0.4237
   64RES   C17226758   2.258   0.667   3.548  0.3484  0.9580  0.0354
   64RES   C17326759   2.278   0.809   3.488  0.3585  0.9139  0.1284
   64RES   C17426760   2.326   0.905   3.607  0.1004  0.0157 -0.2806
   64RES   C17526761   2.369   1.041   3.557  0.2942  0.1171  0.0429
   64RES   C17626762   2.430   1.127   3.667 -0.3133  0.3517 -0.2665
   64RES   H17726763   2.189   0.350   3.432  0.4960  0.2794 -0.5367
   64RES   H17826764   2.257   0.403   3.575  0.1793 -0.2092  0.4218
   64RES   H17926765   2.133   0.599   3.382  1.8161 -3.0448 -3.3016
   64RES   H18026766   2.339   0.635   3.613 -0.4924 -0.5642  0.3588
   64RES   H18126767   2.187   0.681   3.629  0.1429 -4.5403  0.9784
   64RES   H18226768   2.191   0.846   3.435 -0.1029  0.2875  0.4495
   64RES   H18326769   2.357   0.813   3.413 -1.0097 -0.3002 -1.3918
   64RES   H18426770   2.407   0.864   3.667  2.3606  2.1116 -1.8331
   64RES   H18526771   2.236   0.927   3.664 -0.7432  1.2544 -2.0320
   64RES   H18626772   2.290   1.093   3.503 -2.0646 -1.8689  1.4564
   64RES   H18726773   2.445   1.022   3.481  1.0609 -2.3174  1.3467
   64RES   H18826774   2.348   1.167   3.726  0.3360 -0.2703  1.0707
   64RES   H18926775   2.473   1.218   3.624 -0.3061  0.3643 -0.2326
   64RES   H19026776   2.500   1.083   3.738 -0.0300 -0.1808 -0.8654
   64RES   C19126777   2.336   0.535   3.339  0.2508 -0.1148  0.4475
   64RES   C19226778   2.284   0.490   3.196  1.4044 -0.6121 -0.5451
   64RES   C19326779   2.229   0.625   3.134  1.0251  0.3024  0.2588
   64RES   C19426780   2.138   0.603   3.011 -0.2524 -0.8086  0.0325
   64RES   C19526781   2.055   0.727   2.963  0.3180 -0.2172  0.1443
   64RES   C19626782   1.975   0.691   2.829 -0.5515 -0.7707 -0.4441
   64RES   C19726783   1.867   0.579   2.853 -0.5865 -0.7451 -0.5651
   64RES   H19826784   2.404   0.459   3.379  0.5541  0.3077  0.7459
   64RES   H19926785   2.405   0.619   3.327 -0.3412  0.1344 -1.3249
   64RES   H20026786   2.200   0.420   3.199 -0.3332  1.3716 -1.0607
   64RES   H20126787   2.312   0.689   3.108  2.9455 -1.3746  2.0103
   64RES   H20226788   2.173   0.678   3.211 -0.2184 -1.0443  0.3167
   64RES   H20326789   2.067   0.521   3.011 -0.5787 -0.5400  1.4424
   64RES   H20426790   2.207   0.578   2.931  1.0779  0.3544  0.7894
   64RES   H20526791   1.987   0.763   3.040  0.0950 -1.2314  0.4260
   64RES   H20626792   2.112   0.820   2.966  1.3327 -0.8639  1.3034
   64RES   H20726793   2.045   0.658   2.753  0.5269 -0.7063  0.5074
   64RES   H20826794   1.923   0.779   2.793 -1.4777 -0.5996  1.2773
   64RES   H20926795   1.908   0.479   2.864 -0.4122 -0.3848  2.2616
   64RES   H21026796   1.795   0.584   2.771 -0.5305 -0.3642 -0.5928
   64RES   H21126797   1.820   0.605   2.947  1.6316  2.1043 -0.1406
   64RES   C21226798   2.407   0.441   3.113 -0.4046 -0.6954  0.1543
   64RES   C21326799   2.450   0.292   3.139  0.1826 -0.3636 -0.2230
   64RES   C21426800   2.332   0.191   3.137  0.0330  0.3314  0.0344
   64RES   C21526801   2.283   0.170   2.992 -0.2246 -0.1884 -0.4298
   64RES   C21626802   2.132   0.122   2.987  0.2992  0.1968 -0.1357
   64RES   C21726803   2.098   0.085   2.845 -0.0430 -0.0844 -0.0967
   64RES   C21826804   1.950   0.051   2.828 -0.5220 -0.5553  0.1111
   64RES   H21926805   2.489   0.510   3.130  0.1774 -0.8444 -1.9179
   64RES   H22026806   2.395   0.448   3.005  0.6937 -0.9252  0.0125
   64RES   H22126807   2.488   0.289   3.241  0.2706 -0.4607 -0.2591
   64RES   H22226808   2.366   0.097   3.181 -1.4386 -0.3340 -0.2140
   64RES   H22326809   2.242   0.210   3.195  0.2364 -0.3985  0.5906
   64RES   H22426810   2.346   0.095   2.944 -0.9084 -0.2202 -1.2797
   64RES   H22526811   2.300   0.255   2.927  0.1617 -0.2376 -0.3953
   64RES   H22626812   2.122   0.040   3.058 -0.4273 -0.1321 -0.6096
   64RES   H22726813   2.073   0.208   3.019 -2.3757 -1.6161 -0.0273
   64RES   H22826814   2.119   0.165   2.774  0.7150 -1.8864 -1.9508
   64RES   H22926815   2.166   0.004   2.819 -0.6185 -1.0054  1.2326
   64RES   H23026816   1.919   0.085   2.730 -0.0677  2.5683  0.9936
   64RES   H23126817   1.893   0.116   2.894  1.0059 -1.0611  1.9869
   64RES   H23226818   1.927   7.671   2.835  0.3788 -0.7784 -0.2927
   64RES   C23326819   2.568   0.238   3.045 -0.1594  0.0153 -0.0158
   64RES   C23426820   2.709   0.289   3.075  0.1233 -0.3328 -0.3485
   64RES   C23526821   2.774   0.215   3.196  0.0103 -0.0774  0.3361
   64RES   C23626822   2.883   0.300   3.267 -0.5404 -0.3381 -0.7299
   64RES   C23726823   2.957   0.214   3.378  0.0828  0.1515 -0.1095
   64RES   C23826824   3.097   0.277   3.420  0.0010  0.0185 -0.1789
   64RES   C23926825   3.094   0.396   3.520 -0.2987  0.0206  0.7168
   64RES   H24026826   2.546   0.256   2.940 -0.7822  1.2829  0.3262
   64RES   H24126827   2.581   0.130   3.055 -2.7202 -0.5003 -1.7591
   64RES   H24226828   2.701   0.394   3.105  0.7097 -0.7001  1.1233
   64RES   H24326829   2.810   0.119   3.158  2.5365  0.7244  0.6244
   64RES   H24426830   2.693   0.206   3.269 -0.5298  1.6757 -0.0357
   64RES   H24526831   2.846   0.394   3.310  0.2789 -0.1534 -0.4113
   64RES   H24626832   2.962   0.327   3.197  0.9213 -0.3661  0.8797
   64RES   H24726833   2.980   0.119   3.331 -0.6591 -0.0732 -0.0226
   64RES   H24826834   2.898   0.183   3.464  0.5958 -0.9093 -0.1298
   64RES   H24926835   3.158   0.190   3.445 -0.3942 -0.0707  0.4784
   64RES   H25026836   3.151   0.305   3.329  0.3480 -1.8307 -0.5771
   64RES   H25126837   3.028   0.477   3.490 -0.0675 -0.4586 -1.1681
   64RES   H25226838   3.053   0.359   3.613  2.5569  0.9201  2.4115
   64RES   H25326839   3.193   0.425   3.554  0.0462  0.7111 -0.8063
   64RES   C25426840   2.796   0.290   2.953  0.6315 -0.1641  0.4596
   64RES   C25526841   2.766   0.406   2.855 -0.3163  0.1878  0.9390
   64RES   C25626842   2.761   0.355   2.700  0.1072  0.8444  0.2638
   64RES   C25726843   2.672   0.234   2.665 -0.2067  0.5975  0.4562
   64RES   C25826844   2.540   0.292   2.623 -0.3499 -0.6550  0.4172
   64RES   C25926845   2.433   0.183   2.614  0.3543 -0.7466  0.3692
   64RES   C26026846   2.333   0.212   2.507  0.1173  0.0611  0.2578
   64RES   H26126847   2.794   0.193   2.904  0.0264  0.9469 -1.7743
   64RES   H26226848   2.901   0.285   2.980  0.8262  1.8647  0.1203
   64RES   H26326849   2.665   0.443   2.874  0.0487  1.5802  0.2609
   64RES   H26426850   2.860   0.319   2.671  0.0125 -0.2057  1.2143
   64RES   H26526851   2.733   0.437   2.634 -0.6890  1.0011  0.7918
   64RES   H26626852   2.719   0.184   2.581  2.3203  1.4045  1.3317
   64RES   H26726853   2.667   0.157   2.742  0.2909  1.3787  1.2858
   64RES   H26826854   2.548   0.349   2.530  3.7214 -2.1286 -0.2560
   64RES   H26926855   2.502   0.367   2.692  1.4585  0.7140 -0.0050
   64RES   H27026856   2.481   0.096   2.570 -0.0721 -0.1989 -1.2241
   64RES   H27126857   2.381   0.157   2.705 -1.5197  0.1960 -0.4074
   64RES   H27226858   2.263   0.293   2.528  1.6263  1.3224  0.4857
   64RES   H27326859   2.375   0.220   2.407  0.1060 -0.0395  0.2455
   64RES   H27426860   2.270   0.123   2.502  2.5049 -1.5878 -1.3300
   64RES   C27526861   2.866   0.517   2.856  0.5195  0.6541  0.5393
   64RES   C27626862   2.863   0.608   2.985 -1.0412  0.0146 -0.3890
   64RES   C27726863   2.738   0.704   3.001 -0.1991  0.1365 -0.2498
   64RES   C27826864   2.727   0.792   3.125  0.2094  0.3126 -0.1452
   64RES   C27926865   2.733   0.708   3.252  0.2579 -0.4965 -0.3867
   64RES   C28026866   2.710   0.776   3.386 -0.2428  0.1231  0.0858
   64RES   C28126867   2.664   0.667   3.485  0.0876 -0.0418  0.6707
   64RES   H28226868   2.872   0.573   2.762  1.8850 -1.4107 -0.6487
   64RES   H28326869   2.961   0.463   2.860 -0.2235 -0.8755 -1.4904
   64RES   H28426870   2.855   0.539   3.070  0.4309  0.1720 -0.1077
   64RES   H28526871   2.730   0.770   2.915  2.0266 -0.7128 -1.1315
   64RES   H28626872   2.643   0.651   3.000  0.6415 -1.3951 -0.7645
   64RES   H28726873   2.633   0.846   3.114 -0.3757 -0.9310 -1.4371
   64RES   H28826874   2.797   0.875   3.115  0.9135 -0.2130  0.4188
   64RES   H28926875   2.825   0.648   3.246  1.2059  0.7769  0.9964
   64RES   H29026876   2.669   0.621   3.237 -0.3220  0.1769 -1.9489
   64RES   H29126877   2.796   0.830   3.427  0.1165  0.5819 -1.2469
   64RES   H29226878   2.632   0.851   3.376  0.7478  1.3220  1.0942
   64RES   H29326879   2.588   0.599   3.447 -0.7857  1.1648  0.2198
   64RES   H29426880   2.614   0.727   3.561  1.1787 -0.1887  1.5230
   64RES   H29526881   2.742   0.601   3.524  1.3659  0.4712 -0.9785
   64RES   C29626882   2.989   0.692   3.002 -0.4241  0.4728 -0.1853
   64RES   C29726883   3.020   0.806   2.890  0.2679 -0.4210 -0.8269
   64RES   C29826884   3.127   0.757   2.780  0.1300  0.6625 -0.7721
   64RES   C29926885   3.275   0.736   2.837 -0.4400 -0.3249  0.0802
   64RES   C30026886   3.378   0.676   2.735  0.5476 -0.1599  0.0019
   64RES   C30126887   3.411   0.765   2.617 -0.5134 -0.2954 -0.1081
   64RES   C30226888   3.512   0.706   2.529 -0.2062  0.1443 -0.3922
   64RES   H30326889   3.001   0.736   3.100 -2.9576 -0.1072  0.4038
   64RES   H30426890   3.068   0.616   2.994  0.7433  1.4329  1.8578
   64RES   H30526891   2.931   0.816   2.828 -0.4198  3.2249  0.6142
   64RES   H30626892   3.103   0.671   2.717  0.3269  0.9059 -1.1861
   64RES   H30726893   3.135   0.841   2.711  1.2634  1.2352  0.0409
   64RES   H30826894   3.275   0.666   2.920 -0.7808 -1.0090 -0.4919
   64RES   H30926895   3.327   0.829   2.862 -1.2351  0.1957 -0.1929
   64RES   H31026896   3.342   0.578   2.705  0.6594 -0.2798  0.2567
   64RES   H31126897   3.466   0.671   2.800 -0.0062  0.7219  0.8410
   64RES   H31226898   3.326   0.787   2.553  1.8923 -0.6591 -3.5391
   64RES   H31326899   3.450   0.863   2.644  3.1801 -1.7619  0.2155
   64RES   H31426900   3.489   0.601   2.510  0.9829 -0.0914 -0.6172
   64RES   H31526901   3.511   0.756   2.432  0.3992  0.2462 -0.3505
   64RES   H31626902   3.614   0.695   2.568  0.1481 -2.2610 -1.8787
   64RES   C31726903   3.062   0.945   2.953 -0.2287 -0.0856 -0.1587
   64RES   C31826904   3.074   1.073   2.867 -0.4679  0.1575  0.3153
   64RES   C31926905   2.951   1.161   2.886 -0.3835  0.7363  0.9153
   64RES   C32026906   2.822   1.098   2.831  0.0356  0.8368  0.1954
   64RES   C32126907   2.717   1.212   2.819  0.2430  0.7434 -0.5094
   64RES   C32226908   2.581   1.168   2.780 -0.0595 -0.1356  0.5885
   64RES   C32326909   2.479   1.286   2.788  0.5032  0.9430  0.2346
   64RES   H32426910   3.160   0.930   3.001  0.6198  3.6631 -0.6086
   64RES   H32526911   2.996   0.957   3.039 -0.9599  1.2131 -0.8842
   64RES   H32626912   3.056   1.047   2.762  2.7238 -1.1274  0.0102
   64RES   H32726913   2.964   1.257   2.837  2.5453  0.2795  0.6929
   64RES   H32826914   2.937   1.172   2.993 -2.1904  2.5816  0.5135
   64RES   H32926915   2.788   1.022   2.902  0.8689  0.9697  0.7455
   64RES   H33026916   2.842   1.036   2.744 -2.9847  0.2945 -0.1597
   64RES   H33126917   2.745   1.287   2.744  1.6305  1.2922  0.5433
   64RES   H33226918   2.712   1.251   2.920  1.4753 -0.3976  0.0068
   64RES   H33326919   2.563   1.087   2.850  0.6034 -3.0337 -2.5098
   64RES   H33426920   2.578   1.115   2.685  2.2259  0.8970 -0.0950
   64RES   H33526921   2.490   1.345   2.697  0.1140  2.1078  0.9296
   64RES   H33626922   2.500   1.356   2.868  0.0321 -0.2222  1.4034
   64RES   H33726923   2.378   1.247   2.801  1.1257 -0.4993  0.8719
   64RES   C33826924   3.212   1.141   2.880  1.0842 -0.3131  0.9010
   64RES   C33926925   3.249   1.220   2.750  0.3420  0.2768  0.2576
   64RES   C34026926   3.306   1.133   2.635 -0.1112 -0.0456 -0.0037
   64RES   C34126927   3.285   1.195   2.493 -0.4063 -0.3793  0.3053
   64RES   C34226928   3.363   1.102   2.402 -0.2989  0.1053  0.4033
   64RES   C34326929   3.364   1.124   2.254 -0.4817 -0.9902  0.6614
   64RES   C34426930   3.449   1.250   2.204  0.0475  0.5873 -0.6412
   64RES   H34526931   3.286   1.062   2.888  1.1076 -0.4842 -0.7516
   64RES   H34626932   3.215   1.199   2.972 -0.9393 -1.1689  1.5330
   64RES   H34726933   3.156   1.255   2.705  1.3805  2.0284 -0.5745
   64RES   H34826934   3.400   1.095   2.675 -0.4621 -0.9038  0.0274
   64RES   H34926935   3.241   1.045   2.629  0.1240 -0.1558 -1.1978
   64RES   H35026936   3.337   1.290   2.478  3.9884 -2.5909  0.8487
   64RES   H35126937   3.179   1.212   2.473 -0.1397 -1.6747 -2.4114
   64RES   H35226938   3.467   1.107   2.434 -0.4308 -0.0837  0.8688
   64RES   H35326939   3.330   1.000   2.418  1.7389 -0.6244  0.1098
   64RES   H35426940   3.386   1.029   2.207 -0.9401 -0.3208 -0.9463
   64RES   H35526941   3.264   1.151   2.220  0.9877  1.8288 -1.6487
   64RES   H35626942   3.400   1.345   2.225  0.2921  0.7350 -0.7276
   64RES   H35726943   3.465   1.242   2.097  2.6955  1.6836 -0.3788
   64RES   H35826944   3.546   1.240   2.253 -0.3076 -1.5505 -0.3204
   64RES   C35926945   3.337   1.343   2.772  0.4706 -0.2625 -0.6299
   64RES   C36026946   3.496   1.315   2.791  0.0377  0.3193 -0.2312
   64RES   C36126947   3.577   1.435   2.753 -0.0569 -0.6299 -0.6472
   64RES   C36226948   3.584   1.469   2.605 -0.7656 -0.1438  1.2851
   64RES   C36326949   3.663   1.601   2.573  0.3701  0.9179  0.8752
   64RES   C36426950   3.717   1.597   2.426 -0.1078  0.7877 -0.0886
   64RES   C36526951   3.609   1.604   2.317  0.9463  0.3849  0.0695
   64RES   H36626952   3.300   1.414   2.845 -1.7388 -0.9827 -1.0238
   64RES   H36726953   3.322   1.403   2.682 -0.9773 -0.0191 -0.2272
   64RES   H36826954   3.535   1.233   2.732 -1.5924  0.2935 -1.3043
   64RES   H36926955   3.548   1.525   2.806  1.4237  0.9427 -2.4696
   64RES   H37026956   3.675   1.414   2.795 -0.6543 -1.9784  0.1103
   64RES   H37126957   3.637   1.381   2.567 -1.6302 -0.1554  0.0540
   64RES   H37226958   3.487   1.461   2.555  0.1194  2.0245 -0.8779
   64RES   H37326959   3.594   1.685   2.587 -1.6473 -0.4434 -0.5272
   64RES   H37426960   3.739   1.613   2.650  1.5989  1.0684 -0.3329
   64RES   H37526961   3.789   1.678   2.411  0.8398 -0.1952 -0.9588
   64RES   H37626962   3.762   1.499   2.409 -1.4593 -0.1441  1.5877
   64RES   H37726963   3.550   1.515   2.337  0.1234  0.7175 -0.8707
   64RES   H37826964   3.541   1.688   2.333 -1.0842 -1.3377  0.7206
   64RES   H37926965   3.642   1.602   2.213  0.5021  0.1227 -0.0634
   64RES   C38026966   3.514   1.287   2.943 -0.0576  0.0466  0.5614
   64RES   C38126967   3.636   1.204   2.984  0.3178  0.1007 -1.3251
   64RES   C38226968   3.694   1.243   3.122 -0.1180  0.7171 -0.2407
   64RES   C38326969   3.615   1.195   3.242 -0.5635  0.5968 -0.2321
   64RES   C38426970   3.686   1.218   3.375  0.5901  0.4256  0.3031
   64RES   C38526971   3.626   1.155   3.505  0.5751 -0.7501  0.5824
   64RES   C38626972   3.728   1.143   3.624 -0.3306  0.2311  0.0369
   64RES   H38726973   3.523   1.384   2.992  2.0059  0.4750 -0.6026
   64RES   H38826974   3.427   1.246   2.994 -1.2998 -0.4421 -1.8398
   64RES   H38926975   3.710   1.243   2.915  0.6783  1.2753 -0.2965
   64RES   H39026976   3.707   1.352   3.123 -0.0005  0.7131 -0.9809
   64RES   H39126977   3.798   1.213   3.133 -0.3491  0.4209  1.2421
   64RES   H39226978   3.510   1.226   3.235 -0.0175  2.3646 -0.9746
   64RES   H39326979   3.615   1.087   3.229  2.2084  0.8754 -3.0534
   64RES   H39426980   3.789   1.186   3.355  1.6404  3.8972 -0.2404
   64RES   H39526981   3.681   1.327   3.385  2.6476  0.6005 -0.2468
   64RES   H39626982   3.585   1.054   3.497 -2.9557  0.6094  0.6111
   64RES   H39726983   3.534   1.204   3.537  0.9001  0.1519  0.1376
   64RES   H39826984   3.770   1.243   3.632 -0.7904  0.3380  1.1176
   64RES   H39926985   3.812   1.075   3.603  0.0130  0.9272 -0.8892
   64RES   H40026986   3.672   1.115   3.713 -2.8605  1.6937 -1.0596
   64RES   C40126987   3.615   1.046   2.959  0.2579 -0.4441  0.1871
   64RES   C40226988   3.747   0.966   2.946  0.0427  0.4391  0.0045
   64RES   C40326989   3.733   0.823   2.899  0.4954  0.2107  0.7757
   64RES   C40426990   3.863   0.736   2.910  0.5027  0.3687 -0.0054
   64RES   C40526991   3.844   0.584   2.926 -0.0000 -0.2447  0.2143
   64RES   C40626992   3.978   0.516   2.966 -0.2303  0.6202  0.9534
   64RES   C40726993   3.983   0.361   2.961 -0.1093  0.3745 -0.1823
   64RES   H40826994   3.555   1.036   2.869  3.4274  0.8700 -2.1438
   64RES   H40926995   3.557   1.006   3.042 -0.8857 -1.3927 -1.0518
   64RES   H41026996   3.804   0.960   3.038  0.3651 -3.2762 -0.3718
   64RES   H41126997   3.685   0.824   2.801 -1.1170  1.8271  1.5567
   64RES   H41226998   3.646   0.779   2.947 -0.5631  0.8344 -0.5287
   64RES   H41326999   3.916   0.774   2.998 -1.7116  2.8024  0.3310
   64RES   H41427000   3.917   0.760   2.819  1.8562  0.0680  0.6896
   64RES   H41527001   3.765   0.561   2.997 -2.4331  0.2363 -2.2330
   64RES   H41627002   3.810   0.549   2.829 -0.5785 -2.5415  1.2313
   64RES   H41727003   4.057   0.556   2.902  1.0026 -2.9169  0.1436
   64RES   H41827004   4.007   0.548   3.066 -0.3993 -3.5864  2.4387
   64RES   H41927005   3.910   0.299   3.013 -0.2243 -0.7975 -1.7035
   64RES   H42027006   4.077   0.324   3.002  0.4874  2.1225  0.0555
   64RES   H42127007   3.984   0.333   2.855 -0.5844 -1.0561  0.1712
   64RES   H42227008   3.814   1.013   2.874 -0.6795 -1.8706 -2.2711
   65RES     C127009   1.048   1.698   5.981 -0.1031  0.2730  0.3884
   65RES     C227010   1.072   1.816   6.075  1.0229  0.1863 -0.1187
   65RES     C327011   0.998   1.780   6.200 -0.5145 -0.2695 -0.3120
   65RES     C427012   1.027   1.866   6.330 -0.5719 -0.5073 -0.1730
   65RES     C527013   0.945   1.811   6.442  0.1132  0.6287  0.5674
   65RES     C627014   0.978   1.855   6.581 -0.2367 -0.2876  0.1451
   65RES     C727015   0.946   1.997   6.624 -0.3963  0.1186  0.0692
   65RES     H827016   1.095   1.705   5.883 -0.8248  1.5522  0.1241
   65RES     H927017   0.943   1.674   5.961  0.4468 -2.2713  0.3269
   65RES    H1027018   1.177   1.817   6.106 -0.0372 -1.6084  3.7440
   65RES    H1127019   0.890   1.779   6.184 -0.9319  0.5279  2.2174
   65RES    H1227020   1.022   1.677   6.225  1.6406  0.2553 -0.1313
   65RES    H1327021   1.133   1.861   6.355 -0.4959  0.1382 -0.3556
   65RES    H1427022   0.997   1.970   6.315  1.3236 -0.1101 -1.3014
   65RES    H1527023   0.955   1.703   6.438  0.5800  0.7230 -1.1307
   65RES    H1627024   0.840   1.825   6.419  0.7453  2.4266 -1.3971
   65RES    H1727025   1.082   1.827   6.599  0.3529  0.5092 -1.9291
   65RES    H1827026   0.928   1.783   6.647 -0.5303 -2.0603 -1.9555
   65RES    H1927027   0.977   2.006   6.729  0.1120  2.6444 -0.2632
   65RES    H2027028   0.842   2.025   6.609 -1.0124 -0.7512  2.5058
   65RES    H2127029   1.005   2.072   6.571  0.8230 -1.3245 -0.6388
   65RES    H2227030   1.090   1.612   6.034  0.6512  0.4587  0.0942
   65RES    C2327031   1.025   1.953   6.009 -0.7369 -0.0014 -0.1456
   65RES    C2427032   1.105   1.995   5.889 -0.0585 -0.3758 -0.2566
   65RES    C2527033   1.247   2.057   5.913 -0.5178  0.9642  0.0992
   65RES    C2627034   1.347   2.061   5.798 -0.2623 -0.3813  0.4734
   65RES    C2727035   1.490   2.118   5.834  0.2438  0.0788  0.2200
   65RES    C2827036   1.602   2.085   5.724 -0.7999  0.0870  0.6784
   65RES    C2927037   1.637   1.934   5.700  0.0335 -0.5296  0.2127
   65RES    H3027038   0.917   1.957   5.994 -0.6906  1.8439 -0.1224
   65RES    H3127039   1.043   2.025   6.089  2.2848 -0.8582  0.0170
   65RES    H3227040   1.108   1.908   5.824  2.3153 -0.6431  0.1631
   65RES    H3327041   1.295   2.012   6.000  0.2283  0.9033 -0.3410
   65RES    H3427042   1.235   2.157   5.955  1.6764  1.0029  0.6988
   65RES    H3527043   1.305   2.120   5.717 -0.1395 -1.2180 -0.2072
   65RES    H3627044   1.363   1.960   5.761 -0.7584 -0.3460  0.1547
   65RES    H3727045   1.525   2.061   5.920  1.3195  1.0402  0.4314
   65RES    H3827046   1.478   2.225   5.848  0.0909  0.3940 -2.1284
   65RES    H3927047   1.684   2.152   5.749 -0.3751 -0.0539 -0.3204
   65RES    H4027048   1.571   2.128   5.629 -1.8350 -0.0408  0.9508
   65RES    H4127049   1.559   1.884   5.644 -1.0678  0.1480  1.1151
   65RES    H4227050   1.722   1.925   5.632  1.4305 -1.6218  2.0543
   65RES    H4327051   1.654   1.873   5.789  0.7048  0.4222  0.7492
   65RES    C4427052   1.032   2.108   5.806 -0.2404 -0.5466 -0.5463
   65RES    C4527053   0.899   2.063   5.728  0.2756 -0.3198 -0.3160
   65RES    C4627054   0.817   2.184   5.665  0.4214  0.0213  0.1062
   65RES    C4727055   0.792   2.305   5.762 -0.3110 -0.3560 -0.3064
   65RES    C4827056   0.721   2.429   5.702 -0.0244  0.6682  0.2944
   65RES    C4927057   0.675   2.532   5.811  0.0911 -0.0515  1.1800
   65RES    C5027058   0.604   2.656   5.752 -0.1846  0.5395  0.0899
   65RES    H5127059   1.088   2.156   5.725 -0.2396  1.7825  0.7980
   65RES    H5227060   1.018   2.191   5.875 -1.0461 -1.8357  0.8702
   65RES    H5327061   0.833   2.022   5.805  1.1939  2.3654  1.9623
   65RES    H5427062   0.717   2.153   5.634  0.3816 -1.2291  1.4566
   65RES    H5527063   0.873   2.219   5.578 -0.6714 -0.0038 -0.6096
   65RES    H5627064   0.735   2.261   5.844 -0.7428  0.4019 -0.1923
   65RES    H5727065   0.880   2.345   5.813  0.9835 -2.2473 -1.0199
   65RES    H5827066   0.638   2.389   5.643  0.7380 -2.7453  1.3995
   65RES    H5927067   0.790   2.470   5.628  0.1967  0.1406  0.1975
   65RES    H6027068   0.764   2.554   5.870  0.2420 -1.7697  1.6247
   65RES    H6127069   0.607   2.487   5.884  0.1421 -0.1772  1.1508
   65RES    H6227070   0.550   2.697   5.838 -1.7034 -1.0494 -0.0901
   65RES    H6327071   0.529   2.628   5.678  0.5046 -0.9628 -0.0598
   65RES    H6427072   0.658   2.733   5.697 -3.0300  2.6090  0.0994
   65RES    C6527073   0.926   1.954   5.622  0.4015 -0.8308  0.0902
   65RES    C6627074   0.810   1.910   5.539  0.3372 -1.3455 -0.0111
   65RES    C6727075   0.695   1.865   5.637  0.4554 -0.2455 -0.6693
   65RES    C6827076   0.721   1.752   5.737  0.5941  0.0477 -0.2171
   65RES    C6927077   0.584   1.688   5.782 -0.6646  0.8986  0.3553
   65RES    C7027078   0.545   1.577   5.684 -0.8323  0.4223  0.6757
   65RES    C7127079   0.409   1.515   5.716  0.3128 -0.4347  0.4747
   65RES    H7227080   1.005   1.995   5.559  0.4990 -0.2680  0.5664
   65RES    H7327081   0.966   1.870   5.678  0.3789 -0.7291  0.2631
   65RES    H7427082   0.763   1.994   5.488 -0.1251 -0.6039  1.5997
   65RES    H7527083   0.643   1.951   5.680  0.5945 -1.3960  1.8617
   65RES    H7627084   0.616   1.832   5.570 -0.8586  1.5535 -0.0488
   65RES    H7727085   0.774   1.670   5.686  1.0012  0.2022 -0.0455
   65RES    H7827086   0.785   1.799   5.812  0.9611 -0.1712 -0.3850
   65RES    H7927087   0.609   1.654   5.882  3.4083  2.8808  0.1327
   65RES    H8027088   0.503   1.759   5.798 -1.7418 -0.5410  1.3622
   65RES    H8127089   0.623   1.502   5.673 -1.0461  0.2643  0.2104
   65RES    H8227090   0.547   1.622   5.584  1.3687  1.6523  1.2445
   65RES    H8327091   0.341   1.598   5.700  1.9137  0.7488 -0.3503
   65RES    H8427092   0.392   1.431   5.648  3.6570  0.2973 -1.3743
   65RES    H8527093   0.407   1.484   5.821  0.4044  0.0700  0.6275
   65RES    C8627094   0.855   1.802   5.440  0.3624  0.1468 -0.3323
   65RES    C8727095   0.935   1.847   5.323 -0.2038  0.1827 -0.2171
   65RES    C8827096   1.067   1.764   5.311 -0.4292 -0.3058  0.2739
   65RES    C8927097   1.180   1.796   5.413  0.0653 -0.1098 -0.3004
   65RES    C9027098   1.318   1.744   5.361 -0.0853 -0.0718  0.1308
   65RES    C9127099   1.380   1.817   5.240  0.0125 -0.2082 -0.2933
   65RES    C9227100   1.530   1.781   5.222 -0.3306  0.0780 -0.0443
   65RES    H9327101   0.912   1.726   5.495 -0.9516 -0.2037  0.5767
   65RES    H9427102   0.767   1.748   5.406  2.6597 -2.5694 -2.1763
   65RES    H9527103   0.970   1.949   5.333 -1.0057  0.4313  0.0949
   65RES    H9627104   1.040   1.658   5.304  1.0313 -0.7067  0.3277
   65RES    H9727105   1.107   1.796   5.215 -0.0458 -1.0774  0.1678
   65RES    H9827106   1.193   1.902   5.434 -0.0597 -0.0978 -0.2864
   65RES    H9927107   1.149   1.761   5.511 -0.3089  1.9066  0.3244
   65RES   H10027108   1.312   1.636   5.347  1.2310  0.0485 -1.4632
   65RES   H10127109   1.388   1.760   5.442 -0.2429 -0.9959  0.4560
   65RES   H10227110   1.327   1.799   5.146  0.6547 -2.1238 -0.3091
   65RES   H10327111   1.367   1.924   5.258  2.1307  0.1930 -1.0369
   65RES   H10427112   1.550   1.673   5.224  0.4175  0.2098 -0.1726
   65RES   H10527113   1.575   1.807   5.318  0.3709 -0.7218 -0.1460
   65RES   H10627114   1.585   1.824   5.139  0.7134  0.7502  0.9824
   65RES   C10727115   0.850   1.836   5.193 -0.3108 -0.0181  0.9761
   65RES   C10827116   0.895   1.932   5.078 -0.6072  0.1177  0.5202
   65RES   C10927117   0.821   1.896   4.948 -0.0161  1.1764  0.2722
   65RES   C11027118   0.864   1.761   4.889  0.4023 -0.4545  0.4089
   65RES   C11127119   0.820   1.756   4.740 -0.1897  0.0716  0.1422
   65RES   C11227120   0.668   1.752   4.719 -0.0576  0.0045  0.1136
   65RES   C11327121   0.623   1.679   4.595 -0.1469 -0.0323  1.1611
   65RES   H11427122   0.746   1.860   5.213 -0.1483  0.9543  0.6684
   65RES   H11527123   0.855   1.732   5.161 -1.0072  0.7014 -1.5382
   65RES   H11627124   0.999   1.904   5.059 -0.7475  1.0530 -1.8532
   65RES   H11727125   0.852   1.980   4.886  1.7301  0.9319  0.7784
   65RES   H11827126   0.712   1.904   4.948  0.1174  3.2213  0.3620
   65RES   H11927127   0.972   1.746   4.900  0.4154  0.8148  2.2840
   65RES   H12027128   0.818   1.674   4.935  1.7675 -1.5300 -0.2079
   65RES   H12127129   0.855   1.659   4.705  0.6514  1.1171 -1.9877
   65RES   H12227130   0.870   1.833   4.680 -2.4017  0.1779 -1.6070
   65RES   H12327131   0.619   1.701   4.802 -0.3840  3.4803  2.1271
   65RES   H12427132   0.636   1.855   4.730  3.2005  1.0423  0.3003
   65RES   H12527133   0.514   1.682   4.595 -0.1905 -1.1606  2.0852
   65RES   H12627134   0.656   1.741   4.512 -0.1289 -1.3084  0.1918
   65RES   H12727135   0.657   1.575   4.600  1.3006  0.2738 -1.0779
   65RES   C12827136   0.878   2.078   5.117 -0.3127 -0.4248  0.1443
   65RES   C12927137   0.999   2.177   5.092 -0.1843  0.0779  0.3128
   65RES   C13027138   1.112   2.175   5.193  0.4776  0.2509  0.6628
   65RES   C13127139   1.082   2.256   5.323  0.1605 -0.3003  0.3048
   65RES   C13227140   1.182   2.237   5.436  0.2994 -0.0700  0.5521
   65RES   C13327141   1.301   2.329   5.417  0.2055 -0.4600 -0.7195
   65RES   C13427142   1.372   2.340   5.548  0.2760 -0.3266 -0.4138
   65RES   H13527143   0.794   2.118   5.060 -0.4598 -1.1398 -0.1415
   65RES   H13627144   0.859   2.090   5.223 -0.5828 -1.4522  0.2095
   65RES   H13727145   1.040   2.148   4.995  1.8672 -1.5874  1.6368
   65RES   H13827146   1.204   2.215   5.149 -1.3812  0.4482 -3.2534
   65RES   H13927147   1.127   2.069   5.214  0.0923  0.1791  0.5785
   65RES   H14027148   0.992   2.217   5.371  0.8842 -0.5603  1.4556
   65RES   H14127149   1.055   2.361   5.309 -0.1377 -0.1846  1.7159
   65RES   H14227150   1.205   2.131   5.445  0.5913 -0.1187 -0.6231
   65RES   H14327151   1.134   2.257   5.532  1.1773 -0.0084  0.9852
   65RES   H14427152   1.279   2.430   5.383  2.0716 -0.3759 -1.7391
   65RES   H14527153   1.357   2.291   5.332 -0.2697  0.1040 -1.2863
   65RES   H14627154   1.410   2.241   5.572 -1.4434 -0.7590  0.6270
   65RES   H14727155   1.303   2.374   5.626 -0.1820 -0.0217 -0.9435
   65RES   H14827156   1.456   2.409   5.551 -0.6143  0.7837 -0.7540
   65RES   C14927157   0.950   2.319   5.065 -0.1774  0.1062  0.3647
   65RES   C15027158   0.869   2.345   4.931 -0.8403 -0.1843  0.2906
   65RES   C15127159   0.979   2.371   4.827 -0.5579  0.5145  0.2243
   65RES   C15227160   0.933   2.351   4.681 -0.5820  0.8111  0.1742
   65RES   C15327161   1.040   2.349   4.569  0.0177  0.4501 -0.2493
   65RES   C15427162   1.006   2.251   4.455 -0.3807 -0.3920 -0.4114
   65RES   C15527163   1.024   2.101   4.485 -0.0104  0.1603 -0.2624
   65RES   H15627164   0.882   2.345   5.145 -1.9880  1.4543 -1.5428
   65RES   H15727165   1.035   2.386   5.078  1.4625 -1.5565 -1.3266
   65RES   H15827166   0.816   2.252   4.911  0.8013 -0.7855 -1.3761
   65RES   H15927167   1.039   2.456   4.858  0.4436 -0.6997  1.6642
   65RES   H16027168   1.049   2.288   4.833 -1.5307 -0.3813 -0.5183
   65RES   H16127169   0.852   2.416   4.649 -0.7249  0.4264 -0.2432
   65RES   H16227170   0.887   2.253   4.692  0.0021  0.5157  0.0185
   65RES   H16327171   1.138   2.339   4.615 -0.3267  1.0928  0.6343
   65RES   H16427172   1.050   2.449   4.527 -0.7901  1.0436  0.9327
   65RES   H16527173   1.077   2.285   4.380  0.2586 -1.9572 -0.5502
   65RES   H16627174   0.908   2.265   4.409 -0.5952 -0.6943 -0.0507
   65RES   H16727175   0.935   2.057   4.530  0.8925 -1.0908  0.3223
   65RES   H16827176   1.115   2.093   4.545 -0.8691 -1.3940  0.8728
   65RES   H16927177   1.033   2.051   4.389 -1.5268  1.0063 -0.8656
   65RES   C17027178   0.767   2.463   4.963  0.8739 -0.2261  0.3496
   65RES   C17127179   0.677   2.526   4.844 -0.1687  0.0626 -0.0818
   65RES   C17227180   0.563   2.430   4.813 -0.3928  0.3368 -0.3566
   65RES   C17327181   0.431   2.426   4.897 -1.3526 -0.3115  0.2769
   65RES   C17427182   0.331   2.314   4.855  0.4093  0.1765 -0.1807
   65RES   C17527183   0.196   2.342   4.916  0.8778 -0.1106  0.0332
   65RES   C17627184   0.183   2.339   5.070 -0.4150 -0.5994  0.2875
   65RES   H17727185   0.817   2.546   5.013 -0.5340  1.4775 -1.0064
   65RES   H17827186   0.702   2.423   5.041  1.0896 -0.7832  0.2401
   65RES   H17927187   0.723   2.543   4.747  1.3127 -2.3721  0.1582
   65RES   H18027188   0.611   2.332   4.818  0.5580  0.7883 -0.4158
   65RES   H18127189   0.526   2.454   4.713  1.1192 -0.2981 -1.1005
   65RES   H18227190   0.386   2.523   4.881  0.4294  0.7696  1.5765
   65RES   H18327191   0.464   2.410   5.000  1.5257  0.2629 -0.4906
   65RES   H18427192   0.365   2.216   4.888  0.3581 -0.1711 -1.1464
   65RES   H18527193   0.331   2.318   4.746  0.7689  0.9117 -0.1567
   65RES   H18627194   0.136   2.263   4.870  2.0787 -1.0040 -0.0167
   65RES   H18727195   0.154   2.438   4.885 -0.4790  0.2956  2.9452
   65RES   H18827196   0.085   2.343   5.116 -0.2662  0.3574  0.5272
   65RES   H18927197   0.238   2.422   5.115 -0.6744 -0.7155  0.8136
   65RES   H19027198   0.237   2.251   5.106 -0.7156 -1.6709 -1.7697
   65RES   C19127199   0.630   2.676   4.880  0.3944 -0.3713  0.6778
   65RES   C19227200   0.569   2.752   4.763 -0.4365  0.5520 -0.2905
   65RES   C19327201   0.466   2.846   4.816  0.7099 -0.1498 -0.0708
   65RES   C19427202   0.375   2.907   4.704  0.0748  0.3785 -0.0717
   65RES   C19527203   0.267   3.002   4.760 -0.0006  1.1287  0.1673
   65RES   C19627204   0.209   3.093   4.652  0.4727  0.3162  0.2709
   65RES   C19727205   0.110   3.184   4.716 -0.8159  0.8991  0.3411
   65RES   H19827206   0.715   2.729   4.923  0.6349 -2.2369  2.6487
   65RES   H19927207   0.553   2.661   4.955 -0.9285 -0.0147 -0.6016
   65RES   H20027208   0.515   2.681   4.701 -0.4115  0.7771 -0.5733
   65RES   H20127209   0.513   2.927   4.872 -2.8523  1.6074  0.5340
   65RES   H20227210   0.393   2.802   4.885  1.0223  0.1629  0.4622
   65RES   H20327211   0.323   2.832   4.644  0.2101  0.9175 -0.8715
   65RES   H20427212   0.444   2.960   4.638 -0.0723 -0.9765 -1.3542
   65RES   H20527213   0.180   2.944   4.792  0.7841 -1.0308 -1.5410
   65RES   H20627214   0.295   3.064   4.845  0.5662  0.6571  0.3250
   65RES   H20727215   0.172   3.034   4.568 -0.7901 -2.0563  2.4219
   65RES   H20827216   0.290   3.152   4.609  1.3120 -0.8752  0.1808
   65RES   H20927217   0.045   3.223   4.638 -0.9321 -1.2069 -0.6406
   65RES   H21027218   0.160   3.267   4.765 -0.6704 -0.4910  2.6627
   65RES   H21127219   0.033   3.133   4.775 -0.1079  0.3121  0.7684
   65RES   C21227220   0.681   2.821   4.677 -0.6199 -0.0336  0.1989
   65RES   C21327221   0.763   2.954   4.730  0.1838  0.0455  0.2712
   65RES   C21427222   0.920   2.945   4.706  0.3276  0.2580 -0.0430
   65RES   C21527223   0.992   2.819   4.775 -0.4262 -0.1807  0.5903
   65RES   C21627224   1.017   2.827   4.931 -0.0516 -0.6031  0.2161
   65RES   C21727225   1.076   2.701   5.004  0.3430 -0.0120  0.2369
   65RES   C21827226   1.226   2.665   4.972 -0.1357 -0.1421 -0.1084
   65RES   H21927227   0.642   2.852   4.580  0.7527  4.8621  1.0941
   65RES   H22027228   0.756   2.748   4.647 -0.2242 -0.8351  2.9873
   65RES   H22127229   0.752   2.951   4.839  1.4319  0.2179  0.4067
   65RES   H22227230   0.931   2.932   4.599  2.5290  0.1538  0.1799
   65RES   H22327231   0.973   3.037   4.731 -0.3362  0.6553 -0.0971
   65RES   H22427232   1.088   2.808   4.725 -0.5935 -1.0828  0.4573
   65RES   H22527233   0.948   2.726   4.738  2.3948  0.4390 -4.8048
   65RES   H22627234   1.081   2.910   4.961  0.3821 -0.1289 -1.9094
   65RES   H22727235   0.933   2.857   4.993  1.3832 -0.5502  2.1518
   65RES   H22827236   1.082   2.727   5.110  2.9472  0.9870 -0.1282
   65RES   H22927237   1.014   2.612   5.000  2.0654 -1.3950  2.6819
   65RES   H23027238   1.238   2.656   4.864 -1.7695 -0.8290 -0.2568
   65RES   H23127239   1.259   2.572   5.016  0.1341 -0.6306 -1.3345
   65RES   H23227240   1.291   2.743   5.011 -1.4106  2.5589 -3.0994
   65RES   C23327241   0.707   3.088   4.679 -0.2278 -0.4582 -0.6076
   65RES   C23427242   0.729   3.208   4.779  0.5017  0.3338 -0.1175
   65RES   C23527243   0.718   3.341   4.702  0.9013  0.2887 -0.5711
   65RES   C23627244   0.589   3.353   4.619  0.5605  0.2548 -0.2216
   65RES   C23727245   0.541   3.497   4.608 -0.3998 -0.8194  0.8052
   65RES   C23827246   0.441   3.522   4.494 -0.1236 -0.0160 -0.4220
   65RES   C23927247   0.297   3.467   4.505  0.3544  0.2786  0.1902
   65RES   H24027248   0.600   3.069   4.668 -0.1433 -0.1457 -2.0513
   65RES   H24127249   0.746   3.115   4.581 -0.8344  0.2303 -0.6605
   65RES   H24227250   0.834   3.192   4.804  1.2391  3.2009 -1.1636
   65RES   H24327251   0.799   3.355   4.631  1.2784  1.6517  0.0977
   65RES   H24427252   0.720   3.423   4.774  1.7213 -0.0646 -0.1847
   65RES   H24527253   0.500   3.309   4.665  0.3490 -0.4667 -1.3216
   65RES   H24627254   0.601   3.310   4.520 -0.4304  0.0382 -0.2509
   65RES   H24727255   0.627   3.562   4.590 -2.1375  1.9417  2.1473
   65RES   H24827256   0.489   3.531   4.698 -1.2628 -1.0763  0.4124
   65RES   H24927257   0.448   3.628   4.473  1.6252  0.0314  0.3165
   65RES   H25027258   0.464   3.470   4.401 -2.4499 -0.8666 -0.5603
   65RES   H25127259   0.225   3.505   4.433 -0.3161  0.6612  1.0630
   65RES   H25227260   0.291   3.359   4.504  1.6689  0.1932  0.4067
   65RES   H25327261   0.258   3.506   4.599 -1.7752 -0.4968 -0.3640
   65RES   C25427262   0.640   3.198   4.900 -0.7546  0.3705  0.1464
   65RES   C25527263   0.628   3.312   5.006  0.5769 -0.5543 -0.4736
   65RES   C25627264   0.763   3.357   5.060  0.4868 -0.3896 -0.0249
   65RES   C25727265   0.858   3.238   5.099  0.0315 -0.0993 -0.0870
   65RES   C25827266   0.985   3.289   5.166  0.5815 -0.0342 -0.3016
   65RES   C25927267   1.098   3.185   5.191 -0.9359 -0.0555 -0.1363
   65RES   C26027268   1.178   3.161   5.062  1.0559 -1.0061 -0.2628
   65RES   H26127269   0.668   3.105   4.949 -1.0766  1.4564  2.4889
   65RES   H26227270   0.539   3.188   4.861  0.5164  0.7027 -3.4149
   65RES   H26327271   0.579   3.396   4.958  1.1363  0.3047  0.4549
   65RES   H26427272   0.755   3.420   5.148  0.8077 -2.4155  1.4815
   65RES   H26527273   0.813   3.426   4.992 -0.3502  0.2408 -0.0132
   65RES   H26627274   0.808   3.175   5.173  0.2094 -0.5653 -0.3621
   65RES   H26727275   0.878   3.176   5.012  1.2075  0.2687 -0.0800
   65RES   H26827276   0.961   3.328   5.266  1.3611 -0.2114 -0.0380
   65RES   H26927277   1.025   3.374   5.110  1.5765 -0.3064 -0.0223
   65RES   H27027278   1.168   3.216   5.269 -2.5000  0.1922  1.1896
   65RES   H27127279   1.051   3.095   5.230 -0.0012 -0.1440  0.7948
   65RES   H27227280   1.246   3.079   5.083 -1.9040 -3.6363 -0.7178
   65RES   H27327281   1.124   3.143   4.969  3.2304 -3.8159 -1.0507
   65RES   H27427282   1.246   3.244   5.043  0.9313 -1.5596 -3.3433
   65RES   C27527283   0.538   3.268   5.120  0.4248 -0.0148 -0.3369
   65RES   C27627284   0.508   3.375   5.224 -0.4111  0.2664 -0.3195
   65RES   C27727285   0.590   3.342   5.355 -0.4318 -1.2003 -0.5662
   65RES   C27827286   0.624   3.452   5.458  0.7396 -0.1806 -0.3899
   65RES   C27927287   0.717   3.402   5.570 -0.5342  0.2638 -0.5316
   65RES   C28027288   0.646   3.303   5.661  0.3686  0.3018 -0.4522
   65RES   C28127289   0.690   3.289   5.807  0.3808 -0.4057 -0.1288
   65RES   H28227290   0.579   3.178   5.166 -0.7833 -0.1670  0.4680
   65RES   H28327291   0.445   3.223   5.085  0.7532 -1.9392  1.2000
   65RES   H28427292   0.535   3.475   5.189  0.3575  0.9934  2.2619
   65RES   H28527293   0.535   3.265   5.409  0.3579 -1.2489  0.1707
   65RES   H28627294   0.685   3.298   5.327  0.3101 -1.2541  1.8605
   65RES   H28727295   0.529   3.488   5.498  0.8236 -0.5297  0.1184
   65RES   H28827296   0.677   3.532   5.406 -0.7928  0.9726 -0.2118
   65RES   H28927297   0.730   3.498   5.621 -0.8982  0.3361 -0.5751
   65RES   H29027298   0.808   3.349   5.543 -0.2801 -0.7746  2.1103
   65RES   H29127299   0.540   3.324   5.652  0.0821 -1.5267 -1.5468
   65RES   H29227300   0.637   3.201   5.624  1.3418 -0.4228  1.2200
   65RES   H29327301   0.685   3.381   5.865 -0.8952 -1.5612  1.6215
   65RES   H29427302   0.795   3.259   5.804  1.1149  2.1464 -2.3076
   65RES   H29527303   0.640   3.217   5.871 -0.0066 -0.3309 -0.3437
   65RES   C29627304   0.364   3.387   5.262  0.2702  0.0593 -0.3712
   65RES   C29727305   0.264   3.435   5.146 -0.9129 -0.3849 -0.1595
   65RES   C29827306   0.281   3.582   5.109 -0.2621 -0.9801 -0.3038
   65RES   C29927307   0.197   3.629   4.990 -0.5725 -0.2833 -0.5758
   65RES   C30027308   0.205   3.774   4.948 -0.1181  0.8364  0.2883
   65RES   C30127309   0.139   3.821   4.817 -0.2651 -0.0468 -0.1279
   65RES   C30227310   7.709   3.804   4.819  0.3613 -0.0749  0.4708
   65RES   H30327311   0.337   3.283   5.282  1.4191 -0.5032 -1.6626
   65RES   H30427312   0.357   3.436   5.359 -1.2250 -0.6496 -0.1083
   65RES   H30527313   0.283   3.383   5.052  2.4386 -0.6709  0.6208
   65RES   H30627314   0.257   3.635   5.201 -2.9821 -2.3516 -0.1499
   65RES   H30727315   0.384   3.604   5.080 -1.4261  2.2068 -2.2408
   65RES   H30827316   0.095   3.606   5.022  0.1606 -3.0488 -0.0790
   65RES   H30927317   0.228   3.572   4.902  0.4862  0.6390 -0.8222
   65RES   H31027318   0.309   3.803   4.935 -0.4343  1.6312 -0.5603
   65RES   H31127319   0.177   3.833   5.036  0.8774 -1.7180  2.4009
   65RES   H31227320   0.142   3.930   4.820  1.5310  0.0297 -2.7307
   65RES   H31327321   0.184   3.791   4.722 -0.1913  1.5417 -0.6097
   65RES   H31427322   7.655   3.875   4.756 -0.7714 -1.3344 -0.0086
   65RES   H31527323   7.672   3.705   4.794  2.1252 -0.4164 -0.9393
   65RES   H31627324   7.676   3.815   4.922 -1.1941  0.2343 -0.0519
   65RES   C31727325   0.117   3.391   5.195  0.8155 -0.0197 -1.1757
   65RES   C31827326   0.081   3.245   5.234  0.2041 -0.1978  0.2295
   65RES   C31927327   7.656   3.234   5.263 -0.0825  0.2652  0.0806
   65RES   C32027328   7.615   3.289   5.399  0.6499 -0.5242 -0.9828
   65RES   C32127329   7.468   3.275   5.435 -0.0727  0.4496  0.0607
   65RES   C32227330   7.438   3.310   5.576  0.0403  0.3068  0.3043
   65RES   C32327331   7.496   3.209   5.678  0.7601  0.6897 -0.3126
   65RES   H32427332   0.045   3.407   5.115 -1.1028  0.0408  0.5028
   65RES   H32527333   0.091   3.456   5.279  3.3283 -1.1325  0.5334
   65RES   H32627334   0.128   3.214   5.327 -0.4992 -1.9865  0.0019
   65RES   H32727335   7.643   3.126   5.273  0.9955  0.2277  1.1167
   65RES   H32827336   7.584   3.274   5.191  1.1231 -1.0601 -1.9221
   65RES   H32927337   7.645   3.394   5.408 -0.1467 -0.5451  3.0653
   65RES   H33027338   7.670   3.241   5.480  0.6558  1.7483  0.4308
   65RES   H33127339   7.432   3.173   5.417  2.1715  0.0458 -2.4292
   65RES   H33227340   7.420   3.349   5.372  1.2290  0.1884 -1.2490
   65RES   H33327341   7.331   3.316   5.592 -0.1931 -1.7105 -0.4429
   65RES   H33427342   7.465   3.410   5.611  0.0198  0.1141  0.8701
   65RES   H33527343   7.605   3.208   5.683  0.8019 -3.5086 -0.0800
   65RES   H33627344   7.461   3.113   5.641  2.1944 -0.1852  0.5499
   65RES   H33727345   7.470   3.220   5.783  1.5626  1.5648 -0.2008
   65RES   C33827346   0.129   3.141   5.133 -0.2004  0.3755 -0.4199
   65RES   C33927347   0.148   2.995   5.193  0.5636  0.9437  0.3754
   65RES   C34027348   0.292   2.980   5.260 -0.1507  0.6207 -0.1958
   65RES   C34127349   0.324   2.839   5.316 -0.1953  0.3202  0.2155
   65RES   C34227350   0.455   2.829   5.405 -0.0240  0.1211 -0.8559
   65RES   C34327351   0.589   2.870   5.339  0.4076 -0.0077  0.0324
   65RES   C34427352   0.622   2.798   5.212  0.1023  0.0437  0.2995
   65RES   H34527353   0.229   3.172   5.100 -1.7683  2.2165 -3.7113
   65RES   H34627354   0.058   3.140   5.051 -1.3693  1.0989  0.5712
   65RES   H34727355   0.077   2.986   5.275 -0.5958  0.0759 -0.7084
   65RES   H34827356   0.373   3.013   5.194 -1.3628  1.3263 -1.3533
   65RES   H34927357   0.304   3.054   5.340  0.3919 -0.1477  0.4492
   65RES   H35027358   0.325   2.772   5.229 -3.0808 -0.0347  0.4147
   65RES   H35127359   0.240   2.801   5.374  0.8054 -0.0510  1.4529
   65RES   H35227360   0.442   2.883   5.499  0.3958 -1.2527  0.0038
   65RES   H35327361   0.458   2.728   5.446  0.1343  0.1938 -0.6839
   65RES   H35427362   0.573   2.976   5.315  3.1725  0.2559 -0.7297
   65RES   H35527363   0.671   2.868   5.410 -0.6632  0.7411  1.3206
   65RES   H35627364   0.730   2.788   5.201 -0.0077 -1.6540  0.5786
   65RES   H35727365   0.593   2.859   5.127  0.7359 -0.8743 -0.5907
   65RES   H35827366   0.577   2.699   5.203 -0.8679  0.5837 -0.8137
   65RES   C35927367   0.104   2.886   5.085 -0.8156 -0.4728  0.6388
   65RES   C36027368   7.686   2.879   5.036  0.3004 -0.0241  0.0291
   65RES   C36127369   7.663   2.812   4.898 -0.2798  0.5719 -0.2110
   65RES   C36227370   7.520   2.829   4.837 -0.1943 -0.0493  0.4380
   65RES   C36327371   7.493   2.754   4.703 -0.2793 -0.2051  0.7766
   65RES   C36427372   7.358   2.778   4.640  0.0298  0.1320 -0.2286
   65RES   C36527373   7.341   2.905   4.565 -0.2783  0.2389  0.5239
   65RES   H36627374   0.153   2.792   5.115  1.1975  0.2390 -0.3130
   65RES   H36727375   0.170   2.905   5.000 -0.3666 -1.9928  0.6180
   65RES   H36827376   7.643   2.976   5.009  1.1768 -0.3182 -2.4681
   65RES   H36927377   0.004   2.847   4.820  1.6978 -0.9190  0.8043
   65RES   H37027378   7.676   2.705   4.909  2.9941  1.1835  2.5049
   65RES   H37127379   7.444   2.784   4.902 -0.3153 -0.5987 -0.0732
   65RES   H37227380   7.502   2.934   4.816 -1.4031 -0.7759 -2.4427
   65RES   H37327381   7.575   2.763   4.631 -0.4537 -0.1912  0.5783
   65RES   H37427382   7.484   2.646   4.716  0.3921 -0.4029 -0.2827
   65RES   H37527383   7.335   2.696   4.572  2.0072  0.2087 -1.0111
   65RES   H37627384   7.280   2.790   4.716 -0.0083  2.0535 -0.5549
   65RES   H37727385   7.237   2.899   4.532 -0.1714 -3.7864  0.6912
   65RES   H37827386   7.347   2.990   4.633 -0.9058  0.5980  0.1416
   65RES   H37927387   7.405   2.913   4.477  0.6237  0.3533  1.1856
   65RES   C38027388   7.596   2.835   5.148  1.1283  0.8398  0.5629
   65RES   C38127389   7.552   2.689   5.164 -0.2471  0.0751  0.8077
   65RES   C38227390   7.659   2.594   5.211  0.2292  0.6216  0.0987
   65RES   C38327391   7.698   2.597   5.358  0.3443 -1.1008 -0.1400
   65RES   C38427392   0.080   2.496   5.382  0.4908 -0.1636 -0.0664
   65RES   C38527393   0.144   2.474   5.523  0.2946  0.5759 -0.2164
   65RES   C38627394   0.259   2.566   5.557 -0.5836  0.8337 -0.4823
   65RES   H38727395   7.629   2.874   5.244 -1.7425  4.3528  0.2006
   65RES   H38827396   7.508   2.895   5.130  0.6035 -0.5360 -1.7130
   65RES   H38927397   7.533   2.655   5.062  0.5414  1.0729  0.3194
   65RES   H39027398   0.022   2.601   5.149 -1.0517  0.5974 -1.8320
   65RES   H39127399   7.623   2.494   5.187  0.3266  0.6184 -0.0347
   65RES   H39227400   7.723   2.703   5.370  0.8197 -0.9153 -2.5890
   65RES   H39327401   7.614   2.568   5.422  1.0398 -0.5192  1.0554
   65RES   H39427402   0.029   2.402   5.364  0.7711 -0.0417 -1.5252
   65RES   H39527403   0.167   2.501   5.317  1.0033 -1.0688  0.5340
   65RES   H39627404   0.188   2.375   5.535  0.3057  0.3513 -2.0308
   65RES   H39727405   0.062   2.474   5.595 -2.3565  0.6287 -3.1485
   65RES   H39827406   0.238   2.673   5.550  1.1783  1.1326 -1.3751
   65RES   H39927407   0.349   2.548   5.499  1.4859  1.5354  2.3863
   65RES   H40027408   0.288   2.538   5.659  0.7124 -2.0102 -1.5731
   65RES   C40127409   7.406   2.671   5.227  0.4458 -0.2076  0.5951
   65RES   C40227410   7.341   2.540   5.191 -0.7412  0.4100 -0.6722
   65RES   C40327411   7.197   2.526   5.245 -0.4703  0.2107 -0.2882
   65RES   C40427412   7.129   2.396   5.193  0.2637 -0.1084  0.0785
   65RES   C40527413   7.091   2.382   5.044  0.2825  0.3757 -0.4055
   65RES   C40627414   7.011   2.252   5.016  0.5297 -0.7410 -0.3213
   65RES   C40727415   6.926   2.255   4.881 -0.2149  0.4701  0.0404
   65RES   H40827416   7.342   2.751   5.192  0.0810 -0.1557  1.3657
   65RES   H40927417   7.409   2.682   5.335  1.1699 -1.0029  0.6663
   65RES   H41027418   7.402   2.454   5.216 -0.0085  0.7133 -1.4102
   65RES   H41127419   7.138   2.616   5.229 -0.7282 -0.1274 -1.2652
   65RES   H41227420   7.212   2.515   5.353 -2.8496 -1.2199 -0.0624
   65RES   H41327421   7.032   2.391   5.243 -0.9431 -0.7392 -2.2222
   65RES   H41427422   7.179   2.311   5.238  0.5456 -0.5833 -1.1161
   65RES   H41527423   7.028   2.465   5.011 -0.8730 -0.5776 -0.6482
   65RES   H41627424   7.180   2.382   4.981  1.7770  0.6812  1.6565
   65RES   H41727425   7.087   2.174   5.010  0.1776 -0.9936 -1.6662
   65RES   H41827426   6.938   2.246   5.096  1.0186  1.1468  0.2998
   65RES   H41927427   6.875   2.351   4.873 -1.8990 -0.4840 -0.8156
   65RES   H42027428   6.856   2.172   4.885 -0.9559  1.0185 -0.9835
   65RES   H42127429   6.991   2.236   4.795  0.3134 -0.0043  0.5393
   65RES   H42227430   7.337   2.544   5.082  0.5731  1.4349 -0.6952
   66RES     C127431   0.565   1.656   2.491 -0.1117  0.1786  0.3195
   66RES     C227432   0.564   1.806   2.519 -0.9162 -0.2166 -0.0192
   66RES     C327433   0.652   1.838   2.642 -0.0852  0.0601  0.4377
   66RES     C427434   0.801   1.817   2.619  0.9703  0.7534 -0.3145
   66RES     C527435   0.894   1.820   2.737  0.0076 -0.2834  0.1036
   66RES     C627436   1.028   1.763   2.703 -0.1887  0.2667 -0.6664
   66RES     C727437   1.126   1.768   2.829 -0.6707  0.2384  0.2679
   66RES     H827438   0.496   1.647   2.407  1.3182  0.9094 -0.9576
   66RES     H927439   0.535   1.581   2.564 -1.5030  0.0913 -0.3171
   66RES    H1027440   0.618   1.845   2.433 -1.3084 -1.2373 -0.7439
   66RES    H1127441   0.622   1.938   2.674  0.9331  0.1247  1.2167
   66RES    H1227442   0.615   1.761   2.711  1.1301 -2.0802 -1.2541
   66RES    H1327443   0.801   1.714   2.584  0.7018  1.0267 -1.1248
   66RES    H1427444   0.838   1.879   2.537  1.7900 -0.8576 -1.1866
   66RES    H1527445   0.867   1.759   2.823 -0.1756  0.8048  0.8374
   66RES    H1627446   0.901   1.923   2.773  0.9254 -0.0890 -0.6085
   66RES    H1727447   1.062   1.827   2.622  0.8081  0.6196  0.0131
   66RES    H1827448   1.018   1.660   2.669  0.4979  0.3220 -1.0514
   66RES    H1927449   1.087   1.707   2.911 -4.2347  0.7252 -1.0066
   66RES    H2027450   1.135   1.871   2.861  0.2067  0.3828 -0.4227
   66RES    H2127451   1.227   1.736   2.803 -0.6159 -2.0985  2.9965
   66RES    H2227452   0.652   1.624   2.433 -1.5642  0.3900 -2.0751
   66RES    C2327453   0.423   1.860   2.527  0.9100  0.3244  0.2947
   66RES    C2427454   0.403   2.015   2.522 -0.6961 -0.0796 -0.0680
   66RES    C2527455   0.260   2.052   2.555  0.4754  0.0397 -0.2610
   66RES    C2627456   0.215   2.031   2.704  0.0256  0.0428  0.6183
   66RES    C2727457   0.284   2.124   2.807  0.3246 -0.2487 -0.5516
   66RES    C2827458   0.237   2.270   2.790  0.7923 -0.2382 -0.8896
   66RES    C2927459   0.246   2.348   2.921 -0.0449 -0.1762 -0.1829
   66RES    H3027460   0.354   1.821   2.452  1.6075  0.0251 -0.1910
   66RES    H3127461   0.385   1.827   2.624  1.2604  2.6635  1.2534
   66RES    H3227462   0.471   2.053   2.597  2.2081 -0.6406 -2.3480
   66RES    H3327463   0.197   2.000   2.483  1.2665 -4.7899  2.3279
   66RES    H3427464   0.244   2.158   2.539  1.6852  0.4030  0.7848
   66RES    H3527465   0.230   1.926   2.729  3.0310  0.0382 -0.9391
   66RES    H3627466   0.107   2.044   2.704 -0.0497 -0.5925  0.7364
   66RES    H3727467   0.393   2.124   2.800  0.1797  0.0833 -3.3717
   66RES    H3827468   0.254   2.090   2.906  0.0017 -1.8311 -1.1792
   66RES    H3927469   0.132   2.271   2.761  0.5282 -0.1002  0.0518
   66RES    H4027470   0.300   2.319   2.715  1.4281  1.0845  0.4688
   66RES    H4127471   0.350   2.372   2.945  0.1531  2.0130 -3.0243
   66RES    H4227472   0.195   2.444   2.910 -1.0446 -0.8731 -1.6692
   66RES    H4327473   0.197   2.288   2.998  0.0987  0.9928  0.8434
   66RES    C4427474   0.461   2.065   2.389  0.7816  0.1060  0.1851
   66RES    C4527475   0.473   2.219   2.368 -0.3860 -0.3258  0.1975
   66RES    C4627476   0.555   2.282   2.476 -0.0595 -0.1676 -0.4960
   66RES    C4727477   0.708   2.247   2.479 -0.1401  0.1068 -0.0504
   66RES    C4827478   0.771   2.299   2.610  0.2987  0.9267  0.2019
   66RES    C4927479   0.908   2.236   2.634 -0.5825 -0.4083 -0.0747
   66RES    C5027480   0.989   2.276   2.760  0.2305  0.4788 -0.9406
   66RES    H5127481   0.401   2.031   2.305  1.0387  1.6936 -0.6590
   66RES    H5227482   0.563   2.030   2.375  1.1672  1.9275 -1.8543
   66RES    H5327483   0.367   2.246   2.376 -0.7156 -1.4951 -0.1212
   66RES    H5427484   0.514   2.261   2.575 -3.2755 -1.0760 -1.9759
   66RES    H5527485   0.550   2.390   2.475  2.9751  0.0253 -2.4266
   66RES    H5627486   0.726   2.142   2.456 -1.8183 -0.2162  0.0914
   66RES    H5727487   0.765   2.293   2.398  0.3591 -0.6615 -0.1377
   66RES    H5827488   0.714   2.272   2.699  1.4186  1.8131  1.2018
   66RES    H5927489   0.772   2.408   2.612  0.0743  0.9811 -1.7147
   66RES    H6027490   0.973   2.245   2.547 -0.3166 -1.1343  0.0460
   66RES    H6127491   0.890   2.128   2.636 -2.0796 -0.1983 -1.5292
   66RES    H6227492   0.928   2.238   2.841 -1.5914  0.8735 -2.0896
   66RES    H6327493   0.990   2.381   2.789 -2.6089  0.2566  0.0388
   66RES    H6427494   1.092   2.240   2.768 -0.5583 -1.0854  3.0422
   66RES    C6527495   0.525   2.259   2.228 -0.5588  0.1680  0.2593
   66RES    C6627496   0.491   2.398   2.185  0.3933 -0.1118  0.4787
   66RES    C6727497   0.360   2.393   2.105  0.6100  0.1955  0.2376
   66RES    C6827498   0.228   2.342   2.181 -0.3754 -0.4672 -0.0988
   66RES    C6927499   0.182   2.430   2.300 -0.4425 -0.0879  0.1518
   66RES    C7027500   0.056   2.377   2.365 -0.1998 -0.3867  0.2712
   66RES    C7127501   7.657   2.444   2.306 -0.4614 -0.3642  0.1126
   66RES    H7227502   0.633   2.249   2.217 -0.7146  0.2358 -1.4762
   66RES    H7327503   0.488   2.189   2.153 -1.4754  0.8758  0.0296
   66RES    H7427504   0.489   2.471   2.266  1.7862  0.2370  0.2014
   66RES    H7527505   0.338   2.489   2.059 -0.2425 -0.4660 -0.7680
   66RES    H7627506   0.367   2.321   2.024 -0.7566  0.1171  0.1758
   66RES    H7727507   0.142   2.334   2.115 -1.5368 -2.6265  1.6185
   66RES    H7827508   0.234   2.239   2.216 -0.5390 -0.1635  0.8300
   66RES    H7927509   0.263   2.441   2.372  0.6482 -0.4980 -0.9742
   66RES    H8027510   0.163   2.531   2.264  0.4223 -0.6595 -1.9835
   66RES    H8127511   0.059   2.397   2.472  2.4223 -0.2272  0.1942
   66RES    H8227512   0.037   2.269   2.370 -0.7265 -0.2067  2.6579
   66RES    H8327513   7.564   2.388   2.320 -0.7279 -0.1324 -0.7229
   66RES    H8427514   7.644   2.544   2.348  1.9912 -0.5994  1.5140
   66RES    H8527515   7.671   2.448   2.198  0.2406 -1.8214  0.1469
   66RES    C8627516   0.598   2.458   2.095 -0.1429 -0.0075  0.0926
   66RES    C8727517   0.730   2.494   2.161 -0.6991 -0.1789 -0.3690
   66RES    C8827518   0.829   2.534   2.048 -0.1100 -0.3959 -0.0968
   66RES    C8927519   0.918   2.403   1.998  0.0140 -0.7486 -0.4147
   66RES    C9027520   1.058   2.396   2.069 -0.0783 -0.1298  0.3430
   66RES    C9127521   1.047   2.359   2.219  0.3842 -0.1510 -0.6636
   66RES    C9227522   1.191   2.338   2.270 -0.0957 -0.0595 -0.5445
   66RES    H9327523   0.613   2.386   2.014  1.4097 -0.6810  0.9539
   66RES    H9427524   0.566   2.549   2.044 -1.3500 -0.5529 -0.1190
   66RES    H9527525   0.764   2.400   2.205  0.4041  1.3775  2.2330
   66RES    H9627526   0.781   2.577   1.960  0.0716 -0.0898 -0.0495
   66RES    H9727527   0.895   2.606   2.098  0.0317 -0.0549 -0.7744
   66RES    H9827528   0.868   2.308   2.017  0.5023 -1.0828 -0.7771
   66RES    H9927529   0.936   2.409   1.891  2.0511 -2.6269 -0.2103
   66RES   H10027530   1.126   2.476   2.043  0.4092  0.2523  2.6448
   66RES   H10127531   1.111   2.318   2.015 -1.7881 -0.5948 -0.6836
   66RES   H10227532   1.006   2.442   2.276  0.0998 -0.4763 -0.3864
   66RES   H10327533   0.996   2.265   2.240 -0.4535  0.7405  1.4336
   66RES   H10427534   1.189   2.309   2.375 -0.3240 -2.3244 -1.1465
   66RES   H10527535   1.258   2.422   2.252 -0.6968  1.0355  2.0028
   66RES   H10627536   1.240   2.255   2.219  0.5490 -2.1478  3.2619
   66RES   C10727537   0.720   2.590   2.272 -0.8426  0.3495 -0.7307
   66RES   C10827538   0.629   2.719   2.263 -0.5171 -1.0751  0.2807
   66RES   C10927539   0.621   2.795   2.398 -0.5619 -0.1208  0.4806
   66RES   C11027540   0.553   2.716   2.513  0.2179  1.0164  0.6515
   66RES   C11127541   0.397   2.713   2.506 -0.4171 -0.6728  0.2037
   66RES   C11227542   0.343   2.646   2.634 -0.5255  0.2324 -0.9337
   66RES   C11327543   0.184   2.648   2.627 -0.0987  0.5383 -0.4148
   66RES   H11427544   0.825   2.611   2.293  0.1965 -1.9009 -3.3964
   66RES   H11527545   0.693   2.530   2.360  1.4525  1.9492  1.1164
   66RES   H11627546   0.529   2.696   2.227 -1.6970 -2.7224  4.4132
   66RES   H11727547   0.567   2.888   2.380 -0.0497  0.2547  0.8776
   66RES   H11827548   0.716   2.836   2.431  0.1495 -0.6001 -0.9460
   66RES   H11927549   0.583   2.613   2.527  0.3863  1.1379  1.1789
   66RES   H12027550   0.589   2.757   2.607  2.4064  1.3403 -0.3143
   66RES   H12127551   0.356   2.669   2.416 -1.8740 -0.5185  0.7832
   66RES   H12227552   0.356   2.814   2.507 -0.3736 -0.6546  0.1725
   66RES   H12327553   0.374   2.543   2.652 -0.9395  0.3115  0.2846
   66RES   H12427554   0.368   2.708   2.720 -0.7589  0.3451 -0.9452
   66RES   H12527555   0.151   2.597   2.536  0.2270 -0.5703  0.0806
   66RES   H12627556   0.151   2.592   2.714 -1.5368  4.3114  1.5890
   66RES   H12727557   0.140   2.746   2.646  0.6662  0.5565  1.3277
   66RES   C12827558   0.707   2.815   2.160  0.1206 -0.0475 -0.5109
   66RES   C12927559   0.640   2.944   2.116 -0.4457 -0.4229  0.2076
   66RES   C13027560   0.501   2.920   2.046  0.0064 -0.9586 -0.1882
   66RES   C13127561   0.378   2.960   2.139 -0.2687 -0.5498  0.3661
   66RES   C13227562   0.243   2.888   2.114  0.1614  0.3170 -0.5844
   66RES   C13327563   0.156   2.874   2.238 -0.5963 -0.3074  0.0303
   66RES   C13427564   0.020   2.800   2.219  0.1306  0.0305 -0.1662
   66RES   H13527565   0.805   2.839   2.201  0.5607  0.2266 -1.7019
   66RES   H13627566   0.720   2.763   2.065  0.6988 -0.6848 -0.0961
   66RES   H13727567   0.623   3.007   2.204 -0.1837 -0.0838  0.0181
   66RES   H13827568   0.483   2.827   1.993 -0.8691 -1.1692  0.4860
   66RES   H13927569   0.494   2.997   1.969  0.4352  2.5178  3.0891
   66RES   H14027570   0.364   3.067   2.129 -1.2594 -0.8539 -1.7598
   66RES   H14127571   0.415   2.927   2.237 -2.1939 -1.1598  0.9004
   66RES   H14227572   0.253   2.786   2.077 -0.9678 -0.2923  0.7039
   66RES   H14327573   0.194   2.955   2.043 -1.1354  2.1457  1.9466
   66RES   H14427574   0.150   2.980   2.259  1.5832 -0.3174  0.7935
   66RES   H14527575   0.211   2.831   2.322 -0.9103  0.3874  0.5965
   66RES   H14627576   0.042   2.708   2.165  1.0519  0.0227  0.2128
   66RES   H14727577   7.670   2.856   2.166  0.6168 -1.4611 -2.5161
   66RES   H14827578   7.713   2.762   2.315  0.3569  1.4995  0.5162
   66RES   C14927579   0.736   3.035   2.024  0.3492 -0.4330 -0.0545
   66RES   C15027580   0.703   3.184   2.020  0.2836 -0.1359  0.6893
   66RES   C15127581   0.753   3.239   1.888  0.0005 -0.0493 -0.5777
   66RES   C15227582   0.662   3.207   1.766 -0.8414  0.4336  0.3794
   66RES   C15327583   0.725   3.277   1.637  0.1479 -0.3466  0.3964
   66RES   C15427584   0.682   3.203   1.501 -0.0244  0.0442 -0.0269
   66RES   C15527585   0.783   3.090   1.466  0.0947  0.4823 -0.3515
   66RES   H15627586   0.839   3.024   2.057  0.0040 -0.5359  0.9998
   66RES   H15727587   0.734   2.995   1.923 -0.2255 -0.2358 -0.1255
   66RES   H15827588   0.594   3.181   2.015  0.3591 -0.4139 -1.0739
   66RES   H15927589   0.770   3.345   1.907 -2.9419  0.2470  0.6357
   66RES   H16027590   0.848   3.191   1.865 -0.8703 -1.3590 -1.4932
   66RES   H16127591   0.566   3.256   1.784 -0.5565  1.3477 -0.5581
   66RES   H16227592   0.637   3.101   1.758  0.8913 -0.0566  1.0819
   66RES   H16327593   0.834   3.277   1.641  0.2932  0.1893 -2.6512
   66RES   H16427594   0.700   3.383   1.633  0.6125 -0.0992  3.1361
   66RES   H16527595   0.692   3.284   1.429 -0.1063 -0.1773 -0.2839
   66RES   H16627596   0.577   3.172   1.508 -0.1257  0.2733 -0.4820
   66RES   H16727597   0.769   3.052   1.365  2.8316  0.9535 -0.9477
   66RES   H16827598   0.779   3.019   1.548 -0.1334  0.3207 -0.4994
   66RES   H16927599   0.887   3.119   1.476  1.1492 -2.5983 -1.7979
   66RES   C17027600   0.745   3.251   2.155 -0.0843  0.0010  0.1891
   66RES   C17127601   0.675   3.384   2.197  0.6823  0.1727 -0.6420
   66RES   C17227602   0.531   3.353   2.245 -0.5493  0.0158 -1.0225
   66RES   C17327603   0.521   3.268   2.373 -0.4879 -0.1131 -0.2083
   66RES   C17427604   0.371   3.240   2.397 -0.1584 -0.3219 -0.7144
   66RES   C17527605   0.346   3.158   2.528 -0.5464 -0.2511  0.7221
   66RES   C17627606   0.203   3.121   2.552  0.3166 -0.0965 -0.4690
   66RES   H17727607   0.851   3.278   2.146  0.3443 -2.1349 -1.6937
   66RES   H17827608   0.743   3.172   2.229  0.4381  0.0814  0.2920
   66RES   H17927609   0.680   3.439   2.103  0.3388 -1.5906 -1.7186
   66RES   H18027610   0.482   3.299   2.164 -2.3368  1.3842 -0.8835
   66RES   H18127611   0.474   3.445   2.260 -0.5858 -0.1345 -0.2200
   66RES   H18227612   0.574   3.316   2.456 -0.4553 -1.1528  0.3768
   66RES   H18327613   0.571   3.173   2.357 -1.1053 -0.4325 -0.2568
   66RES   H18427614   0.341   3.180   2.311  0.0900 -3.0717  1.0709
   66RES   H18527615   0.323   3.337   2.407  0.6194 -0.0033 -0.0383
   66RES   H18627616   0.374   3.215   2.617  2.0826 -1.1493  0.5115
   66RES   H18727617   0.419   3.077   2.527 -0.8516 -0.5142 -0.4023
   66RES   H18827618   0.182   3.096   2.656 -0.1193 -1.1657 -0.8120
   66RES   H18927619   0.165   3.039   2.492  0.4128 -1.9871  1.9611
   66RES   H19027620   0.139   3.208   2.534  0.0544 -0.2987 -0.5251
   66RES   C19127621   0.758   3.465   2.304 -0.0298  0.1802 -0.4375
   66RES   C19227622   0.738   3.623   2.283  0.3131 -0.1761 -0.3014
   66RES   C19327623   0.765   3.685   2.422  0.1013 -0.6195  0.4011
   66RES   C19427624   0.720   3.831   2.444  0.1272 -0.2638  0.5191
   66RES   C19527625   0.739   3.887   2.583  0.5929  0.2849  0.4613
   66RES   C19627626   0.665   4.023   2.613 -0.1755  1.0794  0.0933
   66RES   C19727627   0.741   4.138   2.565 -0.2014 -0.5178 -0.2789
   66RES   H19827628   0.863   3.436   2.300 -0.4479 -1.3948 -0.4386
   66RES   H19927629   0.732   3.431   2.405  1.8315  1.6225  0.5475
   66RES   H20027630   0.632   3.635   2.262 -0.0598 -0.8987  1.0941
   66RES   H20127631   0.869   3.669   2.452  1.0809  2.9320 -0.9271
   66RES   H20227632   0.703   3.629   2.492  0.0868 -1.4241 -0.2377
   66RES   H20327633   0.615   3.838   2.414  0.1380 -2.1786 -0.0664
   66RES   H20427634   0.775   3.883   2.366  1.5841 -1.6491  0.6022
   66RES   H20527635   0.699   3.812   2.652  1.7743 -1.4651 -0.6852
   66RES   H20627636   0.846   3.892   2.605  0.4545 -1.4012  1.6737
   66RES   H20727637   0.653   4.030   2.721 -0.1574 -4.2853  0.5771
   66RES   H20827638   0.568   4.022   2.562 -0.0012 -1.9949 -0.2597
   66RES   H20927639   0.787   4.123   2.467  2.1940  0.7372  0.6158
   66RES   H21027640   0.823   4.163   2.632 -0.0775  3.0674 -1.6637
   66RES   H21127641   0.677   4.224   2.550  0.2749 -0.4319 -1.9075
   66RES   C21227642   0.836   3.676   2.179  0.2349 -0.3589  0.9122
   66RES   C21327643   0.776   3.786   2.090  0.0420  0.7831 -0.8603
   66RES   C21427644   0.876   3.884   2.046  0.5776 -0.3393 -0.0111
   66RES   C21527645   0.914   3.997   2.144  0.3233  0.4437 -0.2084
   66RES   C21627646   0.980   4.120   2.076  0.7111 -0.9543  0.3453
   66RES   C21727647   1.015   4.233   2.171 -0.2593  0.1552  0.4371
   66RES   C21827648   1.157   4.207   2.235 -0.1770 -0.1520 -0.6986
   66RES   H21927649   0.850   3.587   2.118  0.2296  1.0874 -1.2360
   66RES   H22027650   0.939   3.693   2.212  0.2923  0.8546  0.1681
   66RES   H22127651   0.699   3.839   2.145  0.1886 -0.6985  0.8188
   66RES   H22227652   0.967   3.833   2.015 -1.1752 -3.6357  0.1308
   66RES   H22327653   0.837   3.934   1.957  1.7783  0.3170 -0.1817
   66RES   H22427654   0.985   3.957   2.217 -1.1098 -0.8848  0.4777
   66RES   H22527655   0.837   4.041   2.207  1.4446  4.1220 -1.2793
   66RES   H22627656   1.062   4.096   2.008  1.3393 -0.1486  0.8145
   66RES   H22727657   0.904   4.158   2.008  1.4101  0.6255  0.4162
   66RES   H22827658   1.010   4.332   2.126  1.9669 -0.5486 -1.5106
   66RES   H22927659   0.935   4.247   2.243  0.5209  0.4437  1.2619
   66RES   H23027660   1.238   4.233   2.167  1.1126  2.5714  1.7512
   66RES   H23127661   1.162   4.102   2.264 -0.2726  0.0153 -0.0725
   66RES   H23227662   1.171   4.264   2.327 -0.0350 -0.9595 -0.2043
   66RES   C23327663   0.697   3.722   1.969 -0.5322 -0.0923 -0.0767
   66RES   C23427664   0.600   3.819   1.887  0.2417  0.1645  0.3676
   66RES   C23527665   0.562   3.751   1.754  0.0244 -0.1896 -0.7870
   66RES   C23627666   0.619   3.824   1.630  0.0520 -0.0133  0.3133
   66RES   C23727667   0.554   3.801   1.490  0.6042  0.1264 -0.1391
   66RES   C23827668   0.641   3.863   1.382  0.2296  0.3279 -0.0135
   66RES   C23927669   0.626   4.014   1.367 -0.1972  0.1434  0.6906
   66RES   H24027670   0.623   3.648   2.002  0.3573 -0.6856  0.5929
   66RES   H24127671   0.771   3.675   1.904  0.6491  1.6792 -0.0391
   66RES   H24227672   0.654   3.912   1.866 -0.3267  0.1207 -1.3855
   66RES   H24327673   0.453   3.758   1.749  0.0501  1.0583  0.2925
   66RES   H24427674   0.580   3.643   1.757 -1.1277 -0.3407  1.9309
   66RES   H24527675   0.726   3.805   1.626  0.6768  3.2688  0.2503
   66RES   H24627676   0.600   3.929   1.650  1.0170  0.8318 -2.9007
   66RES   H24727677   0.454   3.844   1.495  0.3546 -0.2888 -1.3970
   66RES   H24827678   0.548   3.693   1.474 -0.2916  0.7387 -4.3561
   66RES   H24927679   0.745   3.836   1.399  0.4851  0.3944 -1.3694
   66RES   H25027680   0.606   3.823   1.287 -1.8981 -0.8119  1.2074
   66RES   H25127681   0.523   4.049   1.376  0.1269  0.3083  4.7752
   66RES   H25227682   0.685   4.075   1.435  2.1067 -0.1379 -0.9764
   66RES   H25327683   0.663   4.043   1.269 -0.9525 -2.4085 -0.3876
   66RES   C25427684   0.467   3.845   1.969 -0.2368  0.0509  0.2227
   66RES   C25527685   0.403   3.983   1.941 -0.4036  0.7079  0.2097
   66RES   C25627686   0.476   4.103   2.013  0.6787 -0.0276 -0.0058
   66RES   C25727687   0.438   4.111   2.170 -0.0774  0.0737  1.1141
   66RES   C25827688   0.512   4.216   2.249  0.7003  0.1593 -0.1569
   66RES   C25927689   0.511   4.354   2.193  0.0784 -0.6185 -0.0347
   66RES   C26027690   0.541   4.449   2.313  0.3986 -0.4685  0.4786
   66RES   H26127691   0.482   3.836   2.077 -0.5727 -0.2217  0.2500
   66RES   H26227692   0.403   3.757   1.961  0.3085 -0.3405  0.1722
   66RES   H26327693   0.417   3.988   1.833 -2.6720 -0.6776 -0.2010
   66RES   H26427694   0.435   4.194   1.969  0.6220 -0.5872 -1.1336
   66RES   H26527695   0.584   4.109   1.997  0.5477 -0.3274 -1.0479
   66RES   H26627696   0.330   4.121   2.178 -0.3105 -1.4631  0.1390
   66RES   H26727697   0.463   4.018   2.221  1.0983 -0.0369  0.3602
   66RES   H26827698   0.618   4.193   2.266  0.7133  0.5430  0.2785
   66RES   H26927699   0.460   4.214   2.345  0.6494  1.6835 -0.1381
   66RES   H27027700   0.579   4.366   2.109 -2.1892  0.7585 -1.7215
   66RES   H27127701   0.412   4.381   2.158 -0.2728  1.7754  2.5748
   66RES   H27227702   0.647   4.449   2.341  0.2021  2.4244  1.4202
   66RES   H27327703   0.528   4.554   2.286  1.8338 -0.6236 -0.9168
   66RES   H27427704   0.470   4.421   2.391 -2.0909  2.4846 -0.6233
   66RES   C27527705   0.247   3.979   1.968 -0.6484  0.6773  0.3673
   66RES   C27627706   0.171   3.892   1.859 -0.0635 -0.2955  0.4449
   66RES   C27727707   0.107   3.974   1.749  0.7278 -0.1117  0.5721
   66RES   C27827708   0.197   4.042   1.642  0.5231  0.1728 -0.1046
   66RES   C27927709   0.126   4.135   1.542  0.2568  0.0261  0.3875
   66RES   C28027710   0.222   4.190   1.437  0.2265 -0.1190 -0.2853
   66RES   C28127711   0.171   4.289   1.328 -0.1187 -0.0815  0.0963
   66RES   H28227712   0.217   4.083   1.972 -1.0564  0.5348  1.2591
   66RES   H28327713   0.223   3.937   2.066 -1.3069  0.0505 -0.0569
   66RES   H28427714   0.245   3.821   1.822  3.0752  1.0372  3.9039
   66RES   H28527715   0.067   3.894   1.688  1.7379  0.0030 -0.2714
   66RES   H28627716   0.035   4.048   1.784 -0.6591 -0.6580 -1.1096
   66RES   H28727717   0.247   3.959   1.592  1.6655 -0.4868  2.0643
   66RES   H28827718   0.277   4.094   1.695  0.9856  2.7767 -3.2638
   66RES   H28927719   0.078   4.215   1.599  1.0636  0.3022  0.6995
   66RES   H29027720   0.042   4.085   1.495  1.1150 -0.9075 -0.1867
   66RES   H29127721   0.303   4.237   1.493 -0.0800  1.6929 -1.3272
   66RES   H29227722   0.276   4.115   1.378  3.3269  1.4138  0.4860
   66RES   H29327723   0.097   4.238   1.267  0.9584 -1.9310  0.2871
   66RES   H29427724   0.247   4.329   1.261  1.8458 -1.0479  1.6699
   66RES   H29527725   0.114   4.373   1.367 -1.0456 -1.3534  1.5711
   66RES   C29627726   0.058   3.813   1.927  0.1840 -0.1344  0.2885
   66RES   C29727727   0.083   3.684   2.011  0.1597 -0.1855  0.0270
   66RES   C29827728   0.128   3.569   1.914 -0.2155  0.7766  0.5907
   66RES   C29927729   0.192   3.446   1.974 -0.4352 -0.2100  0.1273
   66RES   C30027730   0.235   3.351   1.857  0.4003  0.1841 -0.1766
   66RES   C30127731   0.283   3.220   1.913 -0.1348  0.7288 -0.1855
   66RES   C30227732   0.291   3.109   1.809 -0.2985  0.2624  0.5304
   66RES   H30327733   0.005   3.877   1.998 -0.2793  0.4726 -0.6048
   66RES   H30427734   7.710   3.785   1.853  0.7581  0.3874 -0.4915
   66RES   H30527735   0.169   3.703   2.075 -0.3230 -0.5946  0.8137
   66RES   H30627736   0.037   3.534   1.866 -0.5165  4.0825 -1.4114
   66RES   H30727737   0.191   3.605   1.832 -1.7702  2.1154 -0.0368
   66RES   H30827738   0.125   3.402   2.048  1.8056 -1.0783  1.7038
   66RES   H30927739   0.278   3.466   2.038 -0.3060 -2.7335  0.7966
   66RES   H31027740   0.312   3.399   1.796  0.6624  0.1570  0.1297
   66RES   H31127741   0.144   3.330   1.802  0.3695 -0.4646  0.1213
   66RES   H31227742   0.377   3.227   1.968 -0.9895  1.3206  1.2485
   66RES   H31327743   0.217   3.181   1.991  0.8173  0.3831  0.4592
   66RES   H31427744   0.382   3.132   1.754  1.0725  0.3229  2.7922
   66RES   H31527745   0.294   3.011   1.857 -2.4482 -0.9387 -1.6684
   66RES   H31627746   0.201   3.110   1.746  0.0406 -0.7834  0.0128
   66RES   C31727747   7.682   3.636   2.101 -0.0667  1.0995 -0.1305
   66RES   C31827748   7.675   3.698   2.239  0.2694 -0.7743  0.2912
   66RES   C31927749   7.535   3.706   2.296  0.4037 -0.2321 -0.3932
   66RES   C32027750   7.462   3.568   2.318 -0.0782 -0.1527 -0.8168
   66RES   C32127751   7.320   3.574   2.372  0.0435 -0.0616  0.2615
   66RES   C32227752   7.253   3.440   2.374 -0.7339  0.1294  0.5202
   66RES   C32327753   7.118   3.458   2.430  0.4249  0.7812 -0.0504
   66RES   H32427754   7.670   3.528   2.106  0.1270  1.0698 -0.2854
   66RES   H32527755   7.596   3.672   2.045  0.2174 -2.0760 -2.7681
   66RES   H32627756   7.707   3.798   2.211 -0.8949 -0.5295 -0.1601
   66RES   H32727757   7.467   3.765   2.235 -0.4335 -0.8979 -0.1185
   66RES   H32827758   7.551   3.756   2.392  0.1265  3.0774 -2.0256
   66RES   H32927759   7.524   3.504   2.381 -0.9755  0.3050  0.5504
   66RES   H33027760   7.463   3.516   2.222 -0.3823 -0.4606 -0.6570
   66RES   H33127761   7.257   3.644   2.318 -1.0212 -2.4932 -1.7731
   66RES   H33227762   7.326   3.609   2.475  0.7601 -0.1788  0.2624
   66RES   H33327763   7.312   3.359   2.418 -1.1715 -1.9375 -2.4793
   66RES   H33427764   7.240   3.406   2.271  0.2111  0.2993  0.3414
   66RES   H33527765   7.055   3.503   2.353 -0.8108 -2.3462 -0.9406
   66RES   H33627766   7.111   3.523   2.517  1.5305  1.8234 -0.7162
   66RES   H33727767   7.071   3.366   2.463 -0.5707  0.4218 -2.3588
   66RES   C33827768   0.051   3.644   2.340 -0.0396  0.3670 -0.0501
   66RES   C33927769   0.161   3.755   2.381  0.1056 -0.0507  0.4180
   66RES   C34027770   0.303   3.708   2.420 -0.0257 -1.0125  0.1009
   66RES   C34127771   0.301   3.618   2.543 -0.0651  0.2831  0.3348
   66RES   C34227772   0.443   3.580   2.603 -0.5421  0.9382 -0.1415
   66RES   C34327773   0.446   3.517   2.745  1.0681 -0.3714 -0.3468
   66RES   C34427774   0.589   3.470   2.790 -0.4162  0.2510 -0.2562
   66RES   H34527775   0.111   3.559   2.306  0.9776 -0.7272  4.2147
   66RES   H34627776   7.722   3.597   2.421  1.2535 -0.8222  0.1686
   66RES   H34727777   0.169   3.821   2.295  0.1342 -0.8133 -0.1712
   66RES   H34827778   0.357   3.658   2.340  1.8311  0.6548  0.2666
   66RES   H34927779   0.370   3.791   2.441  0.5635 -1.6856  0.9314
   66RES   H35027780   0.255   3.523   2.519 -1.9805  1.9309 -2.8726
   66RES   H35127781   0.245   3.669   2.622  0.4815  0.8341  0.3765
   66RES   H35227782   0.482   3.505   2.534  0.2248  1.6336 -0.4744
   66RES   H35327783   0.518   3.660   2.600 -1.8112  2.1669  0.4179
   66RES   H35427784   0.394   3.578   2.819 -1.7089 -0.5002 -2.0852
   66RES   H35527785   0.380   3.432   2.729 -0.8474  0.8723  0.7464
   66RES   H35627786   0.575   3.379   2.848  0.1348 -0.2166 -0.8466
   66RES   H35727787   0.638   3.540   2.858 -0.3717 -0.5993  0.5825
   66RES   H35827788   0.652   3.443   2.704 -0.4109 -0.9115  0.1095
   66RES   C35927789   0.100   3.842   2.500  0.2325 -0.5459  0.4483
   66RES   C36027790   0.188   3.957   2.553 -0.4671 -0.6552  0.4332
   66RES   C36127791   0.218   4.076   2.455 -0.2404 -0.2354  0.4388
   66RES   C36227792   0.092   4.165   2.418 -0.2646  0.3092  0.8762
   66RES   C36327793   0.133   4.292   2.336 -0.0270 -0.3113  0.9961
   66RES   C36427794   0.021   4.400   2.317 -0.2722 -0.1154 -0.6816
   66RES   C36527795   7.694   4.470   2.442 -0.1748 -0.3366 -0.6937
   66RES   H36627796   0.078   3.777   2.584 -0.5753  1.1023  1.5609
   66RES   H36727797   0.000   3.879   2.474  0.0767 -0.1469  1.5564
   66RES   H36827798   0.289   3.920   2.572  0.5510  0.6932 -2.0742
   66RES   H36927799   0.303   4.125   2.502  0.4556 -1.7739  0.8026
   66RES   H37027800   0.263   4.033   2.365  0.2905  0.1613  0.5128
   66RES   H37127801   0.032   4.105   2.349  1.4015  0.9922 -1.2181
   66RES   H37227802   0.037   4.188   2.509 -2.7137 -2.4911  0.2080
   66RES   H37327803   0.220   4.347   2.374  0.1957 -0.5210  0.7920
   66RES   H37427804   0.162   4.259   2.236 -0.5408 -2.6128  1.5740
   66RES   H37527805   0.080   4.470   2.257 -2.8899  1.6538 -1.2520
   66RES   H37627806   7.664   4.382   2.250 -0.9787  0.2055  0.1092
   66RES   H37727807   7.669   4.572   2.413  1.7973  0.1103 -0.8885
   66RES   H37827808   7.601   4.428   2.481 -0.4723 -0.3261 -1.3820
   66RES   H37927809   0.029   4.469   2.531 -0.8590 -0.2342 -0.2162
   66RES   C38027810   0.150   4.011   2.696 -0.4196 -0.3720  0.6185
   66RES   C38127811   0.176   3.909   2.812 -0.3911  0.4168  0.0529
   66RES   C38227812   0.329   3.880   2.851 -0.4253  0.2252 -0.0983
   66RES   C38327813   0.416   3.990   2.923  0.3509 -0.0320 -0.3539
   66RES   C38427814   0.550   3.937   2.980 -0.3226  0.2915  0.1206
   66RES   C38527815   0.542   3.836   3.096  0.1221  0.2787 -0.2019
   66RES   C38627816   0.670   3.812   3.169 -0.4449 -0.3511 -0.4677
   66RES   H38727817   0.221   4.091   2.717  1.7688 -2.0989 -0.0214
   66RES   H38827818   0.046   4.043   2.705  0.1067  1.5319  0.2583
   66RES   H38927819   0.128   3.817   2.780  0.3713  0.3817 -1.0084
   66RES   H39027820   0.372   3.852   2.755 -0.2903  2.0875 -0.5972
   66RES   H39127821   0.326   3.793   2.916 -0.9424  0.9231  0.8332
   66RES   H39227822   0.441   4.056   2.840 -0.2444  1.1424  0.3775
   66RES   H39327823   0.352   4.037   2.998  0.6053  0.2334 -0.3014
   66RES   H39427824   0.609   3.889   2.902 -0.1819 -0.3060  0.5929
   66RES   H39527825   0.607   4.022   3.018  0.8567  0.2060 -1.4082
   66RES   H39627826   0.522   3.736   3.058  0.1739  0.3153 -0.3258
   66RES   H39727827   0.467   3.857   3.172 -0.2115  2.5358 -1.0940
   66RES   H39827828   0.654   3.767   3.268 -0.4835  1.2906  0.2922
   66RES   H39927829   0.731   3.899   3.192 -0.7169 -0.2956  0.0530
   66RES   H40027830   0.741   3.752   3.111 -1.1439  0.4942 -2.2129
   66RES   C40127831   0.080   3.943   2.931  0.5162 -0.5684  0.1999
   66RES   C40227832   0.075   3.842   3.051 -0.1023  0.5884  0.3391
   66RES   C40327833   7.681   3.855   3.139 -0.2884  0.7179  0.0577
   66RES   C40427834   7.674   3.725   3.219 -0.3895  0.5895 -0.2210
   66RES   C40527835   7.601   3.748   3.361  0.0244 -0.2157 -0.0904
   66RES   C40627836   7.536   3.620   3.432  0.6799 -0.0214  0.3568
   66RES   C40727837   7.493   3.634   3.572 -0.1858 -0.2338  0.2404
   66RES   H40827838   7.702   3.949   2.903  0.4219 -0.2615  0.6163
   66RES   H40927839   0.097   4.048   2.957  1.4021 -1.1225  1.9735
   66RES   H41027840   0.164   3.844   3.114  0.1456  0.9570 -0.0189
   66RES   H41127841   7.594   3.861   3.074 -0.5897  1.3981  0.5072
   66RES   H41227842   7.693   3.945   3.201  1.1751 -0.2752  1.2628
   66RES   H41327843   0.040   3.669   3.232 -0.6017  0.7489  2.2704
   66RES   H41427844   7.615   3.654   3.161 -1.5138 -1.5475  3.3556
   66RES   H41527845   7.659   3.809   3.430  0.8825 -1.7594  0.5873
   66RES   H41627846   7.528   3.827   3.348 -0.6107 -0.7366  0.2320
   66RES   H41727847   7.455   3.590   3.366 -0.1686  3.9244 -0.5204
   66RES   H41827848   7.612   3.542   3.432  0.2919 -0.4036  0.3162
   66RES   H41927849   7.399   3.689   3.562  0.9488  1.7107  0.0662
   66RES   H42027850   7.559   3.706   3.620 -2.1557  0.3467  2.1573
   66RES   H42127851   7.487   3.544   3.632  2.7153 -0.3236  0.4557
   66RES   H42227852   0.076   3.740   3.014  1.6853  0.3848  0.8558
   67RES     C127853   0.263   1.485   3.665 -0.5308  0.1292  0.5195
   67RES     C227854   0.179   1.444   3.789 -0.2113  0.3319 -0.0436
   67RES     C327855   0.279   1.394   3.898  0.4256 -0.4678 -0.1732
   67RES     C427856   0.362   1.510   3.962 -0.3933  0.7488  0.5853
   67RES     C527857   0.478   1.459   4.063 -0.4221 -0.6247  0.1986
   67RES     C627858   0.554   1.575   4.128  0.0033  0.2523  0.6396
   67RES     C727859   0.662   1.529   4.226 -0.1967  0.1919 -0.4452
   67RES     H827860   0.328   1.406   3.628  0.2544 -0.0463  2.2023
   67RES     H927861   0.308   1.577   3.703  1.0848 -1.3223  2.2379
   67RES    H1027862   0.130   1.532   3.831  0.4867  1.1047 -0.8459
   67RES    H1127863   0.227   1.343   3.980 -0.0693 -2.0834 -1.4788
   67RES    H1227864   0.346   1.319   3.854 -0.4402 -0.3898 -1.6445
   67RES    H1327865   0.415   1.576   3.893  0.1290  0.8049  1.0377
   67RES    H1427866   0.293   1.577   4.014  0.2422  1.1361  0.9330
   67RES    H1527867   0.547   1.401   4.002  1.1960  1.2893  0.1610
   67RES    H1627868   0.445   1.391   4.141 -1.7720 -1.2671 -0.9215
   67RES    H1727869   0.490   1.649   4.176 -1.3627 -1.0018  0.7881
   67RES    H1827870   0.604   1.638   4.054 -0.3174 -1.4645 -1.0697
   67RES    H1927871   0.616   1.493   4.319 -1.2271  0.8940 -0.6684
   67RES    H2027872   0.728   1.611   4.253 -0.4045  1.4868 -3.6370
   67RES    H2127873   0.724   1.453   4.180 -2.0591 -0.3732 -2.1139
   67RES    H2227874   0.195   1.501   3.582 -1.1852 -1.1724  0.7860
   67RES    C2327875   0.081   1.332   3.738 -0.1953 -0.2353 -0.2820
   67RES    C2427876   7.717   1.260   3.836  0.4332 -0.2139 -0.2503
   67RES    C2527877   7.652   1.142   3.774  0.5311 -0.1771 -0.4997
   67RES    C2627878   7.536   1.182   3.682 -0.0742 -0.2580  0.0042
   67RES    C2727879   7.439   1.068   3.638 -0.2330  0.5011 -0.4181
   67RES    C2827880   7.312   1.109   3.563  0.4500 -0.1099 -0.5121
   67RES    C2927881   7.235   0.992   3.521  0.2250  0.2841  0.2448
   67RES    H3027882   0.023   1.381   3.660 -0.2803  1.8079  1.0338
   67RES    H3127883   0.145   1.255   3.695 -0.9001 -0.5582 -0.7701
   67RES    H3227884   0.064   1.211   3.901  2.0913  0.0831 -1.8490
   67RES    H3327885   7.604   1.087   3.855 -0.4897 -0.4363 -1.2519
   67RES    H3427886   0.012   1.087   3.738  1.8962  0.4774  1.7273
   67RES    H3527887   7.582   1.218   3.591  1.5331  0.1820  0.9663
   67RES    H3627888   7.480   1.266   3.724 -1.1196 -1.2712  0.6999
   67RES    H3727889   7.412   1.023   3.733 -0.6492 -0.2388 -0.8849
   67RES    H3827890   7.496   0.994   3.582 -1.7205 -1.0502  0.0864
   67RES    H3927891   7.347   1.154   3.471  0.0067  0.6107 -0.3285
   67RES    H4027892   7.270   1.190   3.622  3.5234  1.2545 -0.1019
   67RES    H4127893   7.218   0.924   3.604 -0.7936 -0.9075 -0.9155
   67RES    H4227894   7.144   1.028   3.474  0.8206  0.1637 -1.0202
   67RES    H4327895   7.283   0.922   3.452  0.7458  0.5769  0.3100
   67RES    C4427896   7.629   1.363   3.907  0.3710 -0.8833  0.7920
   67RES    C4527897   7.548   1.310   4.028  0.0133  0.3405 -0.8039
   67RES    C4627898   7.639   1.243   4.132  0.9486 -0.0046  0.5607
   67RES    C4727899   0.004   1.336   4.212  0.7049  0.2386 -0.6520
   67RES    C4827900   0.045   1.268   4.345  0.7151  0.3056  0.3710
   67RES    C4927901   0.144   1.355   4.431 -0.1286 -0.5821 -0.1460
   67RES    C5027902   0.269   1.410   4.368 -0.8565 -0.0804 -0.2930
   67RES    H5127903   7.571   1.421   3.835  0.6527 -0.2782  1.0434
   67RES    H5227904   7.698   1.437   3.948  1.1761 -1.5623  0.6725
   67RES    H5327905   7.487   1.228   3.989  1.1568 -1.8953  1.9238
   67RES    H5427906   7.686   1.147   4.109 -2.2696 -1.9408  1.5567
   67RES    H5527907   7.559   1.204   4.196  0.9535 -0.2653  0.4091
   67RES    H5627908   0.095   1.365   4.160  2.4261 -0.2223  1.9753
   67RES    H5727909   7.682   1.432   4.226 -0.3140 -0.5699  1.5860
   67RES    H5827910   0.089   1.171   4.320 -3.2880 -0.8204 -2.9693
   67RES    H5927911   7.678   1.241   4.396  0.6347  0.3883  0.2664
   67RES    H6027912   0.161   1.305   4.527  1.5376 -0.4588 -0.3696
   67RES    H6127913   0.092   1.443   4.470  1.1478  0.0516  0.1569
   67RES    H6227914   0.309   1.476   4.445 -0.2033  1.1135 -1.6514
   67RES    H6327915   0.249   1.481   4.289  2.2911  1.5148  0.2571
   67RES    H6427916   0.354   1.349   4.336 -1.5669 -1.2291 -0.0480
   67RES    C6527917   7.436   1.415   4.067 -0.8158  0.5870 -0.0044
   67RES    C6627918   7.345   1.386   4.191 -0.4729 -0.2583  0.3625
   67RES    C6727919   7.264   1.256   4.172 -0.0263  0.2229  0.3954
   67RES    C6827920   7.199   1.243   4.037  0.8488  0.4765  1.2020
   67RES    C6927921   7.125   1.115   4.006 -0.2660 -0.0577 -0.4327
   67RES    C7027922   7.074   1.095   3.860  0.0658  0.1255 -0.9562
   67RES    C7127923   7.023   0.947   3.849 -0.6143  0.5334 -0.1723
   67RES    H7227924   7.493   1.508   4.074 -0.0171  0.0274  1.2047
   67RES    H7327925   7.371   1.429   3.981 -1.7306  0.6773  0.6883
   67RES    H7427926   7.403   1.370   4.282  2.3108 -0.3967 -1.3553
   67RES    H7527927   7.334   1.175   4.190  0.9260  1.1942  1.1187
   67RES    H7627928   7.182   1.257   4.244  0.1111  1.6657  0.5400
   67RES    H7727929   7.125   1.321   4.018 -2.2388 -2.2941  1.3835
   67RES    H7827930   7.271   1.253   3.956 -0.5747  0.6933 -0.0644
   67RES    H7927931   7.182   1.027   4.037 -0.1596  0.5284  1.0615
   67RES    H8027932   7.044   1.131   4.078  0.7759  2.4755  0.2333
   67RES    H8127933   7.163   1.113   3.800  2.2682  0.1485  2.1922
   67RES    H8227934   6.998   1.165   3.825  0.4039 -0.4011 -2.7879
   67RES    H8327935   7.020   0.927   3.742 -1.4180  2.2861 -0.4893
   67RES    H8427936   7.091   0.877   3.897 -0.2905  0.2880 -0.9877
   67RES    H8527937   6.921   0.926   3.882  0.1333 -0.9142  1.3001
   67RES    C8627938   7.258   1.502   4.226  0.1559  0.4178 -0.4342
   67RES    C8727939   7.323   1.608   4.324  0.1251  0.0265  0.5644
   67RES    C8827940   7.255   1.742   4.304  0.1072  0.5033 -0.5662
   67RES    C8927941   7.265   1.802   4.160  0.4086 -0.1158 -0.0679
   67RES    C9027942   7.201   1.941   4.159 -0.0484  0.1860 -0.4537
   67RES    C9127943   7.168   2.002   4.024  0.9203 -0.1834  0.2807
   67RES    C9227944   7.102   2.138   4.030 -0.8347  0.2917  0.3000
   67RES    H9327945   7.222   1.550   4.135 -2.8801 -2.9123 -1.1009
   67RES    H9427946   7.162   1.471   4.268 -1.4642  3.7109 -1.4488
   67RES    H9527947   7.429   1.609   4.297  0.6724 -2.5869  2.3735
   67RES    H9627948   7.148   1.736   4.322  0.6360 -2.5366  2.0822
   67RES    H9727949   7.293   1.818   4.372 -0.3294  1.4180 -1.3319
   67RES    H9827950   7.373   1.814   4.145  0.5356  2.0979  2.1576
   67RES    H9927951   7.215   1.743   4.084  0.1748  2.0751 -1.6720
   67RES   H10027952   7.263   2.006   4.221 -1.2892 -1.1918  2.3062
   67RES   H10127953   7.116   1.944   4.228  1.8368  0.5742  1.9457
   67RES   H10227954   7.259   2.006   3.965  0.0720  3.5399 -0.8977
   67RES   H10327955   7.095   1.943   3.969 -1.3151  0.6940  2.2272
   67RES   H10427956   6.993   2.138   4.038 -0.6970 -1.3915  2.6320
   67RES   H10527957   7.127   2.194   3.940  0.8584  0.3024  0.7632
   67RES   H10627958   7.145   2.206   4.103  1.3467 -0.9879  0.2553
   67RES   C10727959   7.319   1.550   4.469  0.6511  0.2493  0.0162
   67RES   C10827960   7.376   1.647   4.578 -0.0561  0.4066  0.2236
   67RES   C10927961   7.364   1.579   4.717 -0.4946  0.1184 -0.2333
   67RES   C11027962   7.286   1.655   4.829 -0.5097 -0.0231  0.2225
   67RES   C11127963   7.282   1.579   4.962  0.1918  0.4618 -0.4210
   67RES   C11227964   7.224   1.439   4.976  0.1809  0.3643 -0.1293
   67RES   C11327965   7.083   1.427   4.921 -0.6030 -0.0504  0.2226
   67RES   H11427966   7.365   1.452   4.466 -0.3181 -0.2656  1.5638
   67RES   H11527967   7.213   1.528   4.483  0.4248  1.2070 -0.1829
   67RES   H11627968   7.324   1.742   4.586 -3.5168 -1.3664 -0.4137
   67RES   H11727969   7.466   1.571   4.755 -0.7702  0.8477  0.6848
   67RES   H11827970   7.329   1.476   4.708 -1.4064  0.5855 -2.3831
   67RES   H11927971   7.323   1.758   4.835 -2.1700  0.5778  0.3703
   67RES   H12027972   7.187   1.666   4.785 -0.6128  0.2434  0.5147
   67RES   H12127973   7.230   1.641   5.035  3.3128  2.3549  0.3140
   67RES   H12227974   7.384   1.578   5.001 -1.2749  0.6996  3.6916
   67RES   H12327975   7.298   1.373   4.931  1.3693  2.5000 -1.3834
   67RES   H12427976   7.213   1.419   5.083 -0.4238  0.1518 -0.2299
   67RES   H12527977   7.008   1.465   4.990 -0.4998 -1.7517  1.3180
   67RES   H12627978   7.079   1.469   4.821 -1.9360  0.5759  0.5278
   67RES   H12727979   7.053   1.323   4.912 -0.5858 -0.3046  2.6477
   67RES   C12827980   7.532   1.678   4.542 -0.2470 -0.6338 -0.2331
   67RES   C12927981   7.598   1.797   4.629 -0.2511  0.0150  0.0283
   67RES   C13027982   7.558   1.938   4.584 -0.2942  0.3384  0.3688
   67RES   C13127983   7.481   2.021   4.685  1.1702 -0.0476 -0.9499
   67RES   C13227984   7.458   2.162   4.638  0.1735 -0.2343  0.4721
   67RES   C13327985   7.394   2.260   4.735  0.4917  0.1274 -0.1576
   67RES   C13427986   7.497   2.338   4.819 -0.2515  0.4385  0.3301
   67RES   H13527987   7.599   1.592   4.547 -1.6222 -1.6326  1.2223
   67RES   H13627988   7.549   1.707   4.438 -0.2616 -0.9895 -0.3368
   67RES   H13727989   7.567   1.784   4.733  2.6330 -1.2370  0.7739
   67RES   H13827990   7.501   1.937   4.492  1.2868  0.2105 -0.6399
   67RES   H13927991   7.654   1.988   4.572  0.1620 -0.0056  2.4250
   67RES   H14027992   7.530   2.013   4.782 -1.4526 -0.4760  0.3761
   67RES   H14127993   7.385   1.973   4.698  0.0866  1.6419 -2.3985
   67RES   H14227994   7.403   2.160   4.544  1.5639 -0.3818 -0.3622
   67RES   H14327995   7.556   2.204   4.613 -1.3341  2.0816 -1.7763
   67RES   H14427996   7.311   2.220   4.794  0.1096 -1.1163 -1.4996
   67RES   H14527997   7.338   2.345   4.697  0.4559 -0.2899 -1.0331
   67RES   H14627998   7.532   2.285   4.907  1.7739 -1.1967 -1.3869
   67RES   H14727999   7.445   2.424   4.860  2.5911  1.6028  1.6712
   67RES   H14828000   7.576   2.377   4.755 -0.6622  1.1197  0.2342
   67RES   C14928001   0.023   1.787   4.617  0.3555  0.2957  0.0383
   67RES   C15028002   0.103   1.862   4.729 -0.3449  0.2095 -0.7859
   67RES   C15128003   0.247   1.897   4.685  0.1389 -0.4824 -0.1503
   67RES   C15228004   0.263   2.011   4.577  0.6550 -0.0868 -0.0582
   67RES   C15328005   0.408   2.051   4.554  0.0383  0.0774  0.0138
   67RES   C15428006   0.439   2.184   4.488  0.9160  0.3420 -0.2705
   67RES   C15528007   0.596   2.181   4.472  0.0219 -0.6546 -0.1177
   67RES   H15628008   0.056   1.683   4.622 -1.1709 -0.2883 -1.3216
   67RES   H15728009   0.046   1.819   4.516 -0.1114  0.3765 -0.0424
   67RES   H15828010   0.061   1.961   4.741 -1.5603 -0.5232  1.2258
   67RES   H15928011   0.314   1.922   4.767 -0.5935  2.6424 -0.4340
   67RES   H16028012   0.293   1.807   4.644  0.3922 -0.9477  1.1187
   67RES   H16128013   0.217   2.103   4.612 -2.4654 -1.4502 -0.4508
   67RES   H16228014   0.212   1.983   4.485 -0.7809  1.5192  0.2416
   67RES   H16328015   0.449   1.971   4.492 -1.0464  0.5327 -1.3207
   67RES   H16428016   0.467   2.048   4.646  0.3389 -0.7658 -0.2048
   67RES   H16528017   0.420   2.269   4.554 -0.3081 -0.5643  0.5565
   67RES   H16628018   0.380   2.208   4.399  1.2147  1.4079 -0.1905
   67RES   H16728019   0.637   2.210   4.568  1.7326  0.2566 -1.0966
   67RES   H16828020   0.629   2.259   4.403 -1.5399 -0.0525 -0.2035
   67RES   H16928021   0.635   2.090   4.426  0.1004 -1.7100  2.0138
   67RES   C17028022   0.101   1.785   4.860  0.7520 -0.1260  0.1480
   67RES   C17128023   0.130   1.869   4.985 -0.2311  0.0016  0.6275
   67RES   C17228024   0.005   1.952   5.032 -0.3140 -0.4598 -0.5434
   67RES   C17328025   7.624   1.877   5.102  0.3632  0.0757  0.6200
   67RES   C17428026   7.517   1.959   5.166 -0.2312 -0.2694  0.4477
   67RES   C17528027   7.413   1.859   5.213 -0.4925 -0.0347 -0.3809
   67RES   C17628028   7.316   1.928   5.304  0.4046 -0.1133 -0.3532
   67RES   H17728029   0.173   1.703   4.847  2.0197  1.0175 -0.1229
   67RES   H17828030   0.006   1.731   4.860  0.3414  0.5738 -0.7104
   67RES   H17928031   0.201   1.949   4.966 -0.1104 -0.1824  0.3021
   67RES   H18028032   7.698   2.015   4.950 -1.4082 -0.9127 -0.4444
   67RES   H18128033   0.052   2.022   5.102 -0.4568 -0.7683 -0.1425
   67RES   H18228034   7.669   1.815   5.180  0.3228 -0.4102  0.2520
   67RES   H18328035   7.586   1.809   5.026 -1.2522 -0.1746  1.6430
   67RES   H18428036   7.470   2.027   5.096  0.6136  0.3645  0.4906
   67RES   H18528037   7.560   2.022   5.244 -1.7024  0.7588  0.4265
   67RES   H18628038   7.449   1.775   5.273  0.9197  1.7578  1.3564
   67RES   H18728039   7.362   1.815   5.127 -0.8621 -0.0386 -0.1631
   67RES   H18828040   7.258   1.868   5.374 -0.1479  1.5171  0.6059
   67RES   H18928041   7.241   1.982   5.244  1.3075  0.7278 -0.7390
   67RES   H19028042   7.365   2.004   5.364 -0.5704  0.9947 -0.9292
   67RES   C19128043   0.194   1.791   5.100 -0.4049  0.0983  0.1755
   67RES   C19228044   0.349   1.775   5.094 -0.5003 -0.2233  0.6571
   67RES   C19328045   0.433   1.904   5.102  0.3762 -0.0560 -0.3900
   67RES   C19428046   0.405   1.999   5.219  0.5741  0.4636  0.3119
   67RES   C19528047   0.517   2.105   5.232 -0.4367  0.5120 -0.6191
   67RES   C19628048   0.480   2.213   5.326 -0.2055 -0.5848  0.2151
   67RES   C19728049   0.597   2.309   5.353  0.0782  0.4634 -0.5054
   67RES   H19828050   0.158   1.688   5.104  0.1072 -0.0814  0.1317
   67RES   H19928051   0.177   1.842   5.194 -1.4552  0.1196 -0.0230
   67RES   H20028052   0.372   1.731   4.997  0.3756  1.1555  0.2316
   67RES   H20128053   0.427   1.960   5.009  1.2310  1.4526  0.4348
   67RES   H20228054   0.538   1.875   5.107  0.5259  0.0769 -2.4254
   67RES   H20328055   0.411   1.938   5.309  2.2057  0.0560 -0.0572
   67RES   H20428056   0.309   2.051   5.217 -0.6256 -1.6594  1.6424
   67RES   H20528057   0.614   2.060   5.256 -1.1262 -0.4020  0.5521
   67RES   H20628058   0.543   2.157   5.140 -1.0721  2.2514  0.1650
   67RES   H20728059   0.452   2.156   5.415  0.4257 -1.2055  0.0163
   67RES   H20828060   0.397   2.262   5.276 -0.0630  0.0552  0.5874
   67RES   H20928061   0.561   2.404   5.392 -0.0601  0.1938  0.0272
   67RES   H21028062   0.651   2.326   5.260  3.3940 -4.4934  0.2949
   67RES   H21128063   0.664   2.247   5.412 -1.1773  0.5255  1.0230
   67RES   C21228064   0.405   1.668   5.195  0.2799 -0.0914 -0.6002
   67RES   C21328065   0.358   1.526   5.170 -0.7145 -0.2810  0.1420
   67RES   C21428066   0.475   1.446   5.114 -0.3240  0.2881 -0.2747
   67RES   C21528067   0.439   1.303   5.056 -0.8633 -0.1036  0.1910
   67RES   C21628068   0.379   1.300   4.914 -0.2683  1.4971 -0.2892
   67RES   C21728069   0.486   1.338   4.812  0.8092  0.6631  0.0007
   67RES   C21828070   0.425   1.346   4.672  0.4769  0.0559  0.5407
   67RES   H21928071   0.382   1.694   5.299 -0.9488 -2.6597 -0.1833
   67RES   H22028072   0.513   1.672   5.206  0.0356  1.4176  1.7035
   67RES   H22128073   0.285   1.540   5.090 -0.9286 -1.6626  0.0852
   67RES   H22228074   0.550   1.510   5.068  1.2919 -1.8444 -0.7264
   67RES   H22328075   0.542   1.426   5.199 -3.3290 -1.2699  1.8135
   67RES   H22428076   0.370   1.246   5.118 -0.9323 -0.9440 -0.6484
   67RES   H22528077   0.528   1.239   5.060 -0.8798 -0.3006 -1.9531
   67RES   H22628078   0.340   1.203   4.881 -1.8620  2.4553 -1.2645
   67RES   H22728079   0.290   1.362   4.910 -1.0181  0.3526 -2.9224
   67RES   H22828080   0.530   1.433   4.841 -0.1100  0.6432  1.4894
   67RES   H22928081   0.566   1.264   4.824  0.6736  0.2359 -1.6351
   67RES   H23028082   0.368   1.256   4.651  1.6971 -0.7645  0.6950
   67RES   H23128083   0.498   1.369   4.593 -1.5591 -1.5669 -1.9039
   67RES   H23228084   0.346   1.421   4.668 -2.4331 -2.9604 -0.8168
   67RES   C23328085   0.289   1.458   5.293  0.0044  1.5051  0.1780
   67RES   C23428086   0.142   1.488   5.322 -0.9419 -0.6196  0.1139
   67RES   C23528087   0.044   1.409   5.235 -0.0571  0.1568  0.5186
   67RES   C23628088   0.054   1.381   5.088  0.2054  0.1479  0.7490
   67RES   C23728089   7.678   1.300   5.026 -0.1503 -0.0612 -0.9467
   67RES   C23828090   7.714   1.269   4.882 -0.0184 -0.2501  0.3570
   67RES   C23928091   7.725   1.398   4.793  0.1117 -0.1080 -0.5394
   67RES   H24028092   0.348   1.472   5.383  1.9013 -2.0733 -0.4050
   67RES   H24128093   0.294   1.349   5.285 -0.9385  1.4779 -0.1365
   67RES   H24228094   0.134   1.595   5.305  1.0407 -0.4233  0.3485
   67RES   H24328095   7.678   1.467   5.244 -0.7612 -0.3125 -2.9641
   67RES   H24428096   0.008   1.316   5.279 -2.2369  0.5584 -0.3311
   67RES   H24528097   0.148   1.328   5.075  0.1922  0.3419 -0.2068
   67RES   H24628098   0.061   1.475   5.033  0.6897  0.2171  0.9232
   67RES   H24728099   7.589   1.361   5.017 -0.4625 -0.2576  0.6249
   67RES   H24828100   7.657   1.208   5.081 -1.5307  0.5514 -0.4441
   67RES   H24928101   0.075   1.205   4.870 -1.9339 -3.2600  1.7861
   67RES   H25028102   7.630   1.201   4.869 -0.3618  0.0576  0.9459
   67RES   H25128103   0.098   1.439   4.800 -0.0145  0.2064 -0.5956
   67RES   H25228104   7.698   1.371   4.691 -0.0935  2.3964 -1.1740
   67RES   H25328105   7.646   1.469   4.817  0.3060  0.1480 -0.6616
   67RES   C25428106   0.107   1.475   5.474 -0.1838  0.2504 -0.0092
   67RES   C25528107   7.707   1.559   5.507  0.5876 -0.7571  0.1002
   67RES   C25628108   0.007   1.711   5.502 -0.0259 -0.0504 -0.3159
   67RES   C25728109   0.141   1.762   5.572  0.1873  0.6353 -1.2638
   67RES   C25828110   0.148   1.916   5.586 -0.6611 -0.2824 -0.2404
   67RES   C25928111   0.290   1.959   5.626  0.8798  0.2530  0.0369
   67RES   C26028112   0.301   2.112   5.621 -0.2959  0.0853 -0.2175
   67RES   H26128113   0.191   1.504   5.538  0.7262  0.1129 -1.1334
   67RES   H26228114   0.090   1.370   5.496  1.2371 -0.2127 -1.0154
   67RES   H26328115   7.629   1.555   5.432  1.8396 -1.6812 -1.1801
   67RES   H26428116   7.651   1.771   5.540  0.6645 -1.2302  3.2952
   67RES   H26528117   0.007   1.745   5.399  3.9426  0.0886 -0.3356
   67RES   H26628118   0.153   1.722   5.672 -1.3010 -0.2599 -1.4262
   67RES   H26728119   0.230   1.724   5.523  0.3436 -2.4924  1.2891
   67RES   H26828120   0.080   1.963   5.656 -0.6366  1.5924 -1.4372
   67RES   H26928121   0.137   1.956   5.485  2.5721  1.9190  0.1945
   67RES   H27028122   0.333   1.936   5.723  0.2138  1.5969  0.6685
   67RES   H27128123   0.360   1.925   5.550 -3.6755 -1.4695 -3.6067
   67RES   H27228124   0.409   2.127   5.627 -0.2119 -0.0251 -1.4012
   67RES   H27328125   0.262   2.150   5.527  0.0959  1.0710  0.0098
   67RES   H27428126   0.246   2.154   5.705  0.6971  0.9633  0.0042
   67RES   C27528127   7.637   1.511   5.638 -0.7713  1.3520 -0.0756
   67RES   C27628128   7.492   1.466   5.640  0.6842  0.0215  1.0612
   67RES   C27728129   7.401   1.593   5.618 -0.0047  0.0566  0.9802
   67RES   C27828130   7.376   1.692   5.736  0.0020 -0.3812 -0.8181
   67RES   C27928131   7.251   1.782   5.723  0.5668 -0.2477 -0.6370
   67RES   C28028132   7.281   1.913   5.798 -0.3556 -0.3965 -0.0540
   67RES   C28128133   7.402   1.994   5.738 -0.2180  0.6234 -0.4689
   67RES   H28228134   7.665   1.586   5.712  1.6022  1.2837 -0.8800
   67RES   H28328135   7.691   1.420   5.664 -2.5928  0.3706  0.4016
   67RES   H28428136   7.491   1.400   5.553 -1.7354 -0.3515  1.3160
   67RES   H28528137   7.424   1.652   5.530 -0.5750 -0.6430  0.3613
   67RES   H28628138   7.305   1.569   5.572  1.3747 -0.9425 -1.4850
   67RES   H28728139   7.459   1.761   5.753  0.2132 -0.3638 -1.9206
   67RES   H28828140   7.369   1.632   5.827  1.6382  0.1226 -0.3440
   67RES   H28928141   7.162   1.726   5.749 -0.2527  0.7640 -1.2134
   67RES   H29028142   7.225   1.810   5.621 -1.7137  0.3016  0.0634
   67RES   H29128143   7.194   1.972   5.771  1.3438  2.6517  0.8509
   67RES   H29228144   7.285   1.912   5.907 -1.9322 -2.3824  0.0131
   67RES   H29328145   7.405   2.103   5.749 -2.2900  0.8231 -1.4917
   67RES   H29428146   7.408   1.967   5.633  1.1994  2.0468 -0.7745
   67RES   H29528147   7.495   1.970   5.789 -1.3178 -1.8055  0.4347
   67RES   C29628148   7.456   1.375   5.759  0.8485 -0.0338  0.1240
   67RES   C29728149   7.302   1.348   5.773  0.5124 -0.6246  0.5727
   67RES   C29828150   7.265   1.271   5.905 -0.1056 -0.1419  0.1164
   67RES   C29928151   7.278   1.352   6.039  0.3550 -0.1322  0.3826
   67RES   C30028152   7.184   1.474   6.058 -0.1195 -0.6027 -0.0051
   67RES   C30128153   7.193   1.551   6.188  0.1716 -0.3537  0.3072
   67RES   C30228154   7.315   1.643   6.166 -0.0453 -0.0111  0.0437
   67RES   H30328155   7.501   1.279   5.737 -0.4702 -0.9108  1.1558
   67RES   H30428156   7.499   1.415   5.851 -0.5680 -1.9567  1.6709
   67RES   H30528157   7.245   1.441   5.760  2.2717  0.3590 -0.3045
   67RES   H30628158   7.158   1.253   5.895 -0.1582 -0.2665  0.8323
   67RES   H30728159   7.317   1.176   5.903 -2.1389 -1.2536 -1.8783
   67RES   H30828160   7.376   1.400   6.031 -0.7221  2.0279 -0.2172
   67RES   H30928161   7.257   1.290   6.127  1.2574  1.8105  2.0199
   67RES   H31028162   7.087   1.424   6.052  0.4148 -1.6855  0.1411
   67RES   H31128163   7.175   1.538   5.970  0.9699 -0.7282 -0.2099
   67RES   H31228164   7.104   1.615   6.194 -0.2247 -0.8606 -0.1380
   67RES   H31328165   7.198   1.485   6.275  3.2016  0.8096  1.0590
   67RES   H31428166   7.338   1.697   6.258 -4.0152  1.4256  0.2961
   67RES   H31528167   7.402   1.587   6.131 -0.6273 -1.1366  0.3644
   67RES   H31628168   7.291   1.720   6.092  0.3058 -0.3015 -0.3762
   67RES   C31728169   7.249   1.253   5.658 -0.1660  0.2195  0.4749
   67RES   C31828170   7.091   1.263   5.626 -0.0225 -0.5807  0.8116
   67RES   C31928171   7.060   1.397   5.556  0.0131 -0.2025  0.3559
   67RES   C32028172   6.911   1.428   5.528 -0.1461 -0.0146  0.2713
   67RES   C32128173   6.888   1.563   5.462  0.6217 -0.6405 -0.6490
   67RES   C32228174   6.740   1.614   5.460  0.4449 -0.1082 -0.0815
   67RES   C32328175   6.716   1.755   5.413 -0.2893 -0.5306  0.1246
   67RES   H32428176   7.283   1.149   5.659  0.1469  0.3015 -1.4773
   67RES   H32528177   7.295   1.298   5.570 -2.0159  0.2497 -0.4967
   67RES   H32628178   7.047   1.264   5.725  1.0525 -2.3169  1.3387
   67RES   H32728179   7.108   1.396   5.458  0.7568 -1.8107  0.7248
   67RES   H32828180   7.099   1.480   5.614  0.1586 -0.7300  1.0120
   67RES   H32928181   6.856   1.411   5.621  2.0501 -0.5789  1.4943
   67RES   H33028182   6.868   1.357   5.457  1.4541 -1.1399  0.3974
   67RES   H33128183   6.936   1.570   5.364 -1.7900  1.1131 -1.7429
   67RES   H33228184   6.941   1.636   5.523 -1.1168 -1.6449  2.1927
   67RES   H33328185   6.674   1.595   5.545 -0.7585 -1.2730 -1.2496
   67RES   H33428186   6.688   1.555   5.384 -1.1096 -0.8867  1.5325
   67RES   H33528187   6.751   1.818   5.495  1.9544 -1.3820 -0.1400
   67RES   H33628188   6.610   1.761   5.389 -0.3164 -1.7723 -0.1225
   67RES   H33728189   6.783   1.776   5.331 -0.6290  0.5151  0.1141
   67RES   C33828190   7.046   1.146   5.533 -0.8665 -0.3075 -0.0385
   67RES   C33928191   7.050   1.002   5.597  1.2053  0.1796 -0.3718
   67RES   C34028192   7.121   0.905   5.504  0.9545 -0.0166  0.8377
   67RES   C34128193   7.151   0.772   5.561  0.1245  1.2243  0.2235
   67RES   C34228194   7.237   0.684   5.468  0.5206 -0.1263  0.8448
   67RES   C34328195   7.259   0.541   5.517 -0.0646  1.2512 -0.4315
   67RES   C34428196   7.386   0.478   5.449 -0.3434 -0.0199 -0.6093
   67RES   H34528197   7.122   1.156   5.456  0.4541  0.9053  1.3877
   67RES   H34628198   6.950   1.163   5.484  0.2142  0.1123 -2.0653
   67RES   H34728199   7.110   0.992   5.687  1.5274 -3.0563 -0.8821
   67RES   H34828200   7.053   0.901   5.419  0.5347  1.8569  1.0450
   67RES   H34928201   7.211   0.956   5.470  0.1235  0.8313 -0.1221
   67RES   H35028202   7.060   0.727   5.600  0.6940 -0.3713 -0.2679
   67RES   H35128203   7.206   0.779   5.654  2.5762 -0.5232 -1.0445
   67RES   H35228204   7.189   0.670   5.371  0.2076  0.1447  0.9587
   67RES   H35328205   7.327   0.732   5.432  0.1782 -1.9127 -2.6304
   67RES   H35428206   7.276   0.540   5.625 -0.1430  0.6088 -0.4211
   67RES   H35528207   7.171   0.479   5.502  0.5701  0.0662  0.6612
   67RES   H35628208   7.370   0.466   5.342  1.3309  0.4156 -0.9337
   67RES   H35728209   7.401   0.379   5.491 -1.5566 -0.1146 -0.3809
   67RES   H35828210   7.479   0.531   5.473  2.1075 -2.9582 -3.1518
   67RES   C35928211   6.901   0.968   5.629  0.6402 -0.1710 -0.3021
   67RES   C36028212   6.821   1.064   5.722 -0.3397  0.1949 -0.4440
   67RES   C36128213   6.670   1.028   5.729 -0.6455  0.1573  0.2600
   67RES   C36228214   6.604   0.986   5.598  0.1171  0.7706 -0.5973
   67RES   C36328215   6.441   0.995   5.618 -0.9727  0.3712  0.2875
   67RES   C36428216   6.373   0.908   5.510  0.6975  0.2995  0.1274
   67RES   C36528217   6.381   0.966   5.370 -0.5612 -0.5065  0.4553
   67RES   H36628218   6.909   0.871   5.677 -1.0814 -0.4335 -0.5385
   67RES   H36728219   6.866   0.960   5.526 -0.4233  1.2343 -0.0636
   67RES   H36828220   6.825   1.165   5.680 -0.5754  0.0262 -0.8757
   67RES   H36928221   6.640   0.957   5.806 -2.0479 -0.5754 -0.9492
   67RES   H37028222   6.625   1.125   5.751 -0.2455  0.0603  1.5633
   67RES   H37128223   6.651   1.039   5.514 -1.2951  1.2600 -1.0895
   67RES   H37228224   6.643   0.886   5.579  0.0853  1.0770 -2.3676
   67RES   H37328225   6.405   0.951   5.711  1.1352 -1.3164  0.3401
   67RES   H37428226   6.409   1.098   5.625  0.2969  0.9370 -1.7501
   67RES   H37528227   6.415   0.808   5.523  1.4786  0.5503 -0.4339
   67RES   H37628228   6.266   0.918   5.531  0.4087  1.8285 -1.9409
   67RES   H37728229   6.315   0.920   5.296 -1.2600  2.5793 -0.9090
   67RES   H37828230   6.350   1.070   5.363 -0.6528 -0.5297  0.5229
   67RES   H37928231   6.484   0.953   5.340 -0.4120  1.0911  0.2071
   67RES   C38028232   6.884   1.070   5.863  0.6950  0.3199  0.0428
   67RES   C38128233   6.814   1.164   5.968  0.0118 -0.3966  0.0040
   67RES   C38228234   6.891   1.139   6.110 -0.2643 -0.4338 -0.0375
   67RES   C38328235   6.818   1.174   6.242 -0.0272 -0.5789 -0.1836
   67RES   C38428236   6.911   1.174   6.361  0.3252 -0.0075 -0.3786
   67RES   C38528237   6.839   1.213   6.486 -0.4100 -0.0988 -0.6379
   67RES   C38628238   6.924   1.206   6.616 -0.2899 -0.3309 -0.1847
   67RES   H38728239   6.885   0.966   5.895 -2.1061  0.3257  0.3454
   67RES   H38828240   6.990   1.094   5.860  0.5108  1.2042  0.5000
   67RES   H38928241   6.708   1.143   5.982 -0.1791  0.8043  0.4565
   67RES   H39028242   6.989   1.187   6.106  0.3758 -1.6351  1.0453
   67RES   H39128243   6.916   1.033   6.113  2.4785  0.1780 -0.3847
   67RES   H39228244   6.776   1.274   6.235  1.9727  0.2144 -1.1693
   67RES   H39328245   6.733   1.109   6.263 -0.5252 -0.1186 -0.7684
   67RES   H39428246   6.949   1.074   6.380 -0.1467 -0.1410 -0.1273
   67RES   H39528247   7.002   1.233   6.349  0.8744 -1.0192 -1.2559
   67RES   H39628248   6.763   1.137   6.508  0.2741 -1.2589 -2.2344
   67RES   H39728249   6.803   1.316   6.489 -1.0055 -0.3241  0.5606
   67RES   H39828250   7.007   1.274   6.598 -0.6282  0.1462  0.0399
   67RES   H39928251   6.966   1.105   6.614  2.4998  0.7926 -0.2148
   67RES   H40028252   6.882   1.243   6.709  0.5415  0.4635 -0.1185
   67RES   C40128253   6.822   1.314   5.923 -0.0353  0.0213 -0.0296
   67RES   C40228254   6.769   1.412   6.023  0.3941 -0.1519 -0.4426
   67RES   C40328255   6.735   1.550   5.956  0.1726 -0.0819  0.2373
   67RES   C40428256   6.865   1.639   5.959 -0.5118  1.1219  0.8070
   67RES   C40528257   6.835   1.783   5.920  0.7879 -0.5407  0.3849
   67RES   C40628258   6.957   1.869   5.871  0.9381  0.5694 -0.2507
   67RES   C40728259   6.921   2.023   5.876  0.0056  0.9946 -0.0195
   67RES   H40828260   6.765   1.326   5.830 -0.7885 -1.7416  0.1861
   67RES   H40928261   6.926   1.337   5.902 -0.0402  0.6061  0.5724
   67RES   H41028262   6.838   1.416   6.108 -1.2576 -0.5091  0.9454
   67RES   H41128263   6.666   1.596   6.026  0.0769  0.9521 -0.5246
   67RES   H41228264   6.684   1.546   5.859  1.8779 -1.8538 -0.6173
   67RES   H41328265   6.943   1.589   5.901 -0.5592 -0.8310  2.3312
   67RES   H41428266   6.901   1.656   6.061 -0.4564  0.8108  0.8404
   67RES   H41528267   6.768   1.793   5.834 -0.0549  0.5504  1.1499
   67RES   H41628268   6.791   1.839   6.002  0.9498  0.7188 -0.3791
   67RES   H41728269   7.048   1.855   5.928  0.6796 -1.0482 -0.2042
   67RES   H41828270   6.981   1.842   5.768  1.5633  0.1125  0.0155
   67RES   H41928271   7.004   2.080   5.834  0.2580 -0.2162 -1.1967
   67RES   H42028272   6.899   2.055   5.978  2.9588 -0.1438  1.0081
   67RES   H42128273   6.832   2.049   5.819 -0.7023  1.8246  1.4377
   67RES   H42228274   6.673   1.374   6.059 -0.1708  1.0719 -0.6423
   68RES     C128275   7.464   6.303   4.567  0.3796  0.2710  0.3295
   68RES     C228276   7.452   6.349   4.711  0.4986  0.3094  0.1427
   68RES     C328277   7.370   6.247   4.798 -1.0504 -0.5408  0.2643
   68RES     C428278   7.409   6.097   4.786 -0.4766 -0.3337 -0.6161
   68RES     C528279   7.347   6.007   4.898 -0.5065  0.0805  0.3044
   68RES     C628280   7.398   5.864   4.895  0.1669 -0.7143  0.7396
   68RES     C728281   7.319   5.773   4.985  0.2013 -0.1601  0.4509
   68RES     H828282   7.367   6.298   4.517  1.4082 -0.3361 -1.6218
   68RES     H928283   7.525   6.213   4.560 -0.4921 -0.1713 -1.7548
   68RES    H1028284   7.554   6.350   4.751  0.4791  1.7367  0.1838
   68RES    H1128285   7.395   6.268   4.902  1.1326  0.8229 -0.5098
   68RES    H1228286   7.267   6.258   4.763 -0.4008 -2.1727 -2.3533
   68RES    H1328287   7.380   6.052   4.691 -3.9246  0.1647  0.1387
   68RES    H1428288   7.516   6.086   4.800 -0.3936 -0.6913 -1.4579
   68RES    H1528289   7.239   6.000   4.900 -0.4347 -0.7593  3.0792
   68RES    H1628290   7.357   6.063   4.991  2.1977  1.1097 -0.5347
   68RES    H1728291   7.504   5.845   4.911  0.1844 -1.8717 -0.6343
   68RES    H1828292   7.382   5.823   4.795 -3.1206 -0.3915  1.0833
   68RES    H1928293   7.217   5.759   4.950 -0.1029  1.3387  0.6774
   68RES    H2028294   7.320   5.802   5.090  2.4379  0.9921  0.1620
   68RES    H2128295   7.349   5.669   4.978 -2.9615 -1.0777 -0.0970
   68RES    H2228296   7.523   6.371   4.505  1.0029 -0.7660 -0.2298
   68RES    C2328297   7.402   6.499   4.727 -0.5005  0.8181  0.2877
   68RES    C2428298   7.492   6.613   4.666 -0.3804  0.5014 -0.4832
   68RES    C2528299   7.637   6.621   4.725 -0.2605  0.2099  0.1098
   68RES    C2628300   0.014   6.706   4.636  0.2965 -0.1147 -0.1947
   68RES    C2728301   0.040   6.844   4.690  0.2440  0.2234 -0.0806
   68RES    C2828302   0.127   6.931   4.594 -0.4440  0.7553 -0.1392
   68RES    C2928303   0.263   6.867   4.571 -1.0001  0.3670 -0.2377
   68RES    H3028304   7.301   6.504   4.687 -0.4022  0.4730 -0.0087
   68RES    H3128305   7.399   6.530   4.831  0.1236  0.5359  0.3960
   68RES    H3228306   7.513   6.583   4.564  0.3606  0.7795 -0.4192
   68RES    H3328307   7.673   6.519   4.735  0.0348  0.4635  1.9408
   68RES    H3428308   7.635   6.664   4.825 -0.1087  1.0129 -0.2273
   68RES    H3528309   7.705   6.723   4.535  1.5511  1.0684 -0.4497
   68RES    H3628310   0.112   6.657   4.631  0.1193 -0.7157  1.5768
   68RES    H3728311   0.090   6.838   4.787  2.3682 -0.8372 -1.1870
   68RES    H3828312   7.672   6.894   4.707  0.5052  1.2522 -1.5515
   68RES    H3928313   0.123   7.032   4.635 -0.4106  0.1730  1.3540
   68RES    H4028314   0.062   6.942   4.507  0.4413 -0.8789 -1.0354
   68RES    H4128315   0.270   6.825   4.471  1.0616  0.1966 -0.0429
   68RES    H4228316   0.340   6.943   4.578 -0.1472 -0.6886  2.8184
   68RES    H4328317   0.292   6.788   4.640 -2.3096 -0.1530 -0.2562
   68RES    C4428318   7.420   6.749   4.676  0.2107  0.3609  0.2729
   68RES    C4528319   7.283   6.757   4.599 -0.0815 -0.7120 -0.1397
   68RES    C4628320   7.227   6.905   4.592 -0.0588 -0.0877  0.0083
   68RES    C4728321   7.157   6.947   4.726  0.0581  0.4239  0.2842
   68RES    C4828322   7.142   7.104   4.723 -0.1323  0.5528  0.1919
   68RES    C4928323   7.068   7.149   4.854 -0.2645  0.0522  0.3296
   68RES    C5028324   7.085   7.291   4.883  0.2275 -0.6215  0.3599
   68RES    H5128325   7.486   6.826   4.636 -2.6959  2.7103 -0.1621
   68RES    H5228326   7.397   6.759   4.782  0.1351 -2.5620  0.5726
   68RES    H5328327   7.219   6.687   4.653  0.5733 -0.0952  1.4751
   68RES    H5428328   7.154   6.915   4.511  0.1681 -0.2055 -0.2104
   68RES    H5528329   7.313   6.971   4.585 -0.2834  0.2700  0.6322
   68RES    H5628330   7.060   6.897   4.731 -1.0649  2.3634 -1.4884
   68RES    H5728331   7.213   6.927   4.817  0.3403  1.1118  0.2597
   68RES    H5828332   7.097   7.141   4.631  0.7978 -0.1988 -0.5791
   68RES    H5928333   7.241   7.150   4.726  0.2438 -0.3013  0.9547
   68RES    H6028334   7.107   7.094   4.940 -0.5544  0.9433  1.0411
   68RES    H6128335   6.962   7.124   4.847 -0.4368  0.9145 -0.1517
   68RES    H6228336   7.188   7.313   4.909 -0.0749  0.5516  0.5790
   68RES    H6328337   7.015   7.327   4.958  0.1796 -0.5781  0.2937
   68RES    H6428338   7.062   7.355   4.798 -1.7288 -1.6338  0.0940
   68RES    C6528339   7.288   6.697   4.459 -0.3731 -0.1795 -0.6187
   68RES    C6628340   7.320   6.788   4.337 -0.3488  0.4966 -0.1191
   68RES    C6728341   7.288   6.722   4.201 -0.2038  0.9675 -0.8423
   68RES    C6828342   7.137   6.703   4.171 -0.3982  0.0631 -0.4783
   68RES    C6928343   7.111   6.706   4.020 -0.3147  0.1705 -0.0968
   68RES    C7028344   6.960   6.725   3.991  0.2614 -0.5312  0.4288
   68RES    C7128345   6.925   6.729   3.842 -0.1904 -0.2914  0.1479
   68RES    H7228346   7.331   6.597   4.463  0.8941  0.2710 -2.1944
   68RES    H7328347   7.183   6.678   4.438 -0.0892 -1.1230 -1.2371
   68RES    H7428348   7.255   6.875   4.336  1.3465  1.8469  2.0269
   68RES    H7528349   7.311   6.794   4.122  1.4898 -0.0237 -1.2703
   68RES    H7628350   7.335   6.627   4.177 -0.3033  0.6805  0.0768
   68RES    H7728351   7.121   6.608   4.222 -1.7925 -0.1414 -1.2989
   68RES    H7828352   7.078   6.773   4.230 -0.1730  0.1508 -0.3533
   68RES    H7928353   7.165   6.784   3.967  1.2935 -0.2107  0.9777
   68RES    H8028354   7.146   6.616   3.970  1.1547  0.4974  0.3401
   68RES    H8128355   6.927   6.810   4.051  0.9215 -0.4471  0.6871
   68RES    H8228356   6.904   6.644   4.038 -0.2804 -0.6438 -0.4082
   68RES    H8328357   6.821   6.730   3.810 -0.3294  0.5455  0.5937
   68RES    H8428358   6.958   6.817   3.787  0.8012 -0.6147  0.2046
   68RES    H8528359   6.982   6.653   3.788  2.2536  1.2780  0.4410
   68RES    C8628360   7.463   6.834   4.329 -0.1976 -0.0832 -0.5344
   68RES    C8728361   7.472   6.971   4.253 -0.1773  0.1762 -0.7269
   68RES    C8828362   7.413   7.095   4.329 -0.4055 -0.8277  0.7355
   68RES    C8928363   7.416   7.243   4.265 -0.6450 -0.0165  0.2202
   68RES    C9028364   7.367   7.358   4.352  0.2550 -0.2257 -0.7152
   68RES    C9128365   7.470   7.388   4.464  0.6664  0.2566  0.6357
   68RES    C9228366   7.411   7.491   4.569 -0.2387 -0.0900 -0.2732
   68RES    H9328367   7.507   6.851   4.427  3.0542 -0.4206 -1.8663
   68RES    H9428368   7.531   6.754   4.300 -0.4823 -0.2819 -0.6577
   68RES    H9528369   7.418   6.965   4.158  1.0404  3.7194 -1.7470
   68RES    H9628370   7.305   7.087   4.342 -0.3370 -1.3029  1.0553
   68RES    H9728371   7.457   7.105   4.428  3.5595  2.7006 -1.2264
   68RES    H9828372   7.520   7.256   4.234 -0.5235 -1.4134 -0.0128
   68RES    H9928373   7.364   7.243   4.170 -0.5896  0.6353  0.1886
   68RES   H10028374   7.270   7.321   4.384  0.3680 -1.6779 -1.9485
   68RES   H10128375   7.341   7.445   4.292 -2.3837 -1.6461 -1.7155
   68RES   H10228376   7.480   7.299   4.528 -2.6847 -1.9308 -1.7271
   68RES   H10328377   7.565   7.429   4.428  0.9475  0.9539  2.1222
   68RES   H10428378   7.372   7.584   4.527  1.7197  1.6133  1.5851
   68RES   H10528379   7.482   7.506   4.650  1.2099 -3.0595 -0.9346
   68RES   H10628380   7.324   7.441   4.612  0.5766  0.1223  1.6459
   68RES   C10728381   7.618   7.001   4.202 -1.0859 -0.1151  0.5728
   68RES   C10828382   7.694   6.898   4.117 -0.5802 -0.5563 -0.3123
   68RES   C10928383   7.671   6.925   3.962 -0.0847 -0.5418 -0.1636
   68RES   C11028384   7.528   6.939   3.920  0.2802 -0.4289  0.2009
   68RES   C11128385   7.500   6.937   3.771 -0.1372 -0.4101 -0.4112
   68RES   C11228386   7.357   6.890   3.734 -0.1581 -0.0965  0.4131
   68RES   C11328387   7.317   6.914   3.586  0.2299 -0.4454 -0.8901
   68RES   H11428388   7.677   7.025   4.290  1.2724 -0.7218 -0.8147
   68RES   H11528389   7.616   7.092   4.141 -0.4610 -0.1860  0.4486
   68RES   H11628390   7.653   6.798   4.135  0.7448 -1.1897 -0.7095
   68RES   H11728391   7.722   6.845   3.909 -0.5133 -1.5735  0.9726
   68RES   H11828392   7.726   7.016   3.937  0.3628 -0.9803 -0.7878
   68RES   H11928393   7.471   6.859   3.967  1.0586 -1.2135 -0.1861
   68RES   H12028394   7.481   7.031   3.957  1.7698  1.7628 -3.1227
   68RES   H12128395   7.568   6.865   3.724  0.4476  1.0790 -1.8822
   68RES   H12228396   7.522   7.036   3.732  0.8052 -0.1458  0.7552
   68RES   H12328397   7.340   6.782   3.736  0.2088 -0.1689 -0.3152
   68RES   H12428398   7.273   6.916   3.799  1.5631  0.5721  2.4363
   68RES   H12528399   7.210   6.901   3.574  0.0567 -1.7719  1.7673
   68RES   H12628400   7.342   7.018   3.564 -1.4121  0.0953 -0.2808
   68RES   H12728401   7.385   6.856   3.523  1.6853  1.2562 -0.9456
   68RES   C12828402   0.115   6.912   4.157 -0.3951  0.0343 -0.3582
   68RES   C12928403   0.208   6.800   4.097  0.4665  0.3385 -0.2161
   68RES   C13028404   0.157   6.649   4.123  0.2730  0.7207 -0.2277
   68RES   C13128405   0.142   6.606   4.270  0.5649  0.3801  0.0373
   68RES   C13228406   0.112   6.456   4.291 -0.3112 -0.4320 -0.4901
   68RES   C13328407   0.119   6.413   4.437 -0.3280 -0.2864 -0.3229
   68RES   C13428408   0.114   6.269   4.448 -0.1068 -0.2978 -1.0496
   68RES   H13528409   0.154   7.012   4.139 -0.8073  0.3721  0.5955
   68RES   H13628410   0.124   6.917   4.266 -0.7277  1.6244 -0.3833
   68RES   H13728411   0.200   6.814   3.989 -1.0145  1.0759 -0.0218
   68RES   H13828412   0.220   6.572   4.079 -0.2159  1.6924 -2.6711
   68RES   H13928413   0.064   6.639   4.067 -0.7980  0.0915  1.5858
   68RES   H14028414   0.073   6.669   4.326  0.5952  0.1281  0.3583
   68RES   H14128415   0.240   6.619   4.316 -0.6066 -1.3068  3.1194
   68RES   H14228416   0.193   6.403   4.241 -1.6204 -1.1985 -1.8527
   68RES   H14328417   0.018   6.434   4.240  0.1994  0.0802 -1.6834
   68RES   H14428418   0.032   6.448   4.493  1.2731 -0.1841  2.1639
   68RES   H14528419   0.210   6.461   4.473 -0.7119  1.2343 -1.2978
   68RES   H14628420   0.017   6.228   4.417 -0.8826  0.6186  0.1121
   68RES   H14728421   0.123   6.248   4.554 -2.6681 -2.5304 -1.2010
   68RES   H14828422   0.195   6.221   4.393 -0.5998 -3.1394  0.5873
   68RES   C14928423   0.351   6.823   4.140  0.6008 -0.2516  0.9027
   68RES   C15028424   0.428   6.949   4.111  0.6795  0.4250 -0.2754
   68RES   C15128425   0.450   6.968   3.959 -0.1840  0.5294  0.2185
   68RES   C15228426   0.519   6.836   3.889 -0.3224  0.3658  0.6116
   68RES   C15328427   0.593   6.861   3.749  0.0284  0.0411  0.3198
   68RES   C15428428   0.697   6.980   3.758  0.1908 -0.2744  0.0595
   68RES   C15528429   0.789   7.000   3.640 -0.9172 -0.1613  0.2675
   68RES   H15628430   0.341   6.820   4.249  0.1503  0.3631  0.8857
   68RES   H15728431   0.398   6.729   4.111 -0.7749 -0.3724 -0.9854
   68RES   H15828432   0.363   7.032   4.140 -0.3975 -1.0550  1.7296
   68RES   H15928433   0.356   6.981   3.906 -1.2766 -1.7072  1.5567
   68RES   H16028434   0.504   7.060   3.939  0.7551  0.2869  1.5916
   68RES   H16128435   0.434   6.769   3.876  0.8618 -0.9323 -0.5193
   68RES   H16228436   0.593   6.790   3.955 -0.0672  0.8999  0.7014
   68RES   H16328437   0.519   6.885   3.673  1.4657  0.8091 -0.8452
   68RES   H16428438   0.644   6.768   3.726  0.5107 -0.0620  1.7597
   68RES   H16528439   0.763   6.960   3.842  2.2220  1.6877 -1.0186
   68RES   H16628440   0.645   7.075   3.771 -0.4277 -0.4218 -1.1845
   68RES   H16728441   0.877   6.936   3.647 -0.4595  0.4604  0.2946
   68RES   H16828442   0.834   7.100   3.639 -2.5647  0.5923 -1.5253
   68RES   H16928443   0.742   6.984   3.544 -1.4354  0.4592  0.4143
   68RES   C17028444   0.557   6.960   4.204 -0.2720 -0.6827 -0.1933
   68RES   C17128445   0.568   7.108   4.268  0.0911 -0.0774  0.5480
   68RES   C17228446   0.463   7.114   4.383  0.0960 -0.3238  0.3158
   68RES   C17328447   0.438   7.260   4.438  0.0357 -0.1192  0.2545
   68RES   C17428448   0.304   7.263   4.514 -0.5568 -0.5973 -0.3512
   68RES   C17528449   0.247   7.404   4.534  0.0670  0.1840  0.2055
   68RES   C17628450   0.129   7.410   4.631 -0.6704  0.3811  0.7823
   68RES   H17728451   0.644   6.937   4.142  0.0534 -0.2328  0.1014
   68RES   H17828452   0.561   6.883   4.281  1.1473  0.4528  0.8690
   68RES   H17928453   0.530   7.184   4.199  2.0993  1.4402  1.0628
   68RES   H18028454   0.494   7.064   4.475 -2.8615 -0.3109  1.3535
   68RES   H18128455   0.372   7.062   4.352  2.3389 -2.3564 -3.2538
   68RES   H18228456   0.426   7.336   4.361  0.6101  0.5846  0.8602
   68RES   H18328457   0.522   7.290   4.500  0.4814  2.9200 -1.7338
   68RES   H18428458   0.313   7.215   4.611 -1.4459  2.3348  1.2642
   68RES   H18528459   0.237   7.214   4.443  1.0258 -1.4238 -1.3123
   68RES   H18628460   0.213   7.447   4.439  0.8372 -0.6238 -0.4407
   68RES   H18728461   0.320   7.481   4.561  1.1756 -1.7954  3.0678
   68RES   H18828462   0.162   7.419   4.735  0.0371  1.5957  0.4528
   68RES   H18928463   0.058   7.328   4.623  0.5719 -0.4709 -1.9539
   68RES   H19028464   0.067   7.498   4.614  0.6427  0.8551 -1.7598
   68RES   C19128465   0.708   7.141   4.320  0.6609 -0.3560  0.4921
   68RES   C19228466   0.814   7.159   4.206 -0.0625 -0.2078  0.9352
   68RES   C19328467   0.778   7.265   4.098  0.2187  0.6223 -0.2265
   68RES   C19428468   0.750   7.407   4.127 -0.2718 -0.4920  0.1095
   68RES   C19528469   0.723   7.501   4.007  0.8690 -0.0461  0.3349
   68RES   C19628470   0.676   7.641   4.057  0.4912  0.1384  0.0266
   68RES   C19728471   0.672   0.019   3.946 -0.2376  0.3038 -0.9962
   68RES   H19828472   0.738   7.063   4.390  1.3327  0.0307  0.6408
   68RES   H19928473   0.702   7.230   4.383  0.8709 -0.1916  0.2817
   68RES   H20028474   0.801   7.074   4.140 -0.5213  0.9845 -0.5570
   68RES   H20128475   0.703   7.218   4.034  0.6312  0.9626 -0.9662
   68RES   H20228476   0.864   7.257   4.031 -1.0489 -2.3514 -1.6164
   68RES   H20328477   0.823   7.446   4.198 -0.0218 -0.6228 -0.0766
   68RES   H20428478   0.663   7.404   4.193  3.0724  1.5977  4.9524
   68RES   H20528479   0.805   7.521   3.937  0.1010  0.7096 -0.3540
   68RES   H20628480   0.640   7.454   3.954  0.1667 -0.2706  1.6188
   68RES   H20728481   0.733   7.685   4.140 -0.1325  1.4039 -0.2026
   68RES   H20828482   0.575   7.645   4.098  0.5258  2.7441 -0.0431
   68RES   H20928483   0.651   0.117   3.988  0.6047 -0.1129  0.4112
   68RES   H21028484   0.598   7.720   3.869 -0.0403  0.3159 -1.1920
   68RES   H21128485   0.772   0.022   3.905 -0.5667 -3.1817 -2.2444
   68RES   C21228486   0.955   7.178   4.264 -0.2784 -1.1429  0.5400
   68RES   C21328487   1.077   7.144   4.178 -0.0012  0.0550 -0.1402
   68RES   C21428488   1.205   7.156   4.274  0.9843  0.1483 -0.2623
   68RES   C21528489   1.247   7.304   4.301 -0.3034 -0.0635 -0.2031
   68RES   C21628490   1.372   7.302   4.384  0.3382  0.2228  0.5777
   68RES   C21728491   1.432   7.438   4.419  0.3840  0.2438 -0.0588
   68RES   C21828492   1.551   7.434   4.517  1.3473 -0.2170 -0.0155
   68RES   H21928493   0.962   7.114   4.352  1.4256 -2.6410 -0.6503
   68RES   H22028494   0.963   7.281   4.299  0.3265 -1.1603  0.4482
   68RES   H22128495   1.096   7.218   4.100  0.6823  1.2812  1.1609
   68RES   H22228496   1.201   7.092   4.362 -0.5396  0.2937 -0.2083
   68RES   H22328497   1.288   7.112   4.219  0.0085 -0.2644 -1.4444
   68RES   H22428498   1.174   7.369   4.350 -0.8960  0.4680 -1.7356
   68RES   H22528499   1.272   7.368   4.216 -2.1176  1.9340  0.7261
   68RES   H22628500   1.357   7.240   4.473 -1.0327 -0.3222 -0.0232
   68RES   H22728501   1.449   7.253   4.326  0.5809  2.0532 -0.6746
   68RES   H22828502   1.472   7.482   4.328  1.3517 -1.2964 -0.3805
   68RES   H22928503   1.354   7.505   4.458  0.6513  0.4784  0.0753
   68RES   H23028504   1.600   7.528   4.543 -0.6431  0.2243  2.2448
   68RES   H23128505   1.630   7.367   4.481  1.2050 -1.7221  2.3729
   68RES   H23228506   1.520   7.395   4.614  2.1785 -2.5097 -0.6388
   68RES   C23328507   1.074   7.007   4.096  0.3892  0.2249  0.4866
   68RES   C23428508   1.180   6.985   3.982  0.4951 -0.9503  0.0666
   68RES   C23528509   1.178   6.835   3.940  0.8999 -0.2166  0.1057
   68RES   C23628510   1.047   6.779   3.875 -0.4173  0.5493 -0.1422
   68RES   C23728511   1.043   6.624   3.851 -0.8748 -0.4069  0.6686
   68RES   C23828512   1.076   6.544   3.978  0.0810  0.2179  0.6702
   68RES   C23928513   0.972   6.563   4.094 -0.2685 -0.5210 -0.3086
   68RES   H24028514   0.982   7.007   4.037  1.3051 -0.6698 -0.9858
   68RES   H24128515   1.074   6.926   4.168 -0.1849  0.6317  0.9447
   68RES   H24228516   1.275   6.996   4.034  0.4913  1.8080 -0.4675
   68RES   H24328517   1.188   6.780   4.034  0.9585  0.9633  0.8008
   68RES   H24428518   1.269   6.808   3.886  0.6485 -1.5972  0.3564
   68RES   H24528519   1.032   6.829   3.779 -0.1242  2.4252  0.7622
   68RES   H24628520   0.962   6.802   3.940  1.5384  0.8374  2.4015
   68RES   H24728521   1.110   6.604   3.767 -2.1760 -1.3616 -0.1749
   68RES   H24828522   0.939   6.610   3.819 -1.5364 -0.7768  2.8980
   68RES   H24928523   1.084   6.439   3.951 -0.0569  0.2534  0.4913
   68RES   H25028524   1.173   6.572   4.021 -0.7067  0.5194  2.2917
   68RES   H25128525   0.963   6.663   4.137 -0.9051 -0.6843 -0.0518
   68RES   H25228526   0.871   6.535   4.064 -0.1459  1.7592 -3.0730
   68RES   H25328527   0.984   6.509   4.188 -2.7856 -0.7460 -0.0607
   68RES   C25428528   1.179   7.090   3.871  0.1263  0.5132  0.5911
   68RES   C25528529   1.300   7.071   3.784  0.3809 -0.1158 -0.3518
   68RES   C25628530   1.426   7.148   3.830  0.2591  0.1674 -0.0923
   68RES   C25728531   1.566   7.087   3.781 -0.2864 -0.7869 -0.9649
   68RES   C25828532   1.602   6.964   3.869 -0.0808  0.7891 -0.0321
   68RES   C25928533   1.747   6.915   3.844 -0.1453  0.5880 -0.0415
   68RES   C26028534   1.785   6.780   3.913 -0.2417  0.1412  0.7034
   68RES   H26128535   1.161   7.190   3.910 -1.3814 -0.5389  2.6386
   68RES   H26228536   1.094   7.073   3.805 -0.1878  1.8244  0.6417
   68RES   H26328537   1.316   6.964   3.776  0.1731 -0.2398  0.8229
   68RES   H26428538   1.432   7.160   3.938 -2.2717  1.5306 -0.0677
   68RES   H26528539   1.419   7.251   3.796  2.4824  0.5016  0.4409
   68RES   H26628540   1.550   7.060   3.676 -3.0586 -2.1524 -0.2446
   68RES   H26728541   1.643   7.163   3.786 -0.0132 -1.2093  2.7848
   68RES   H26828542   1.531   6.882   3.876  0.5705  0.0542 -1.9162
   68RES   H26928543   1.605   7.003   3.971 -0.0106 -3.6168  1.7509
   68RES   H27028544   1.753   6.885   3.739 -0.1496  2.1187 -0.4849
   68RES   H27128545   1.816   6.994   3.872 -0.1419 -0.3647  2.7966
   68RES   H27228546   1.887   6.745   3.895 -0.0793 -0.0725  1.9741
   68RES   H27328547   1.768   6.771   4.021  0.2150 -1.6241  0.6432
   68RES   H27428548   1.717   6.699   3.885  0.4109  0.4687 -1.8966
   68RES   C27528549   1.266   7.121   3.642 -0.0693  0.6740 -0.2735
   68RES   C27628550   1.183   7.023   3.556  0.5724 -0.4732  1.2599
   68RES   C27728551   1.250   6.891   3.508  0.3324  0.2494 -0.5847
   68RES   C27828552   1.155   6.788   3.437 -0.1963 -0.2679  0.0455
   68RES   C27928553   1.237   6.669   3.379  0.1576  0.5338 -0.1220
   68RES   C28028554   1.334   6.706   3.265 -0.2183  0.6655  0.1263
   68RES   C28128555   1.404   6.578   3.199 -0.1254 -0.6344  0.5990
   68RES   H28228556   1.355   7.145   3.586 -0.6983  0.5685 -1.3273
   68RES   H28328557   1.206   7.208   3.668 -0.3278  0.2868  0.4684
   68RES   H28428558   1.097   6.981   3.608 -0.7283 -0.4999 -0.8252
   68RES   H28528559   1.336   6.920   3.447  0.6681 -0.9171 -0.6813
   68RES   H28628560   1.291   6.840   3.595 -3.9377 -1.9323  0.2479
   68RES   H28728561   1.119   6.843   3.351  1.0904 -0.4612 -0.6305
   68RES   H28828562   1.078   6.759   3.508  0.3104 -0.0591  0.6923
   68RES   H28928563   1.172   6.590   3.340 -0.6840  2.5131 -2.8555
   68RES   H29028564   1.294   6.631   3.464  1.0669  1.4939 -0.2898
   68RES   H29128565   1.277   6.764   3.193  0.7475  0.4463 -0.8402
   68RES   H29228566   1.408   6.773   3.309 -0.3741  0.7450  0.2621
   68RES   H29328567   1.487   6.614   3.138 -0.9434  0.7543  0.2682
   68RES   H29428568   1.333   6.522   3.140  0.7830 -1.4659  0.2786
   68RES   H29528569   1.456   6.509   3.265  0.1164 -1.5998 -0.5931
   68RES   C29628570   1.126   7.102   3.442 -0.3866 -0.3698 -0.0320
   68RES   C29728571   1.214   7.177   3.335 -0.2998  0.5503  0.0987
   68RES   C29828572   1.144   7.313   3.290 -0.0835 -0.5248  0.0067
   68RES   C29928573   1.016   7.312   3.212 -0.4666  0.2751  0.1634
   68RES   C30028574   0.908   7.424   3.239  0.2064  0.4518 -0.0535
   68RES   C30128575   0.786   7.411   3.138 -1.1634 -0.3437  0.5095
   68RES   C30228576   0.700   7.543   3.132 -0.8736 -0.6220 -0.3329
   68RES   H30328577   1.044   7.048   3.394 -0.8432  0.0866  0.2290
   68RES   H30428578   1.073   7.180   3.496  0.9766  0.8581 -0.4518
   68RES   H30528579   1.301   7.214   3.389  0.1333 -1.2758  0.6863
   68RES   H30628580   1.126   7.377   3.376 -0.7336  1.7937 -1.7991
   68RES   H30728581   1.215   7.378   3.239  0.4579 -0.9389  0.2254
   68RES   H30828582   0.972   7.212   3.213 -1.1568  0.5777  0.2939
   68RES   H30928583   1.050   7.326   3.110 -0.6195  0.2217  0.1050
   68RES   H31028584   0.958   7.521   3.233  0.4961  0.2299 -1.3899
   68RES   H31128585   0.871   7.419   3.342  2.9938  1.6880  1.0515
   68RES   H31228586   0.821   7.384   3.038 -0.8652 -0.4564  0.6445
   68RES   H31328587   0.723   7.330   3.176 -0.6028 -1.7113 -1.3754
   68RES   H31428588   0.763   7.631   3.116 -1.4639 -0.5516 -2.3656
   68RES   H31528589   0.620   7.540   3.058  0.3153 -1.5029 -1.6148
   68RES   H31628590   0.659   7.564   3.231  0.6424  0.3970  0.1018
   68RES   C31728591   1.270   7.095   3.213  0.3809 -0.0607  0.7900
   68RES   C31828592   1.370   7.168   3.117 -1.1694 -0.7531  0.0282
   68RES   C31928593   1.514   7.123   3.144  0.0104  0.2850  0.0984
   68RES   C32028594   1.562   7.146   3.293 -0.4295 -0.0150  0.7298
   68RES   C32128595   1.717   7.150   3.305 -0.4623  0.7953  1.0705
   68RES   C32228596   1.757   7.193   3.440 -0.5351  0.0141 -0.4983
   68RES   C32328597   1.874   7.113   3.486  0.1147 -0.1425  0.8671
   68RES   H32428598   1.174   7.067   3.170 -0.0019  1.2038  0.7936
   68RES   H32528599   1.318   7.006   3.254  0.3664 -0.0298  0.8756
   68RES   H32628600   1.358   7.276   3.129  0.6215 -0.6600  1.1419
   68RES   H32728601   1.572   7.194   3.085  1.1375 -0.5208  0.2278
   68RES   H32828602   1.523   7.023   3.101  0.9523  0.1615  0.5795
   68RES   H32928603   1.521   7.071   3.361 -1.0993 -0.9207 -0.6628
   68RES   H33028604   1.525   7.242   3.330 -3.1121 -0.4254 -0.7598
   68RES   H33128605   1.763   7.214   3.230  0.0210 -3.4701 -2.4584
   68RES   H33228606   1.750   7.048   3.285  1.7610  1.5032  0.9444
   68RES   H33328607   1.676   7.178   3.511 -1.5784 -1.0009 -1.8752
   68RES   H33428608   1.781   7.300   3.435 -0.7309  0.0714 -0.2353
   68RES   H33528609   1.881   7.149   3.588 -0.1810  0.0704  0.8146
   68RES   H33628610   1.957   7.139   3.420 -0.5311  0.6797  0.3563
   68RES   H33728611   1.859   7.005   3.487  0.2028 -0.2090 -1.4420
   68RES   C33828612   1.331   7.144   2.969  0.2850 -0.0514 -0.7204
   68RES   C33928613   1.414   7.215   2.855  0.6315 -0.6097  0.0847
   68RES   C34028614   1.422   7.365   2.870  0.0022  0.0180  0.5302
   68RES   C34128615   1.481   7.446   2.753 -0.5360  0.2105  0.2898
   68RES   C34228616   1.490   7.600   2.794 -0.3080  0.3223 -0.1846
   68RES   C34328617   1.359   7.671   2.823 -0.3910  0.5456 -0.4981
   68RES   C34428618   1.364   0.091   2.865  0.3148  0.0363  0.1573
   68RES   H34528619   1.225   7.172   2.961 -0.0287 -1.3801 -1.2144
   68RES   H34628620   1.331   7.036   2.959 -0.0724 -0.0481 -0.7787
   68RES   H34728621   1.513   7.173   2.868  1.0408 -1.0401 -3.7868
   68RES   H34828622   1.316   7.393   2.875 -0.2013 -0.6610  0.0736
   68RES   H34928623   1.459   7.393   2.969  0.0560  0.3886  0.4053
   68RES   H35028624   1.420   7.437   2.663  0.1098 -1.3138 -0.0075
   68RES   H35128625   1.585   7.417   2.738  0.2685  2.0568  2.0082
   68RES   H35228626   1.562   7.606   2.876 -1.4758  0.4584  0.8520
   68RES   H35328627   1.554   7.644   2.717 -0.3282 -1.4342 -1.2202
   68RES   H35428628   1.300   7.676   2.731 -1.2289  0.8495  0.0475
   68RES   H35528629   1.292   7.615   2.889 -0.7473  3.8530  2.0976
   68RES   H35628630   1.416   0.099   2.960 -1.4639 -2.1134  1.3572
   68RES   H35728631   1.259   0.113   2.885  0.3819  0.8952 -0.3881
   68RES   H35828632   1.403   0.162   2.792 -0.6066 -0.1484 -0.5290
   68RES   C35928633   1.369   7.166   2.713 -0.0995 -0.0464  0.0537
   68RES   C36028634   1.445   7.035   2.668 -0.0965 -0.6680 -0.1459
   68RES   C36128635   1.354   6.956   2.568 -0.3661 -0.2312 -0.3459
   68RES   C36228636   1.222   6.904   2.628  0.1991 -0.1562 -0.2861
   68RES   C36328637   1.235   6.781   2.729 -0.0317  0.1276 -0.5693
   68RES   C36428638   1.142   6.773   2.853  0.0546 -0.0023  0.1411
   68RES   C36528639   1.152   6.663   2.951  0.3475  0.3656 -0.0976
   68RES   H36628640   1.389   7.238   2.635 -1.1437 -1.1247 -1.2400
   68RES   H36728641   1.260   7.163   2.714 -0.0850 -1.9104 -0.8415
   68RES   H36828642   1.446   6.969   2.754 -0.6107 -0.3824  0.0863
   68RES   H36928643   1.332   7.028   2.490  1.0686 -0.0716 -0.6146
   68RES   H37028644   1.409   6.883   2.508  1.1011 -0.0126  0.6914
   68RES   H37128645   1.169   6.991   2.666 -0.1344 -1.1484  1.6161
   68RES   H37228646   1.162   6.869   2.544 -1.3990 -2.0652  1.5686
   68RES   H37328647   1.216   6.695   2.664  2.8022 -0.6974 -0.3756
   68RES   H37428648   1.337   6.772   2.764  0.0782  1.2781 -0.5674
   68RES   H37528649   1.144   6.872   2.899  2.4958  0.5506 -1.0554
   68RES   H37628650   1.038   6.764   2.822  0.4595 -0.8083 -1.0179
   68RES   H37728651   1.254   6.659   2.992  0.4759 -0.3292 -0.4717
   68RES   H37828652   1.091   6.688   3.037  0.8505  0.3198  0.2770
   68RES   H37928653   1.112   6.567   2.918 -2.1639  1.2792  0.1914
   68RES   C38028654   1.588   7.062   2.607  0.4516 -0.1189  0.5922
   68RES   C38128655   1.703   6.981   2.676 -0.5689  0.6667  0.2845
   68RES   C38228656   1.697   6.832   2.640 -0.5630  0.5472  0.4051
   68RES   C38328657   1.651   6.744   2.750 -0.6179 -0.1522  0.4420
   68RES   C38428658   1.572   6.611   2.708 -0.0715 -0.0816  0.1535
   68RES   C38528659   1.521   6.533   2.829 -0.6192  0.2379  0.1378
   68RES   C38628660   1.420   6.417   2.810 -0.6173 -0.4202  0.8204
   68RES   H38728661   1.582   7.050   2.499  1.1505 -0.9234  0.6394
   68RES   H38828662   1.608   7.169   2.615  1.5150 -0.4154  2.1012
   68RES   H38928663   1.701   6.991   2.785 -0.5326 -1.4439  0.4959
   68RES   H39028664   1.793   6.784   2.620 -1.3711 -0.8834 -0.1564
   68RES   H39128665   1.647   6.825   2.543 -0.8021 -0.3543  0.5829
   68RES   H39228666   1.734   6.712   2.813 -1.2299  2.1838  2.5344
   68RES   H39328667   1.592   6.807   2.816 -0.8759  0.7024 -0.5768
   68RES   H39428668   1.491   6.623   2.636 -1.2383  0.3650  1.5179
   68RES   H39528669   1.645   6.547   2.659  0.6299  1.2987 -0.6347
   68RES   H39628670   1.476   6.599   2.903  0.4849 -0.2247  1.2547
   68RES   H39728671   1.612   6.493   2.875 -0.1853  1.1613  0.0993
   68RES   H39828672   1.328   6.451   2.763 -0.3489  0.2710  0.7993
   68RES   H39928673   1.414   6.352   2.897  2.8804 -2.5091 -0.3600
   68RES   H40028674   1.474   6.349   2.744 -0.1998 -2.0063  2.7547
   68RES   C40128675   1.839   7.034   2.624  1.2119 -0.5369 -0.4052
   68RES   C40228676   1.866   7.185   2.641 -0.1282 -0.4634  0.7660
   68RES   C40328677   1.823   7.224   2.783 -0.0889 -0.2562 -0.7752
   68RES   C40428678   1.869   7.357   2.837  0.6102 -0.0710  0.0966
   68RES   C40528679   1.794   7.383   2.979  0.4992  0.2149 -0.3519
   68RES   C40628680   1.839   7.514   3.055 -0.5527  0.3222  0.1632
   68RES   C40728681   1.805   7.534   3.201  0.4952 -0.4485 -0.0911
   68RES   H40828682   1.831   7.000   2.521  1.0308  1.8611 -1.2086
   68RES   H40928683   1.913   6.985   2.688  1.9826 -1.4687 -1.9742
   68RES   H41028684   1.821   7.247   2.563  0.1101 -1.0584  0.1560
   68RES   H41128685   1.858   7.153   2.857  0.2253  2.5007  1.8181
   68RES   H41228686   1.715   7.212   2.788 -0.2989  1.1772 -1.6196
   68RES   H41328687   1.843   7.440   2.771 -0.4770 -0.1490  0.4197
   68RES   H41428688   1.975   7.364   2.863  0.4461  0.1124  0.7345
   68RES   H41528689   1.686   7.386   2.966  0.3760 -1.4016  0.1683
   68RES   H41628690   1.820   7.301   3.045  1.1753  0.3394 -0.4570
   68RES   H41728691   1.946   7.531   3.050 -0.5073 -0.1106 -0.3149
   68RES   H41828692   1.796   7.596   2.997  0.0709  0.5603  0.0435
   68RES   H41928693   1.821   7.633   3.244 -0.6995 -1.0960  1.9329
   68RES   H42028694   1.844   7.459   3.270  0.0671 -0.8949 -0.3357
   68RES   H42128695   1.699   7.526   3.224  0.4344  1.2187  0.2509
   68RES   H42228696   1.972   7.210   2.639  0.1394 -1.4533  2.0246
   69RES     C128697   7.012   2.956   3.833 -0.0546 -0.1838 -0.0111
   69RES     C228698   7.006   2.834   3.924 -0.2607  0.0400 -0.0032
   69RES     C328699   6.963   2.698   3.869 -0.1919 -0.2215  0.9607
   69RES     C428700   7.013   2.662   3.733 -0.1292  0.6037  0.4032
   69RES     C528701   6.956   2.525   3.693 -0.4484 -0.2517 -0.0269
   69RES     C628702   7.053   2.415   3.715  0.0488  0.3324 -0.0545
   69RES     C728703   6.997   2.275   3.683 -0.0318  0.2106  0.3893
   69RES     H828704   7.041   3.046   3.888 -1.0781  0.8535 -1.1591
   69RES     H928705   6.911   2.973   3.796 -0.4494  0.3203  1.2590
   69RES    H1028706   7.108   2.807   3.951  0.3691  0.6825 -1.6698
   69RES    H1128707   6.991   2.624   3.944  1.0794 -1.0251 -0.2827
   69RES    H1228708   6.856   2.686   3.881 -0.4581  1.7248  0.7073
   69RES    H1328709   6.988   2.735   3.655  1.5293  1.3115  0.5200
   69RES    H1428710   7.122   2.662   3.731  0.0004  0.2210  4.0624
   69RES    H1528711   6.945   2.520   3.585  1.2338 -2.8146 -0.1098
   69RES    H1628712   6.853   2.508   3.724 -0.2177 -0.2089  0.7914
   69RES    H1728713   7.079   2.411   3.821 -0.0263 -0.0322 -0.0481
   69RES    H1828714   7.146   2.425   3.659  0.4358  2.3855  0.9363
   69RES    H1928715   7.085   2.214   3.701  0.8389  1.9229  2.0074
   69RES    H2028716   6.949   2.259   3.586 -0.9422 -1.3385  1.0683
   69RES    H2128717   6.924   2.258   3.762 -2.0353  3.3203 -0.6833
   69RES    H2228718   7.077   2.960   3.746  0.7082 -0.2228  0.5422
   69RES    C2328719   6.933   2.872   4.049  0.1465  0.1395 -0.1234
   69RES    C2428720   7.021   2.913   4.169 -0.8466  0.0569  0.2415
   69RES    C2528721   7.085   2.786   4.227  0.2315  0.0577 -0.3430
   69RES    C2628722   6.996   2.688   4.287 -0.0455 -0.3141  0.2776
   69RES    C2728723   7.058   2.583   4.388 -0.0961 -0.5382 -0.5295
   69RES    C2828724   7.175   2.487   4.341 -1.0215 -0.2303 -0.0892
   69RES    C2928725   7.244   2.411   4.454  0.0531  1.1688  0.1412
   69RES    H3028726   6.867   2.955   4.024 -0.5799 -0.4377 -0.1211
   69RES    H3128727   6.862   2.794   4.078 -0.4727  0.4409 -0.8178
   69RES    H3228728   7.104   2.976   4.138 -0.3047  0.8330  3.1418
   69RES    H3328729   7.153   2.824   4.304 -2.8911  0.7965  2.1270
   69RES    H3428730   7.149   2.737   4.154 -2.5520 -4.8880  0.3477
   69RES    H3528731   6.939   2.647   4.204  0.4147  1.4920 -0.9625
   69RES    H3628732   6.909   2.738   4.329  0.3050  0.0377  0.5973
   69RES    H3728733   6.986   2.514   4.432 -0.5276  1.1926  1.5346
   69RES    H3828734   7.093   2.650   4.466 -0.1996 -1.9920  0.7944
   69RES    H3928735   7.234   2.572   4.305 -0.5900  0.6826  2.6283
   69RES    H4028736   7.154   2.421   4.258 -1.3462 -2.1058  1.4471
   69RES    H4128737   7.272   2.482   4.532 -1.3203  1.9560 -0.0577
   69RES    H4228738   7.168   2.348   4.501 -0.4159  2.6496  1.4406
   69RES    H4328739   7.333   2.357   4.422 -0.3157  0.4264  0.3774
   69RES    C4428740   6.946   2.981   4.284  0.4184  0.4176 -1.0919
   69RES    C4528741   6.908   3.131   4.271 -0.5008  1.0702 -0.7938
   69RES    C4628742   7.034   3.217   4.245  0.9185  0.8902 -0.3449
   69RES    C4728743   7.141   3.228   4.362 -0.2185  0.0713  0.2775
   69RES    C4828744   7.093   3.301   4.487 -0.0574  0.0057  0.4477
   69RES    C4928745   7.167   3.253   4.606 -0.0569 -0.2943  0.1649
   69RES    C5028746   7.126   3.334   4.730  0.0342  0.8839  0.6298
   69RES    H5128747   7.010   2.971   4.372 -0.8697  1.6066  0.0142
   69RES    H5228748   6.855   2.931   4.317  1.0345  0.6132  1.0170
   69RES    H5328749   6.867   3.164   4.367  1.4708 -0.7744  0.7600
   69RES    H5428750   7.009   3.319   4.218 -1.5903  0.2970 -0.3538
   69RES    H5528751   7.079   3.165   4.160  0.1627 -0.0493 -0.1835
   69RES    H5628752   7.170   3.127   4.391 -1.2479 -0.4437 -0.4557
   69RES    H5728753   7.232   3.269   4.318  0.2117  0.3120  1.3554
   69RES    H5828754   6.986   3.289   4.500 -0.1712 -0.8506 -1.1569
   69RES    H5928755   7.109   3.407   4.468 -0.0184 -0.1541 -0.4387
   69RES    H6028756   7.273   3.270   4.583 -0.0372 -1.3145 -0.5714
   69RES    H6128757   7.145   3.146   4.611 -2.1563  0.2230  2.6930
   69RES    H6228758   7.160   3.298   4.827 -1.2407 -0.2414  0.6833
   69RES    H6328759   7.017   3.340   4.738 -0.0463  1.1724 -0.5961
   69RES    H6428760   7.169   3.434   4.736 -1.1140  1.5629 -1.6689
   69RES    C6528761   6.799   3.149   4.167  0.6986 -0.1018 -1.1718
   69RES    C6628762   6.719   3.277   4.173 -0.3158 -0.0447  0.6920
   69RES    C6728763   6.612   3.270   4.288  0.4474  0.7230 -0.2456
   69RES    C6828764   6.592   3.388   4.381  0.2662 -0.6895 -0.2205
   69RES    C6928765   6.512   3.363   4.518 -0.4037  0.5377 -0.0598
   69RES    C7028766   6.578   3.260   4.622  1.0637 -0.7684  0.5415
   69RES    C7128767   6.703   3.307   4.689 -0.4559  0.1519  0.4281
   69RES    H7228768   6.848   3.142   4.069  1.8033  0.1455 -0.6516
   69RES    H7328769   6.723   3.072   4.177 -0.8254  1.2520 -1.9615
   69RES    H7428770   6.791   3.352   4.205  1.3583 -2.0915  1.8698
   69RES    H7528771   6.518   3.238   4.243  1.2797  0.1032 -1.5631
   69RES    H7628772   6.640   3.193   4.360 -3.2071 -1.9138 -1.4918
   69RES    H7728773   6.691   3.432   4.394 -0.4868  1.0393 -0.2288
   69RES    H7828774   6.523   3.452   4.326  0.0434 -3.0138 -2.7577
   69RES    H7928775   6.493   3.456   4.571  1.1503  0.7670  0.1331
   69RES    H8028776   6.413   3.325   4.494 -0.1551 -0.8669  1.0169
   69RES    H8128777   6.577   3.159   4.582  3.6479 -1.6933  2.6855
   69RES    H8228778   6.492   3.254   4.689  0.1377 -1.1349 -0.6517
   69RES    H8328779   6.743   3.232   4.757 -0.8851 -1.2001 -0.7905
   69RES    H8428780   6.784   3.324   4.617  1.0801 -0.9992  1.8530
   69RES    H8528781   6.695   3.408   4.731 -2.0165  0.1675  0.0992
   69RES    C8628782   6.655   3.319   4.036 -0.4272 -0.1730 -0.3022
   69RES    C8728783   6.749   3.388   3.939 -0.4474 -0.6265 -0.5612
   69RES    C8828784   6.716   3.360   3.786 -0.4861  0.7822 -0.5394
   69RES    C8928785   6.785   3.230   3.749  0.2939 -0.6260  0.3533
   69RES    C9028786   6.743   3.201   3.605  0.1706 -0.1472 -0.0307
   69RES    C9128787   6.786   3.062   3.568 -0.0525 -0.1413 -0.5591
   69RES    C9228788   6.721   3.029   3.435 -0.0788  0.6181 -0.4817
   69RES    H9328789   6.623   3.230   3.983  1.0352 -0.9366  0.0652
   69RES    H9428790   6.570   3.385   4.056 -1.7403 -1.6550 -0.9262
   69RES    H9528791   6.843   3.337   3.961 -2.0041 -2.6146  1.7568
   69RES    H9628792   6.607   3.354   3.788 -0.5531  1.2988 -2.1853
   69RES    H9728793   6.738   3.445   3.721 -3.8722  2.7984  0.7946
   69RES    H9828794   6.893   3.237   3.753  0.2522 -0.2316  0.7650
   69RES    H9928795   6.761   3.146   3.814 -0.7384 -1.2765 -0.8317
   69RES   H10028796   6.790   3.276   3.541  0.5134 -1.6508 -1.5866
   69RES   H10128797   6.635   3.208   3.601  0.3031  2.2058  0.3161
   69RES   H10228798   6.895   3.056   3.559  0.0862 -2.6057  1.8337
   69RES   H10328799   6.753   2.991   3.644 -1.5421  0.5107 -0.5810
   69RES   H10428800   6.745   3.094   3.351  1.3248  3.0372  1.6872
   69RES   H10528801   6.612   3.030   3.438 -0.0897 -0.3244 -0.4881
   69RES   H10628802   6.751   2.928   3.409 -1.6368 -0.3555  1.3728
   69RES   C10728803   6.763   3.541   3.951  0.5635  0.0135 -0.7452
   69RES   C10828804   6.905   3.583   3.892 -0.0796  0.3803  0.3480
   69RES   C10928805   6.892   3.722   3.828  0.3294 -0.1196 -0.1054
   69RES   C11028806   6.818   3.726   3.686 -0.3797 -0.7921  0.0550
   69RES   C11128807   6.899   3.697   3.559 -0.1500 -0.3682  0.3141
   69RES   C11228808   6.851   3.769   3.428  0.2339  0.8148  0.2129
   69RES   C11328809   6.924   3.706   3.303 -0.7615  0.0441  0.2688
   69RES   H11428810   6.752   3.578   4.053 -0.3614 -3.1855  0.3637
   69RES   H11528811   6.682   3.584   3.892 -1.5209  0.0322  2.0358
   69RES   H11628812   6.939   3.514   3.814  2.6180  1.3723  0.5774
   69RES   H11728813   6.988   3.755   3.789 -0.2745 -0.5938 -2.0206
   69RES   H11828814   6.851   3.803   3.889  0.4962  0.4035 -0.6779
   69RES   H11928815   6.726   3.668   3.692 -1.7616  1.2609 -0.8348
   69RES   H12028816   6.784   3.829   3.674  0.2502 -0.6216 -0.3447
   69RES   H12128817   6.900   3.589   3.549 -1.3233 -0.5102  1.5802
   69RES   H12228818   7.002   3.726   3.581  0.4561 -3.2329  1.4104
   69RES   H12328819   6.744   3.758   3.412  0.5365 -0.0197 -1.3841
   69RES   H12428820   6.881   3.874   3.420 -0.5627  1.1093  0.9956
   69RES   H12528821   7.032   3.703   3.323 -0.4530  0.4735 -1.2316
   69RES   H12628822   6.889   3.604   3.287  0.4595 -0.6971  2.0958
   69RES   H12728823   6.908   3.768   3.215  0.4096 -0.3128 -0.2203
   69RES   C12828824   7.025   3.582   3.993 -0.1394 -0.1854 -0.0029
   69RES   C12928825   7.172   3.566   3.933  0.2509  0.4367 -0.4082
   69RES   C13028826   7.230   3.424   3.948  0.2335  0.3755 -0.1253
   69RES   C13128827   7.175   3.331   3.840 -0.1427 -0.6760 -0.0878
   69RES   C13228828   7.251   3.352   3.701 -0.8404  0.5130 -0.5079
   69RES   C13328829   7.219   3.231   3.617  0.5598 -0.2306  0.3852
   69RES   C13428830   7.274   3.239   3.471 -0.3372  0.4961  0.0329
   69RES   H13528831   7.017   3.679   4.042 -1.1326 -0.1345 -0.2568
   69RES   H13628832   7.024   3.504   4.069 -1.0748 -0.1853 -0.0076
   69RES   H13728833   7.168   3.587   3.826 -0.7781 -2.1300 -0.8894
   69RES   H13828834   7.206   3.390   4.048  0.8195  1.0648  0.2534
   69RES   H13928835   7.337   3.435   3.929  0.0032  1.8425 -0.6335
   69RES   H14028836   7.067   3.337   3.844 -0.0297  1.5919  0.7872
   69RES   H14128837   7.202   3.234   3.881 -0.9346  0.0313  2.1985
   69RES   H14228838   7.357   3.337   3.721 -0.9883 -3.0735 -2.1476
   69RES   H14328839   7.219   3.443   3.650  2.0273  1.7952 -0.1453
   69RES   H14428840   7.112   3.210   3.609  0.9614 -2.4716  0.4523
   69RES   H14528841   7.251   3.147   3.679 -0.6683  0.7052  2.3207
   69RES   H14628842   7.383   3.245   3.471 -0.3302  0.6521 -1.8342
   69RES   H14728843   7.236   3.328   3.420  0.2263  0.8586  0.2366
   69RES   H14828844   7.250   3.147   3.418  1.4954  0.6592 -1.1246
   69RES   C14928845   7.263   3.666   4.000 -0.2228  0.9557  0.3485
   69RES   C15028846   7.241   3.811   3.959  0.2348  0.1749 -0.2104
   69RES   C15128847   7.297   3.819   3.817 -0.6065 -0.3226 -0.1509
   69RES   C15228848   7.282   3.961   3.755 -0.6651  0.2731 -0.2360
   69RES   C15328849   7.329   3.984   3.604 -0.0244  0.2063 -0.4142
   69RES   C15428850   7.279   4.114   3.547  0.1065 -0.4444 -0.3964
   69RES   C15528851   7.283   4.119   3.395  0.6858  0.0610 -0.5731
   69RES   H15628852   7.235   3.658   4.105  1.0732 -0.3725  0.6159
   69RES   H15728853   7.367   3.634   3.999 -0.2529  0.6956 -3.1960
   69RES   H15828854   7.135   3.833   3.947 -0.0577 -1.5282 -0.8843
   69RES   H15928855   7.402   3.792   3.814 -0.4805 -0.1171  1.9814
   69RES   H16028856   7.247   3.756   3.743  1.0736 -2.0036  0.1005
   69RES   H16128857   7.328   4.042   3.811 -0.2593  0.0813 -0.2950
   69RES   H16228858   7.174   3.979   3.753 -0.4009  2.2024  1.4228
   69RES   H16328859   7.290   3.901   3.544  2.6127 -0.5875 -1.0992
   69RES   H16428860   7.437   3.991   3.608 -0.1657  2.3625  0.1683
   69RES   H16528861   7.329   4.196   3.598 -0.1622 -0.5043 -0.0321
   69RES   H16628862   7.174   4.113   3.577 -0.1144 -1.5971 -1.1505
   69RES   H16728863   7.226   4.204   3.357 -1.4016 -1.9907 -2.2224
   69RES   H16828864   7.234   4.032   3.352 -0.0462  0.3913 -0.4189
   69RES   H16928865   7.384   4.120   3.353  1.0058  0.9767  0.2034
   69RES   C17028866   7.320   3.905   4.062  0.3671  0.6563  0.2428
   69RES   C17128867   7.264   4.043   4.094 -0.1154 -0.0102  0.8661
   69RES   C17228868   7.136   4.019   4.178  0.0443  0.2529  0.2607
   69RES   C17328869   7.041   4.143   4.193  0.1225 -0.7236 -0.4107
   69RES   C17428870   6.923   4.133   4.284 -0.1388  0.7733  0.8862
   69RES   C17528871   6.879   4.273   4.332  0.5458 -0.3804 -0.0199
   69RES   C17628872   6.935   4.317   4.464 -0.1758  0.8765  0.4474
   69RES   H17728873   7.415   3.921   4.010  2.1600 -1.0253  2.9110
   69RES   H17828874   7.341   3.850   4.154 -0.1772  0.6058  0.3407
   69RES   H17928875   7.245   4.096   4.001  0.7726 -2.9645 -1.0703
   69RES   H18028876   7.164   4.005   4.282  1.9937  0.7437 -0.1744
   69RES   H18128877   7.075   3.934   4.146 -0.6216  0.3852  1.1570
   69RES   H18228878   7.008   4.181   4.096  0.1801  1.0511  0.2510
   69RES   H18328879   7.105   4.220   4.234 -0.1205 -0.2366 -0.9313
   69RES   H18428880   6.954   4.067   4.365  0.5665  0.9723  0.7853
   69RES   H18528881   6.841   4.083   4.232  2.1967 -2.0409 -0.1919
   69RES   H18628882   6.770   4.278   4.340  0.4061 -2.3065 -0.2855
   69RES   H18728883   6.910   4.339   4.251  0.2183 -1.2735 -0.8929
   69RES   H18828884   6.932   4.425   4.476  1.0265  0.7069  2.6876
   69RES   H18928885   7.040   4.295   4.483 -0.6641 -0.7163  1.3790
   69RES   H19028886   6.892   4.252   4.540  1.0172  0.9888  1.2413
   69RES   C19128887   7.370   4.122   4.174  0.1061  0.3772 -0.4648
   69RES   C19228888   7.371   4.273   4.150  0.1920  0.3980 -0.3262
   69RES   C19328889   7.432   4.349   4.268 -0.2596  0.0116 -0.0364
   69RES   C19428890   7.337   4.374   4.389 -0.1806 -0.1280 -0.5210
   69RES   C19528891   7.404   4.458   4.497  0.2700 -0.3398 -0.0750
   69RES   C19628892   7.319   4.502   4.623  0.0253 -0.3939 -0.1192
   69RES   C19728893   7.413   4.563   4.727  0.1911  0.2754  0.3222
   69RES   H19828894   7.471   4.084   4.161  0.9386  1.7923  1.5853
   69RES   H19928895   7.350   4.097   4.278  0.6673  0.2697 -0.3828
   69RES   H20028896   7.266   4.297   4.134 -0.1950 -1.1148 -0.1731
   69RES   H20128897   7.471   4.442   4.228  1.5723 -0.8773 -0.3306
   69RES   H20228898   7.513   4.288   4.309 -1.5481 -1.3172  0.6123
   69RES   H20328899   7.307   4.284   4.443 -1.6841  0.1633 -0.8387
   69RES   H20428900   7.241   4.418   4.364 -0.9980 -0.9926  1.0014
   69RES   H20528901   7.492   4.402   4.527 -0.5943 -0.4346  2.4307
   69RES   H20628902   7.450   4.545   4.449  2.6216 -1.6034 -0.1805
   69RES   H20728903   7.257   4.422   4.664 -0.6904  0.9278  1.4038
   69RES   H20828904   7.248   4.580   4.598  0.2394 -0.0064  0.4797
   69RES   H20928905   7.489   4.499   4.770  0.3341 -0.9296 -1.6858
   69RES   H21028906   7.352   4.596   4.811  0.0702 -4.7226  2.3640
   69RES   H21128907   7.458   4.653   4.685  1.2685 -0.0663  0.7222
   69RES   C21228908   7.444   4.313   4.022  1.3236  0.0299  0.2532
   69RES   C21328909   7.385   4.433   3.952  0.1621  0.6278 -0.4361
   69RES   C21428910   7.479   4.504   3.852  0.8450  0.4677 -0.3141
   69RES   C21528911   7.610   4.568   3.913  0.1799 -0.1828  0.8146
   69RES   C21628912   7.580   4.671   4.026 -0.1101 -0.5344  0.4734
   69RES   C21728913   7.708   4.702   4.106  0.2672  0.4347 -0.3117
   69RES   C21828914   7.678   4.772   4.234  0.2395  0.8332  0.1529
   69RES   H21928915   7.436   4.233   3.949 -0.9868 -0.0441  0.5485
   69RES   H22028916   7.553   4.317   4.033  1.3528  1.0096 -0.3768
   69RES   H22128917   7.349   4.503   4.027  0.6740  1.3841 -0.8794
   69RES   H22228918   7.508   4.432   3.775  2.0678 -0.1273  0.6990
   69RES   H22328919   7.418   4.579   3.802 -0.9120 -0.5715  0.2334
   69RES   H22428920   7.661   4.623   3.834 -0.8496 -0.8038 -0.3070
   69RES   H22528921   7.681   4.489   3.935 -0.3281 -1.0979 -0.7514
   69RES   H22628922   7.536   4.764   3.990 -1.2923 -1.0826  0.4763
   69RES   H22728923   7.511   4.627   4.098 -3.1192 -0.2906 -2.2032
   69RES   H22828924   0.036   4.611   4.131  1.2051  0.5068 -2.0133
   69RES   H22928925   0.058   4.755   4.050  0.5753 -0.8274 -1.1000
   69RES   H23028926   7.603   4.851   4.226 -1.4842 -0.6923  0.9139
   69RES   H23128927   0.043   4.816   4.274  0.4097  0.8535 -0.2530
   69RES   H23228928   7.631   4.702   4.302 -1.4482  2.3437  0.5610
   69RES   C23328929   7.259   4.392   3.877  0.1340 -0.1222  0.9875
   69RES   C23428930   7.151   4.495   3.836 -0.0026  0.7108 -0.4471
   69RES   C23528931   7.052   4.426   3.738 -0.0075 -0.1899  0.2883
   69RES   C23628932   7.003   4.291   3.778 -0.2368 -0.3370  0.3206
   69RES   C23728933   6.869   4.262   3.717 -0.0891  0.5855 -0.0642
   69RES   C23828934   6.824   4.128   3.765 -0.2319 -0.7007  0.7885
   69RES   C23928935   6.672   4.115   3.748 -0.2363 -0.1698 -0.3854
   69RES   H24028936   7.218   4.305   3.928 -1.1947 -0.6403 -0.9048
   69RES   H24128937   7.294   4.344   3.785 -0.5563  0.4275  0.4313
   69RES   H24228938   7.206   4.575   3.788  1.6149  0.2732  0.6205
   69RES   H24328939   7.108   4.418   3.645  0.0772 -1.0073  0.4089
   69RES   H24428940   6.971   4.493   3.709  0.4180 -1.0685 -3.2627
   69RES   H24528941   6.986   4.289   3.886  0.5820 -2.1784  0.4288
   69RES   H24628942   7.071   4.211   3.750 -3.5720 -2.7423 -1.3262
   69RES   H24728943   6.872   4.269   3.609 -1.8294 -0.9310 -0.2332
   69RES   H24828944   6.796   4.331   3.757 -0.8699 -0.7676  0.8940
   69RES   H24928945   6.883   4.049   3.720  1.6410 -0.1435  2.2194
   69RES   H25028946   6.849   4.117   3.871  3.5982  1.6267  0.1905
   69RES   H25128947   6.636   4.151   3.652 -0.5889  0.5418  0.0098
   69RES   H25228948   6.639   4.013   3.767  1.0806 -0.6150 -0.4096
   69RES   H25328949   6.629   4.174   3.828 -0.1924  0.6439 -0.9594
   69RES   C25428950   7.076   4.561   3.957  0.0251 -0.3929  0.1849
   69RES   C25528951   7.094   4.716   3.963 -0.5668 -0.1057 -0.6994
   69RES   C25628952   7.070   4.770   4.104 -0.2291 -0.8357  0.1428
   69RES   C25728953   7.203   4.780   4.174 -0.6014  0.2546 -1.0436
   69RES   C25828954   7.213   4.828   4.314  0.9190 -0.6892 -0.4594
   69RES   C25928955   7.363   4.838   4.363 -0.6508 -0.4280  0.1833
   69RES   C26028956   7.373   4.892   4.502  0.7221  0.5754 -0.0804
   69RES   H26128957   7.113   4.519   4.051 -0.7024 -0.3069  0.5146
   69RES   H26228958   6.969   4.542   3.957  0.1484 -1.1883  1.4198
   69RES   H26328959   7.196   4.742   3.935 -0.4486  1.9340  1.5669
   69RES   H26428960   6.989   4.714   4.152  0.3710 -1.7386  0.1036
   69RES   H26528961   7.021   4.867   4.095  0.0499 -0.6567  0.5740
   69RES   H26628962   7.254   4.684   4.180 -0.5076  0.4122  0.7531
   69RES   H26728963   7.270   4.840   4.113 -1.4289  1.4461 -0.7858
   69RES   H26828964   7.148   4.768   4.378  1.9117 -1.2131  0.0639
   69RES   H26928965   7.170   4.928   4.308  0.8311 -0.6642  0.6029
   69RES   H27028966   7.421   4.746   4.352 -0.3914  0.0686 -3.0834
   69RES   H27128967   7.410   4.906   4.292 -1.7382  1.5955  1.3690
   69RES   H27228968   7.469   4.860   4.545  0.0144 -1.1190  0.2995
   69RES   H27328969   7.380   5.000   4.489 -0.1282  0.5263 -0.9874
   69RES   H27428970   7.302   4.857   4.577  0.3574  1.3765 -0.0506
   69RES   C27528971   7.003   4.790   3.861 -0.3525  0.3949  0.3407
   69RES   C27628972   7.055   4.933   3.829 -0.1561 -0.1836 -0.1661
   69RES   C27728973   6.934   5.038   3.814 -0.1706  0.2069  0.3450
   69RES   C27828974   6.827   5.003   3.714 -0.1598  0.5432 -0.1005
   69RES   C27928975   6.828   5.110   3.599  0.4662  0.5093  0.6431
   69RES   C28028976   6.713   5.091   3.496 -0.2735 -0.2549 -0.5374
   69RES   C28128977   6.747   5.187   3.380 -0.1807  0.1523  0.8535
   69RES   H28228978   6.903   4.797   3.905 -1.3156 -3.2114 -1.1013
   69RES   H28328979   7.000   4.736   3.766  0.4367  0.4097  0.3033
   69RES   H28428980   7.115   4.959   3.917  1.0586  1.0847 -1.3340
   69RES   H28528981   6.897   5.061   3.914  3.9178  1.7958  1.5765
   69RES   H28628982   6.982   5.131   3.784  0.3338 -0.6617 -1.6172
   69RES   H28728983   6.728   5.018   3.757 -0.1453 -0.0474  0.1439
   69RES   H28828984   6.835   4.901   3.677  0.6311  0.7766 -0.5739
   69RES   H28928985   6.919   5.095   3.541 -0.4710 -1.0168 -0.4761
   69RES   H29028986   6.820   5.213   3.634 -1.5463  0.5613  0.1018
   69RES   H29128987   6.725   4.990   3.457 -1.4398  0.0098 -1.6338
   69RES   H29228988   6.614   5.094   3.542  1.0606 -1.3108  2.5624
   69RES   H29328989   6.750   5.292   3.407 -0.9263  0.6322 -0.8630
   69RES   H29428990   6.657   5.183   3.319 -2.0778  0.6208  3.5702
   69RES   H29528991   6.841   5.163   3.330  0.4175  0.6079  1.7534
   69RES   C29628992   7.156   4.945   3.708  0.1651  0.3916  0.2305
   69RES   C29728993   7.275   5.037   3.726 -0.0938 -0.5439 -0.3297
   69RES   C29828994   7.324   5.093   3.589  1.2737  0.3611 -0.2389
   69RES   C29928995   7.394   4.989   3.502  0.3360  0.5690 -0.6428
   69RES   C30028996   7.410   5.027   3.360 -0.3295  0.6221  0.5222
   69RES   C30128997   7.496   5.145   3.328  0.7989  0.2284  0.3640
   69RES   C30228998   7.517   5.179   3.178  0.6615  0.5095  0.2254
   69RES   H30328999   7.200   4.849   3.683  2.1528  0.9308  1.5194
   69RES   H30429000   7.102   4.985   3.622  0.7445  0.5893 -0.0420
   69RES   H30529001   7.231   5.118   3.784  0.5907 -0.9002  0.7089
   69RES   H30629002   7.233   5.117   3.534 -1.3556 -1.4333  3.1428
   69RES   H30729003   7.370   5.190   3.608  1.8286  0.0709 -0.0740
   69RES   H30829004   7.347   4.892   3.517  1.5006  0.1730  0.6591
   69RES   H30929005   7.495   4.972   3.541  0.1692 -2.6387 -1.4933
   69RES   H31029006   7.316   5.044   3.307 -0.0167  2.5836  0.5603
   69RES   H31129007   7.472   4.952   3.310  0.3427  1.2126  0.4517
   69RES   H31229008   7.450   5.227   3.382  0.8758  0.0838  0.6487
   69RES   H31329009   7.593   5.133   3.376  0.1793 -2.4666  1.0445
   69RES   H31429010   7.586   5.263   3.177 -0.4659  1.4555  1.1069
   69RES   H31529011   7.556   5.105   3.108  0.2667  0.7047 -0.2015
   69RES   H31629012   7.421   5.213   3.140  0.7271 -0.3658 -0.7609
   69RES   C31729013   7.395   4.991   3.813 -0.4151 -0.8452 -0.7484
   69RES   C31829014   7.471   5.111   3.883  0.1123  0.4837 -0.4799
   69RES   C31929015   7.405   5.140   4.017  0.3991  0.5169  0.0593
   69RES   C32029016   7.429   5.269   4.095 -0.7640  0.6365  0.0381
   69RES   C32129017   7.362   5.269   4.223  0.2845 -0.1438 -0.3479
   69RES   C32229018   7.400   5.374   4.325 -0.2558  0.7458 -0.6103
   69RES   C32329019   7.362   5.348   4.467  0.2429 -0.4174  0.6672
   69RES   H32429020   7.462   4.937   3.745 -1.2001 -0.0495 -2.1727
   69RES   H32529021   7.361   4.919   3.887 -1.8715 -0.3468 -0.9269
   69RES   H32629022   7.469   5.201   3.823  0.6805  0.1742 -0.9768
   69RES   H32729023   7.427   5.062   4.089 -0.4948  2.5127  2.6002
   69RES   H32829024   7.298   5.144   3.997  0.8583  1.0586 -2.4624
   69RES   H32929025   7.403   5.359   4.040 -0.4236 -0.1684 -1.4997
   69RES   H33029026   7.536   5.265   4.117 -0.8279  0.0486  0.2622
   69RES   H33129027   7.378   5.173   4.273 -1.8524  0.2306  1.1252
   69RES   H33229028   7.255   5.280   4.201  0.1381 -0.2082  0.3126
   69RES   H33329029   7.362   5.471   4.291 -2.8117 -0.1883 -0.4716
   69RES   H33429030   7.509   5.376   4.322 -0.2046 -0.2923  0.5295
   69RES   H33529031   7.258   5.322   4.489 -0.1406  0.8769  0.4579
   69RES   H33629032   7.382   5.436   4.529  1.9374 -0.8128  0.7052
   69RES   H33729033   7.427   5.272   4.510  0.7289  0.7907  2.1301
   69RES   C33829034   7.617   5.072   3.906 -0.1878 -0.2391  0.6157
   69RES   C33929035   7.700   5.054   3.779  0.3070 -0.0554  0.4123
   69RES   C34029036   0.016   4.909   3.756  0.1004 -0.1155  0.4323
   69RES   C34129037   0.092   4.883   3.621  0.6122  0.7591  0.3496
   69RES   C34229038   0.131   4.730   3.608 -0.1593 -0.2148 -0.9075
   69RES   C34329039   0.193   4.697   3.469 -0.8446 -0.1016  0.6235
   69RES   C34429040   0.283   4.570   3.478  0.3458  0.0407 -0.0507
   69RES   H34529041   7.613   4.978   3.961 -1.0939  0.4931  1.8188
   69RES   H34629042   7.664   5.146   3.971 -0.2792  1.0083 -0.7041
   69RES   H34729043   7.641   5.086   3.693  2.3581  1.7277 -0.3836
   69RES   H34829044   0.085   4.873   3.832  2.3322  1.5486 -0.7741
   69RES   H34929045   7.660   4.837   3.756 -0.2217  0.2210  2.4661
   69RES   H35029046   0.191   4.929   3.623  0.6487  0.6876  0.2118
   69RES   H35129047   0.036   4.918   3.534 -0.0967 -0.5542  0.2735
   69RES   H35229048   0.201   4.703   3.687  0.3661 -1.6859 -1.8506
   69RES   H35329049   0.055   4.652   3.621 -1.3114  1.2747  1.5350
   69RES   H35429050   0.118   4.703   3.389  1.2121  1.5169 -1.2629
   69RES   H35529051   0.260   4.779   3.445 -0.9758 -0.4115 -0.8973
   69RES   H35629052   0.213   4.489   3.497  1.3731 -1.1352 -1.1764
   69RES   H35729053   0.372   4.573   3.541  0.3503  0.5110 -0.0784
   69RES   H35829054   0.329   4.554   3.380 -0.8135  2.1817 -0.9806
   69RES   C35929055   0.090   5.151   3.780  0.1570 -0.4975  0.0893
   69RES   C36029056   0.047   5.299   3.777 -0.2392  0.6439  0.2023
   69RES   C36129057   0.138   5.392   3.869  0.1559  0.3531  0.4768
   69RES   C36229058   0.107   5.391   4.024 -0.0683 -0.8634  0.6645
   69RES   C36329059   0.176   5.496   4.110 -0.2918 -0.8069 -0.6393
   69RES   C36429060   0.152   5.487   4.256  0.3990  0.1129 -0.5303
   69RES   C36529061   0.236   5.581   4.354 -0.6021 -0.2223 -0.0330
   69RES   H36629062   0.161   5.145   3.698 -1.2730  0.3643 -1.2429
   69RES   H36729063   0.135   5.128   3.877  0.3700 -0.7042 -0.0573
   69RES   H36829064   7.671   5.303   3.813 -0.1982 -0.2686  0.4400
   69RES   H36929065   0.239   5.355   3.858  0.4927  1.2614  0.4865
   69RES   H37029066   0.140   5.500   3.849  3.7609 -0.2273 -2.6946
   69RES   H37129067   7.727   5.410   4.033 -0.0697 -1.6995  2.6773
   69RES   H37229068   0.120   5.290   4.062  0.1126 -0.5872  1.3566
   69RES   H37329069   0.282   5.494   4.082  0.7315  1.1293  2.8791
   69RES   H37429070   0.147   5.595   4.076  1.5174 -0.3068 -0.7529
   69RES   H37529071   0.046   5.492   4.282  0.2748 -1.2187 -0.7588
   69RES   H37629072   0.174   5.388   4.298 -0.4913 -0.2632 -0.9526
   69RES   H37729073   0.340   5.601   4.330 -1.0588  2.3941  0.0497
   69RES   H37829074   0.189   5.679   4.358 -3.5238 -1.5618  0.3231
   69RES   H37929075   0.228   5.536   4.453 -0.6007 -0.2460 -0.0442
   69RES   C38029076   0.037   5.351   3.633 -0.1258 -0.2932 -0.3004
   69RES   C38129077   7.700   5.497   3.609 -0.4625  0.3272 -0.1328
   69RES   C38229078   0.018   5.549   3.473 -0.1534 -1.0846  0.1605
   69RES   C38329079   7.718   5.459   3.357  0.6738  1.0991  0.1710
   69RES   C38429080   0.054   5.528   3.237 -0.2120  0.2258  0.7567
   69RES   C38529081   0.025   5.470   3.105  0.4111 -0.0456 -1.1614
   69RES   C38629082   0.092   5.563   2.993  0.4134  0.5125 -0.1529
   69RES   H38729083   0.132   5.345   3.579  0.1853  0.3983  0.1540
   69RES   H38829084   7.702   5.285   3.573 -1.5459 -0.9817  1.8532
   69RES   H38929085   0.004   5.565   3.689  0.8863  0.9025 -1.1185
   69RES   H39029086   0.126   5.564   3.483 -0.4691  1.3119  0.2947
   69RES   H39129087   7.705   5.648   3.454 -0.3780 -1.1925  0.0683
   69RES   H39229088   0.035   5.359   3.359 -0.7037  0.3818 -2.6618
   69RES   H39329089   7.610   5.456   3.340  0.8311 -0.3476 -0.6717
   69RES   H39429090   0.016   5.630   3.242 -1.6683 -0.2021 -1.1240
   69RES   H39529091   0.162   5.529   3.254 -0.8196 -1.6378  5.2698
   69RES   H39629092   7.645   5.456   3.085 -0.2190 -1.8157  2.9412
   69RES   H39729093   0.067   5.369   3.109  2.1079  0.7292  1.3843
   69RES   H39829094   0.199   5.578   3.008 -0.0079  1.9994  1.4859
   69RES   H39929095   0.042   5.659   2.986  0.7171  0.5775 -1.6642
   69RES   H40029096   0.087   5.507   2.899  0.5803 -1.7341  1.1266
   69RES   C40129097   7.539   5.499   3.625  0.3506 -0.6643 -1.1063
   69RES   C40229098   7.493   5.511   3.768  0.2449 -0.5500 -0.3522
   69RES   C40329099   7.343   5.550   3.773 -0.5453  0.5012  0.1988
   69RES   C40429100   7.248   5.441   3.718 -0.7013 -0.3295 -0.7406
   69RES   C40529101   7.108   5.463   3.769 -0.3211  0.1439  0.3265
   69RES   C40629102   7.086   5.418   3.913  0.5782  0.3571 -0.0788
   69RES   C40729103   6.983   5.492   3.999 -0.2316  0.6668 -0.0506
   69RES   H40829104   7.488   5.413   3.581 -0.9788 -0.0356 -0.8116
   69RES   H40929105   7.500   5.588   3.577  0.4716 -0.1212 -0.2075
   69RES   H41029106   7.550   5.597   3.804  0.0334 -1.3265  1.9271
   69RES   H41129107   7.332   5.652   3.736 -2.0217  0.4404  0.4338
   69RES   H41229108   7.314   5.569   3.877  0.0186 -1.3536  0.7121
   69RES   H41329109   7.282   5.341   3.743 -1.9166 -0.2232  1.4188
   69RES   H41429110   7.246   5.443   3.609  2.0474 -0.1563 -0.8099
   69RES   H41529111   7.086   5.568   3.750 -1.1070  0.1789  1.3869
   69RES   H41629112   7.042   5.414   3.697  0.2349 -2.1271  1.3190
   69RES   H41729113   7.049   5.317   3.897 -0.5435  1.0521 -2.0278
   69RES   H41829114   7.184   5.427   3.960  1.9385 -1.6661 -2.4045
   69RES   H41929115   6.896   5.507   3.935  0.6121  1.2574 -1.0573
   69RES   H42029116   7.022   5.589   4.028 -1.7131  0.7524  1.8106
   69RES   H42129117   6.951   5.444   4.092  1.8540  0.0181  0.3558
   69RES   H42229118   7.516   5.428   3.836 -0.8561  0.4247  1.2332
   70RES     C129119   1.474   6.989   4.982 -0.4333  0.4325 -0.2489
   70RES     C229120   1.527   7.064   4.855  0.6349  0.5529 -0.4841
   70RES     C329121   1.409   7.121   4.771  0.6931  0.7425 -0.1051
   70RES     C429122   1.339   7.248   4.833 -0.4114  0.3164 -0.3646
   70RES     C529123   1.234   7.310   4.737  0.5535  0.2317 -0.4943
   70RES     C629124   1.118   7.229   4.684 -0.0377  0.1464  0.1488
   70RES     C729125   1.037   7.152   4.787  0.7689  0.7568  0.9102
   70RES     H829126   1.538   7.018   5.065 -1.1652 -0.9116  0.7841
   70RES     H929127   1.476   6.881   4.970 -1.6700  0.2980  0.6407
   70RES    H1029128   1.570   7.154   4.900  2.1151 -0.6496  0.5378
   70RES    H1129129   1.447   7.158   4.676 -2.2708 -0.9395 -1.9744
   70RES    H1229130   1.338   7.044   4.742 -1.8594  2.4819  1.3004
   70RES    H1329131   1.304   7.221   4.933  0.1565 -1.2026 -0.5550
   70RES    H1429132   1.409   7.328   4.856 -0.2615 -0.3295  1.5685
   70RES    H1529133   1.291   7.346   4.652  1.4876 -0.8514 -0.3453
   70RES    H1629134   1.201   7.396   4.796 -0.1843  0.9293 -1.9184
   70RES    H1729135   1.148   7.162   4.604  0.3645  0.7853 -0.2393
   70RES    H1829136   1.049   7.297   4.635 -0.0801  0.0810  0.1167
   70RES    H1929137   1.097   7.069   4.826  1.6956  2.0244  2.2119
   70RES    H2029138   0.951   7.098   4.748  1.3018 -0.7553  1.7714
   70RES    H2129139   1.010   7.206   4.877 -2.6390 -0.8078  0.8992
   70RES    H2229140   1.372   7.020   5.005 -0.0859  0.6296  1.0481
   70RES    C2329141   1.625   6.979   4.768 -0.3706  0.3731  0.1955
   70RES    C2429142   1.758   6.941   4.830 -0.4485  0.7715 -0.2162
   70RES    C2529143   1.848   7.073   4.858 -0.0083  0.6429 -0.2808
   70RES    C2629144   1.955   7.048   4.963 -0.0382  0.2955  0.4198
   70RES    C2729145   2.030   7.175   5.005  0.1740 -0.6419 -0.0294
   70RES    C2829146   1.963   7.253   5.118  0.4233  0.5583 -0.1936
   70RES    C2929147   2.060   7.364   5.159  0.3220 -0.3019 -1.1771
   70RES    H3029148   1.577   6.886   4.736  2.1961 -1.0108  0.2896
   70RES    H3129149   1.658   7.041   4.684  3.5330  0.5547  1.7519
   70RES    H3229150   1.735   6.890   4.923  2.0051 -0.3863 -0.2274
   70RES    H3329151   1.785   7.154   4.895 -1.7873 -1.7928  2.2000
   70RES    H3429152   1.896   7.109   4.767  0.8097 -0.5524 -0.3313
   70RES    H3529153   2.030   6.981   4.922  2.8602  2.3676  2.1258
   70RES    H3629154   1.908   6.986   5.039  2.2060 -1.7016  0.2161
   70RES    H3729155   2.055   7.246   4.926  1.7989 -1.6795 -0.4739
   70RES    H3829156   2.127   7.135   5.036  0.6708 -0.5340 -1.4155
   70RES    H3929157   1.951   7.176   5.194  1.5659  1.9296  1.4229
   70RES    H4029158   1.867   7.301   5.102 -0.7693 -1.0927  1.7448
   70RES    H4129159   2.165   7.337   5.168  0.4617  0.7829  0.8581
   70RES    H4229160   2.069   7.431   5.074  1.1049 -1.2242 -1.8250
   70RES    H4329161   2.019   7.415   5.246 -0.2542 -1.1690 -0.9279
   70RES    C4429162   1.833   6.839   4.747  0.0662  0.1290 -0.9301
   70RES    C4529163   1.771   6.693   4.734  0.7227  0.3365  0.7310
   70RES    C4629164   1.854   6.590   4.645 -0.2301 -0.0664 -0.7013
   70RES    C4729165   1.850   6.612   4.499 -0.0496  0.0254 -0.2979
   70RES    C4829166   1.706   6.594   4.445  0.8649 -0.0051 -0.1458
   70RES    C4929167   1.715   6.565   4.290 -0.3889  0.4071 -0.0694
   70RES    C5029168   1.780   6.432   4.244  0.1016 -0.1289 -0.2025
   70RES    H5129169   1.940   6.831   4.765 -0.4549 -0.0171  2.4632
   70RES    H5229170   1.818   6.871   4.644  1.5260  1.3527 -0.7859
   70RES    H5329171   1.670   6.692   4.693  0.7371 -2.4687  0.6112
   70RES    H5429172   1.818   6.488   4.662 -0.5180  0.3732  1.5586
   70RES    H5529173   1.956   6.607   4.681  0.0713  0.2196 -1.6780
   70RES    H5629174   1.890   6.711   4.477 -0.5065  0.2838  0.0090
   70RES    H5729175   1.910   6.536   4.450  0.8920  1.0575 -0.7649
   70RES    H5829176   1.642   6.680   4.460  0.9566  0.1422 -0.5836
   70RES    H5929177   1.662   6.503   4.486 -0.7001 -0.4611 -2.6873
   70RES    H6029178   1.780   6.639   4.244 -0.3848  0.2625 -0.2959
   70RES    H6129179   1.617   6.568   4.243  0.7785 -2.4777 -2.9072
   70RES    H6229180   1.884   6.425   4.276  0.5283  2.1509 -0.9798
   70RES    H6329181   1.776   6.391   4.143 -1.0573 -4.1124  1.3575
   70RES    H6429182   1.727   6.359   4.304  1.6592 -0.8831  0.2918
   70RES    C6529183   1.746   6.627   4.873 -0.1575 -1.0781  0.5275
   70RES    C6629184   1.592   6.608   4.900  0.0004  0.0304 -1.0336
   70RES    C6729185   1.561   6.600   5.051 -0.3921  0.5691 -0.1835
   70RES    C6829186   1.616   6.478   5.129 -0.1061 -0.5550  0.4974
   70RES    C6929187   1.576   6.472   5.282 -0.0178 -0.2415 -0.5995
   70RES    C7029188   1.617   6.345   5.360  0.2369  0.5831 -0.0430
   70RES    C7129189   1.769   6.341   5.397  0.5579  0.5862 -0.4730
   70RES    H7229190   1.780   6.523   4.883  2.6223 -0.3871 -1.2869
   70RES    H7329191   1.795   6.688   4.948  0.1106  1.2202 -1.4720
   70RES    H7429192   1.535   6.694   4.864 -1.5953  0.2082  1.7944
   70RES    H7529193   1.602   6.690   5.096  1.4155 -0.7501  0.9166
   70RES    H7629194   1.456   6.598   5.079  0.2541 -0.2752  2.2867
   70RES    H7729195   1.594   6.380   5.088 -0.7075 -0.3183  0.2352
   70RES    H7829196   1.724   6.489   5.128 -0.0877 -0.6437  1.0316
   70RES    H7929197   1.598   6.563   5.337 -1.3253  1.0735 -2.1893
   70RES    H8029198   1.467   6.470   5.283 -0.0841  1.0801 -2.2683
   70RES    H8129199   1.600   6.263   5.290 -0.0463  0.9548 -0.4142
   70RES    H8229200   1.554   6.330   5.448 -0.4058  0.8292 -0.4515
   70RES    H8329201   1.790   6.249   5.451 -0.4132  1.7780  2.0176
   70RES    H8429202   1.835   6.358   5.312 -1.4389  2.2143 -1.7351
   70RES    H8529203   1.783   6.417   5.474  0.0704  0.2079 -0.0003
   70RES    C8629204   1.526   6.486   4.825 -0.0335 -0.2147  0.1954
   70RES    C8729205   1.371   6.486   4.830  0.0624  0.2097 -0.2866
   70RES    C8829206   1.296   6.601   4.771  0.6364  0.1676  0.2835
   70RES    C8929207   1.339   6.621   4.619 -0.5629  0.4019 -0.5616
   70RES    C9029208   1.291   6.753   4.566 -0.2300  0.5685  0.8872
   70RES    C9129209   1.146   6.755   4.523  0.3822 -0.7720 -0.5860
   70RES    C9229210   1.117   6.651   4.410  0.2909 -1.1803 -0.1382
   70RES    H9329211   1.567   6.476   4.725  0.8505  1.8321  0.3305
   70RES    H9429212   1.584   6.403   4.864 -0.2780 -0.8451 -0.7771
   70RES    H9529213   1.340   6.497   4.934  2.2375 -1.2186  0.5545
   70RES    H9629214   1.191   6.590   4.799  0.8346 -0.7557  0.7052
   70RES    H9729215   1.315   6.694   4.825  0.6658  0.2602  0.1161
   70RES    H9829216   1.448   6.630   4.616 -0.8149  3.4356 -3.9612
   70RES    H9929217   1.306   6.533   4.565 -1.5101 -0.2077  0.9694
   70RES   H10029218   1.349   6.789   4.482 -0.3961 -1.2921 -0.0536
   70RES   H10129219   1.310   6.829   4.642  0.0173 -1.4914  2.9454
   70RES   H10229220   1.089   6.732   4.613 -2.1451  0.8379 -1.7418
   70RES   H10329221   1.121   6.859   4.504  2.6154 -0.1863 -0.5070
   70RES   H10429222   1.199   6.642   4.339  1.0433 -2.8607  0.9026
   70RES   H10529223   1.027   6.680   4.356 -0.0212 -1.5143  0.1971
   70RES   H10629224   1.110   6.554   4.459  1.9549 -0.8043  0.8581
   70RES   C10729225   1.317   6.344   4.777 -0.2088 -0.2170 -0.7420
   70RES   C10829226   1.340   6.220   4.863 -0.4976  0.0821  0.3026
   70RES   C10929227   1.279   6.232   5.001  0.7579 -0.5335  0.4918
   70RES   C11029228   1.329   6.132   5.100  0.2399 -0.6030  0.9321
   70RES   C11129229   1.271   6.163   5.237 -0.1623 -0.2055  0.4934
   70RES   C11229230   1.129   6.110   5.245 -0.0047 -0.2092  0.3459
   70RES   C11329231   1.083   6.121   5.394  0.0003 -0.8662  0.3178
   70RES   H11429232   1.358   6.322   4.678  3.3120  2.5674 -0.0029
   70RES   H11529233   1.210   6.350   4.757 -0.3059  1.4744  0.1385
   70RES   H11629234   1.446   6.233   4.884 -0.8706  2.3228  0.8995
   70RES   H11729235   1.172   6.217   4.985  0.4303  0.9685  1.1807
   70RES   H11829236   1.288   6.329   5.049 -1.1277 -0.0412 -0.0948
   70RES   H11929237   1.297   6.032   5.071 -0.3355 -0.1672  0.0331
   70RES   H12029238   1.438   6.137   5.101  0.1728  1.5825  0.0517
   70RES   H12129239   1.281   6.270   5.254  1.0741 -0.2052 -0.1925
   70RES   H12229240   1.326   6.115   5.317 -0.9640 -0.1644  1.0717
   70RES   H12329241   1.060   6.165   5.181  1.3726 -0.7572 -1.6430
   70RES   H12429242   1.125   6.006   5.211 -1.1145  0.1411 -0.6325
   70RES   H12529243   0.975   6.120   5.404 -0.0373 -2.4499 -0.1804
   70RES   H12629244   1.141   6.060   5.464  1.0545 -0.4935 -0.2203
   70RES   H12729245   1.103   6.225   5.420  0.8033 -1.1604  0.8874
   70RES   C12829246   1.312   6.086   4.793 -0.3745  1.2499 -0.3576
   70RES   C12929247   1.431   5.984   4.782 -0.3245  0.5556 -0.5015
   70RES   C13029248   1.545   6.026   4.682  0.3552  0.3517  0.1715
   70RES   C13129249   1.485   6.047   4.538 -0.1474 -0.1418 -0.0472
   70RES   C13229250   1.593   6.071   4.429 -0.3601  0.3836  0.4372
   70RES   C13329251   1.537   6.087   4.284 -0.9348 -0.5798 -0.3292
   70RES   C13429252   1.652   6.064   4.179  0.4409 -0.2067 -0.0900
   70RES   H13529253   1.239   6.038   4.858  2.2316 -0.7012  1.1962
   70RES   H13629254   1.274   6.108   4.693 -1.0042 -0.3592 -0.4769
   70RES   H13729255   1.467   5.983   4.885  0.2550 -1.8789 -0.6902
   70RES   H13829256   1.623   5.950   4.683 -2.3017 -2.5361 -1.7525
   70RES   H13929257   1.587   6.122   4.712 -0.6549  0.7418  0.3708
   70RES   H14029258   1.418   6.133   4.543  1.4145  1.0524  0.6286
   70RES   H14129259   1.418   5.966   4.511 -0.0977 -0.1672 -0.0926
   70RES   H14229260   1.666   5.990   4.431 -0.8936 -0.0868  1.5666
   70RES   H14329261   1.643   6.165   4.450 -0.4784  0.9448 -1.7223
   70RES   H14429262   1.492   6.186   4.277  0.2270  0.2917  3.2781
   70RES   H14529263   1.458   6.016   4.259  0.1542 -1.7733 -0.3987
   70RES   H14629264   1.679   5.960   4.161  2.3463  0.2706 -0.1229
   70RES   H14729265   1.738   6.124   4.208  0.5440  0.2002 -1.1761
   70RES   H14829266   1.621   6.103   4.081  0.4737 -1.7426 -0.7190
   70RES   C14929267   1.377   5.838   4.750 -0.1749 -1.0143  0.4587
   70RES   C15029268   1.325   5.759   4.873  0.6584  0.5741  0.3896
   70RES   C15129269   1.436   5.664   4.927  1.0231 -0.0089  0.2788
   70RES   C15229270   1.403   5.579   5.051 -0.0786 -0.4363  0.6386
   70RES   C15329271   1.526   5.503   5.099 -0.0115 -0.3301 -0.1403
   70RES   C15429272   1.494   5.449   5.242 -0.0938 -0.3026  0.8452
   70RES   C15529273   1.603   5.375   5.314  0.0962  0.6394  0.1569
   70RES   H15629274   1.307   5.851   4.668  0.6078  1.8055  0.1914
   70RES   H15729275   1.454   5.787   4.693 -1.3497  0.2722 -2.3410
   70RES   H15829276   1.296   5.820   4.958 -0.6934  0.4816 -0.0001
   70RES   H15929277   1.466   5.597   4.846 -1.3224  0.1758 -0.7850
   70RES   H16029278   1.526   5.720   4.953  0.9550  0.5860 -0.7154
   70RES   H16129279   1.327   5.508   5.018 -0.6651  1.0003 -1.2195
   70RES   H16229280   1.355   5.651   5.118  2.7704  1.6249  0.5564
   70RES   H16329281   1.616   5.565   5.103  0.4301 -1.0372  2.0253
   70RES   H16429282   1.554   5.429   5.024 -0.5727 -1.7233  0.9999
   70RES   H16529283   1.407   5.389   5.215 -1.2022  1.9866 -0.9002
   70RES   H16629284   1.470   5.528   5.313  2.0017  0.4393  0.7566
   70RES   H16729285   1.572   5.326   5.406 -2.6193  3.3597  0.7545
   70RES   H16829286   1.670   5.451   5.353  0.2038  0.5004  0.2414
   70RES   H16929287   1.655   5.306   5.247 -0.0245  1.1778 -0.4927
   70RES   C17029288   1.193   5.685   4.828  0.2499 -0.1148 -0.1040
   70RES   C17129289   1.063   5.769   4.833 -0.4944 -0.0674  0.4569
   70RES   C17229290   0.969   5.739   4.713 -0.2125 -0.4166 -0.0869
   70RES   C17329291   1.038   5.768   4.577 -0.3910 -0.6588 -0.0878
   70RES   C17429292   0.946   5.800   4.461  0.2511 -0.0397  0.3196
   70RES   C17529293   1.009   5.805   4.320 -0.0922 -0.5361 -0.0491
   70RES   C17629294   1.066   5.671   4.268 -0.4832 -0.8032 -0.0027
   70RES   H17729295   1.186   5.590   4.880 -1.5216 -1.0530 -2.0092
   70RES   H17829296   1.207   5.650   4.726  1.9458 -1.5058  0.5889
   70RES   H17929297   1.083   5.876   4.821 -2.8519  0.6754  2.6375
   70RES   H18029298   0.897   5.819   4.727  0.0307 -0.8138  4.0616
   70RES   H18129299   0.909   5.648   4.711  1.0766 -1.2950  0.0121
   70RES   H18229300   1.116   5.693   4.563 -0.5071 -0.2650 -3.2441
   70RES   H18329301   1.110   5.849   4.585 -0.0123 -1.0776  0.8276
   70RES   H18429302   0.888   5.889   4.488 -1.5589 -0.4194 -2.1593
   70RES   H18529303   0.869   5.723   4.457  1.1563 -0.8802 -0.7738
   70RES   H18629304   1.096   5.870   4.325 -1.1507  0.8585  0.4327
   70RES   H18729305   0.941   5.869   4.265 -0.2553 -0.2731  0.4613
   70RES   H18829306   0.986   5.600   4.245 -0.7670 -0.5070  0.0819
   70RES   H18929307   1.128   5.615   4.338 -1.1320 -2.8970 -1.0581
   70RES   H19029308   1.121   5.682   4.174 -0.5040  0.8480  0.1801
   70RES   C19129309   0.984   5.733   4.959  0.0839 -0.8405  0.0508
   70RES   C19229310   0.848   5.814   4.978  0.3190  0.3591  0.0640
   70RES   C19329311   0.781   5.766   5.112 -0.3200 -0.6554 -0.5337
   70RES   C19429312   0.709   5.629   5.105  0.2104  0.1854  0.7265
   70RES   C19529313   0.673   5.562   5.232  0.2748 -0.0200 -0.3245
   70RES   C19629314   0.642   5.412   5.222  0.5714 -0.1152  0.5314
   70RES   C19729315   0.650   5.325   5.354  0.0983 -0.3634 -0.7185
   70RES   H19829316   1.045   5.737   5.050 -1.6989 -0.7163  1.2830
   70RES   H19929317   0.956   5.630   4.940 -1.3920 -0.2295 -1.1405
   70RES   H20029318   0.776   5.787   4.900  0.4598 -1.4898  0.5495
   70RES   H20129319   0.709   5.841   5.145  0.3033 -0.5067  0.5196
   70RES   H20229320   0.859   5.762   5.188  0.3741  1.3159 -1.1273
   70RES   H20329321   0.775   5.560   5.051  1.5677  0.2397  2.2790
   70RES   H20429322   0.623   5.644   5.040 -0.6560  0.4140  1.9200
   70RES   H20529323   0.756   5.571   5.302 -0.5444 -0.1235  0.6844
   70RES   H20629324   0.590   5.621   5.273  1.5341  2.3161 -1.0640
   70RES   H20729325   0.692   5.365   5.138 -0.7012 -1.2329  0.3839
   70RES   H20829326   0.538   5.414   5.190  0.7262  1.9331  0.0779
   70RES   H20929327   0.635   5.219   5.336 -2.6211  0.0335 -0.8715
   70RES   H21029328   0.575   5.350   5.428  0.6362 -0.2272 -0.2118
   70RES   H21129329   0.751   5.338   5.393 -0.8808  3.1826  0.8475
   70RES   C21229330   0.854   5.972   4.977 -0.1234 -0.0220  0.1934
   70RES   C21329331   0.749   6.043   4.886  1.1249  0.5489 -0.8283
   70RES   C21429332   0.608   6.021   4.949  0.0109 -0.0741 -0.0903
   70RES   C21529333   0.574   6.087   5.073 -0.0265 -0.8013  0.3391
   70RES   C21629334   0.448   6.027   5.138  0.3949  0.6894  0.4608
   70RES   C21729335   0.397   6.094   5.260  0.2059 -0.3241  0.6790
   70RES   C21829336   0.294   6.009   5.327  0.1583  0.5227  0.0615
   70RES   H21929337   0.948   5.997   4.927 -0.1461  2.8899  1.5140
   70RES   H22029338   0.862   6.016   5.076  0.0704  1.5933 -0.5287
   70RES   H22129339   0.733   5.995   4.790  1.7529  0.0729 -0.7019
   70RES   H22229340   0.535   6.060   4.878 -0.9983 -2.3651 -0.3825
   70RES   H22329341   0.587   5.914   4.957 -1.0584 -0.0207 -1.7166
   70RES   H22429342   0.555   6.194   5.061  0.5338 -0.5221  1.7746
   70RES   H22529343   0.654   6.059   5.142  0.5617  1.2932  0.5518
   70RES   H22629344   0.369   6.031   5.063 -0.6579 -2.0171  1.3413
   70RES   H22729345   0.476   5.924   5.161  1.4760  0.2246 -2.7336
   70RES   H22829346   0.474   6.120   5.331  0.4474 -1.4013  0.8192
   70RES   H22929347   0.360   6.196   5.244 -0.6259 -0.7183  0.0055
   70RES   H23029348   0.194   6.016   5.284 -0.7514 -0.7157  1.9065
   70RES   H23129349   0.278   6.038   5.431 -0.2148 -0.4028  0.2676
   70RES   H23229350   0.318   5.904   5.340  2.0517  0.6240 -2.3260
   70RES   C23329351   0.773   6.201   4.869  0.3065  0.5932 -0.5415
   70RES   C23429352   0.896   6.254   4.797  0.4047  0.0178  0.3616
   70RES   C23529353   0.922   6.170   4.669  0.2193 -0.3785 -0.0384
   70RES   C23629354   1.021   6.230   4.568  0.2155 -0.7462 -0.1844
   70RES   C23729355   1.040   6.152   4.436 -0.7364 -0.6057 -0.2491
   70RES   C23829356   1.084   6.238   4.326  0.5228  0.2072 -0.5486
   70RES   C23929357   1.222   6.310   4.344  0.4727 -0.5894  0.1026
   70RES   H24029358   0.763   6.249   4.966 -0.4604 -0.6558  0.0053
   70RES   H24129359   0.689   6.220   4.803  0.4054  0.5157 -0.6908
   70RES   H24229360   0.975   6.225   4.866  0.4071  1.6728  1.0808
   70RES   H24329361   0.838   6.133   4.610 -0.5691  2.3414 -0.6685
   70RES   H24429362   0.956   6.070   4.697  0.4528 -0.4515 -0.5786
   70RES   H24529363   1.122   6.241   4.609 -0.7500 -0.2455  2.1041
   70RES   H24629364   0.979   6.327   4.543 -2.1552 -1.5700  0.5125
   70RES   H24729365   0.942   6.114   4.408 -1.8841  0.7733  1.7821
   70RES   H24829366   1.113   6.072   4.451 -0.6972  0.0732  3.5874
   70RES   H24929367   1.089   6.169   4.242  1.3540  0.1247 -0.4307
   70RES   H25029368   1.017   6.323   4.313 -0.1440  0.1653  2.1761
   70RES   H25129369   1.311   6.247   4.337  0.3144 -0.9808  1.4005
   70RES   H25229370   1.236   6.387   4.268 -2.2963 -2.3041 -2.2785
   70RES   H25329371   1.221   6.357   4.442 -0.1425 -0.5804  0.0927
   70RES   C25429372   0.911   6.413   4.786 -0.2942  0.0913  0.5592
   70RES   C25529373   0.896   6.498   4.920 -0.2014 -0.1282 -0.7740
   70RES   C25629374   0.900   6.651   4.894 -0.3586 -0.5911 -0.1263
   70RES   C25729375   0.793   6.714   4.789 -0.6000  0.5142  0.1483
   70RES   C25829376   0.820   6.859   4.768 -0.2760  0.4072  0.5057
   70RES   C25929377   0.698   6.925   4.704  0.1213 -0.2014  0.1302
   70RES   C26029378   0.573   6.938   4.791  0.3672 -0.3338 -0.4488
   70RES   H26129379   0.848   6.439   4.702  0.7055  0.6436 -0.0319
   70RES   H26229380   1.011   6.447   4.756  0.6325 -0.9801  2.3375
   70RES   H26329381   0.797   6.483   4.964 -0.5984  0.1604 -1.5645
   70RES   H26429382   0.994   6.684   4.848 -0.9248 -0.2767 -1.0597
   70RES   H26529383   0.896   6.710   4.986 -2.1853 -1.3115  0.2681
   70RES   H26629384   0.787   6.656   4.698 -2.5661 -0.7697  1.0599
   70RES   H26729385   0.697   6.702   4.839 -2.0290  1.7356 -2.1884
   70RES   H26829386   0.915   6.869   4.716  0.3136  2.4304  1.9271
   70RES   H26929387   0.834   6.910   4.864  1.6036 -0.9194  0.9666
   70RES   H27029388   0.726   7.025   4.672  1.2409 -1.2157 -2.2588
   70RES   H27129389   0.675   6.877   4.609 -2.5827  1.6519 -0.2173
   70RES   H27229390   0.483   6.967   4.737 -0.3782 -0.1842  0.8595
   70RES   H27329391   0.532   6.850   4.840  0.5135 -0.6806 -0.9447
   70RES   H27429392   0.594   7.008   4.872 -0.3004  0.9329 -1.3516
   70RES   C27529393   0.991   6.460   5.038 -1.3874 -1.2529  0.3625
   70RES   C27629394   0.938   6.524   5.171  0.5833  0.7357 -0.0843
   70RES   C27729395   1.051   6.568   5.262  0.2432 -0.2830 -0.3479
   70RES   C27829396   1.101   6.707   5.228  0.4488 -0.2213  0.9621
   70RES   C27929397   1.005   6.825   5.260 -0.6323 -0.9242  0.3286
   70RES   C28029398   1.074   6.965   5.227 -0.5088 -0.1430 -0.3009
   70RES   C28129399   1.073   6.994   5.078 -0.6614  0.3518  0.4738
   70RES   H28229400   1.093   6.492   5.016 -0.8093 -2.8189  0.6968
   70RES   H28329401   0.999   6.352   5.040  1.0052 -1.1799 -1.7568
   70RES   H28429402   0.866   6.605   5.160  1.1081  1.1273 -0.6443
   70RES   H28529403   1.022   6.567   5.367 -1.3260 -0.7317 -0.7717
   70RES   H28629404   1.134   6.498   5.247  0.6766  0.1815 -0.1250
   70RES   H28729405   1.126   6.722   5.123 -0.9204  2.6859  0.9953
   70RES   H28829406   1.200   6.726   5.269  0.9144  0.3347 -0.3768
   70RES   H28929407   0.989   6.822   5.368 -1.2119  2.0745  0.3731
   70RES   H29029408   0.912   6.800   5.210  1.1265 -3.2348 -1.9052
   70RES   H29129409   1.019   7.046   5.275 -1.8942 -1.5759  0.5790
   70RES   H29229410   1.174   6.955   5.270 -0.9406 -1.4693  0.4398
   70RES   H29329411   0.972   6.991   5.037 -0.9138  0.7077  1.0671
   70RES   H29429412   1.133   6.918   5.028 -0.0626  1.2024 -0.1322
   70RES   H29529413   1.125   7.089   5.062  1.1044 -0.3557  1.9017
   70RES   C29629414   0.856   6.410   5.235 -0.0509  0.2661 -0.3815
   70RES   C29729415   0.742   6.453   5.327 -1.3168  0.4133  0.2538
   70RES   C29829416   0.713   6.353   5.448 -0.2028 -0.0605  0.4743
   70RES   C29929417   0.828   6.353   5.549 -0.0320 -0.1800 -0.4718
   70RES   C30029418   0.827   6.239   5.648  0.4070  0.1390 -0.2847
   70RES   C30129419   0.950   6.236   5.742  1.1045  0.6554 -0.2782
   70RES   C30229420   0.951   6.120   5.845  0.1015  0.1929 -0.1266
   70RES   H30329421   0.809   6.341   5.165  2.1676 -0.9374 -0.7523
   70RES   H30429422   0.924   6.343   5.289 -0.8086 -0.2937 -0.0996
   70RES   H30529423   0.782   6.548   5.363 -0.3721  0.4439 -0.8481
   70RES   H30629424   0.620   6.380   5.498  0.4335  1.7722  0.7289
   70RES   H30729425   0.707   6.255   5.402  1.8884  0.2151 -0.4628
   70RES   H30829426   0.835   6.451   5.596  3.0534 -0.3590 -0.4177
   70RES   H30929427   0.922   6.344   5.494  0.4202 -0.5244  0.3527
   70RES   H31029428   0.811   6.136   5.618  0.1388 -0.1077  0.6663
   70RES   H31129429   0.740   6.264   5.710  0.7533 -0.1905  0.3426
   70RES   H31229430   1.028   6.210   5.670  0.8893 -0.2022 -0.2146
   70RES   H31329431   0.968   6.332   5.791  0.2130  0.8876 -0.3964
   70RES   H31429432   0.949   6.028   5.785 -0.1898  1.8378 -2.7113
   70RES   H31529433   1.034   6.113   5.914 -0.3258 -3.1160  0.1676
   70RES   H31629434   0.855   6.117   5.896 -0.1018 -1.5034 -0.5526
   70RES   C31729435   0.616   6.488   5.252 -0.4040  0.5282 -0.7041
   70RES   C31829436   0.522   6.589   5.328  0.0893 -0.0964 -0.6837
   70RES   C31929437   0.578   6.727   5.351  0.0603 -0.2823 -0.0958
   70RES   C32029438   0.588   6.817   5.229 -0.0455 -0.2354  0.6278
   70RES   C32129439   0.654   6.950   5.254 -0.2238  0.0401 -0.2067
   70RES   C32229440   0.668   7.033   5.130 -0.4740  0.1247 -0.1860
   70RES   C32329441   0.732   7.168   5.154  1.5003  0.5110 -0.5198
   70RES   H32429442   0.566   6.394   5.230 -1.3346  0.6860  0.6698
   70RES   H32529443   0.639   6.531   5.155 -3.0687 -1.0927 -2.1162
   70RES   H32629444   0.498   6.538   5.421 -1.0961 -0.4245 -1.1592
   70RES   H32729445   0.670   6.718   5.408  2.3362  2.1711 -3.1794
   70RES   H32829446   0.511   6.787   5.412 -1.6114 -0.7951 -1.3961
   70RES   H32929447   0.491   6.834   5.180 -1.2561 -3.1074  1.9065
   70RES   H33029448   0.637   6.767   5.146  0.1361  2.2513 -0.8137
   70RES   H33129449   0.749   6.929   5.303 -0.4925 -0.7231  0.0032
   70RES   H33229450   0.590   6.997   5.329 -1.2448 -0.3412 -0.8267
   70RES   H33329451   0.570   7.047   5.084 -1.8446  0.2592  2.6773
   70RES   H33429452   0.736   6.985   5.060  0.6378 -0.1884  1.0845
   70RES   H33529453   0.791   7.200   5.068  1.8955 -1.9374 -1.2145
   70RES   H33629454   0.814   7.161   5.225 -1.0162 -1.5727  2.3405
   70RES   H33729455   0.669   7.243   5.201 -0.5421 -1.9760  0.8530
   70RES   C33829456   0.392   6.594   5.243 -0.3826 -0.4462  0.0529
   70RES   C33929457   0.281   6.678   5.312  0.0991 -0.5926  0.4756
   70RES   C34029458   0.227   6.620   5.444 -1.1749 -0.1599 -0.3941
   70RES   C34129459   0.200   6.471   5.448 -0.0271 -0.2592  0.6733
   70RES   C34229460   0.157   6.440   5.590 -0.7215  0.3205 -0.4471
   70RES   C34329461   0.151   6.290   5.630  0.1115 -0.0367  0.4631
   70RES   C34429462   0.085   6.274   5.761  0.5109  0.2580  0.3616
   70RES   H34529463   0.360   6.492   5.221 -0.9524 -0.1993 -0.2476
   70RES   H34629464   0.416   6.638   5.146 -0.4263  0.7662  0.5793
   70RES   H34729465   0.316   6.776   5.343 -2.6548  0.0367  1.7370
   70RES   H34829466   0.282   6.657   5.531  0.1379 -0.1132 -1.2344
   70RES   H34929467   0.135   6.674   5.466 -0.7609 -0.2562  1.6759
   70RES   H35029468   0.288   6.411   5.425  0.3271 -0.1314  1.6686
   70RES   H35129469   0.123   6.453   5.373  0.7965 -0.4341 -0.1377
   70RES   H35229470   0.221   6.481   5.669  1.7888 -2.8470 -0.7665
   70RES   H35329471   0.059   6.488   5.592 -0.8416  0.0679 -0.2505
   70RES   H35429472   0.103   6.231   5.552 -2.4105  1.2738  0.9575
   70RES   H35529473   0.255   6.258   5.635 -0.1505 -1.6798 -3.0452
   70RES   H35629474   7.710   6.311   5.749  0.7107  0.2108 -1.6636
   70RES   H35729475   0.148   6.316   5.840 -0.5961  1.3684  0.6739
   70RES   H35829476   0.070   6.169   5.787 -1.3346  0.3377 -0.3290
   70RES   C35929477   0.169   6.696   5.209  0.6071  0.4257 -0.6360
   70RES   C36029478   0.046   6.787   5.244  0.7212  0.8775  0.9587
   70RES   C36129479   0.092   6.934   5.295  0.5450 -0.3248 -0.1292
   70RES   C36229480   0.192   7.005   5.197 -0.5254  0.2191 -1.0337
   70RES   C36329481   0.192   7.152   5.234 -0.8743 -0.4489 -0.1397
   70RES   C36429482   0.287   7.230   5.145  0.2879 -0.5223 -0.2315
   70RES   C36529483   0.272   7.381   5.153  0.0141 -0.2227  0.7335
   70RES   H36629484   0.122   6.600   5.189  3.4520 -1.0609 -0.3540
   70RES   H36729485   0.209   6.728   5.112 -0.7800 -1.4102 -1.8579
   70RES   H36829486   7.710   6.742   5.320  0.9255 -0.6675  0.2413
   70RES   H36929487   0.006   6.999   5.312 -0.2719 -1.7009  1.1041
   70RES   H37029488   0.126   6.915   5.397  1.6629  2.0649 -0.0341
   70RES   H37129489   0.292   6.960   5.202 -0.8723 -0.5465 -1.0054
   70RES   H37229490   0.159   6.997   5.093  2.4294 -0.1725 -1.9934
   70RES   H37329491   0.096   7.196   5.206 -0.8000 -0.3808 -0.2882
   70RES   H37429492   0.217   7.170   5.339 -1.7773  0.6171 -0.1063
   70RES   H37529493   0.387   7.186   5.154  0.4056 -0.8619 -2.8438
   70RES   H37629494   0.248   7.219   5.043  1.3115  0.7710 -0.7687
   70RES   H37729495   0.189   7.423   5.096  1.1535 -0.5966 -1.2542
   70RES   H37829496   0.255   7.416   5.255  3.0007 -2.3914  2.0415
   70RES   H37929497   0.359   7.438   5.120  0.1857  0.0506  1.6556
   70RES   C38029498   7.686   6.798   5.114  0.0260  0.2453 -0.5551
   70RES   C38129499   7.538   6.842   5.125 -0.0491  0.2311  0.7957
   70RES   C38229500   7.509   6.930   5.005  0.4810 -0.6504 -0.5638
   70RES   C38329501   7.587   7.057   5.002  0.3756 -0.1305 -0.1924
   70RES   C38429502   7.511   7.147   4.902  0.2503 -0.2635 -0.6671
   70RES   C38529503   7.571   7.291   4.899  0.3548  0.2024  0.4469
   70RES   C38629504   7.544   7.383   5.024 -0.6141 -0.0757 -0.4748
   70RES   H38729505   0.019   6.847   5.037  2.0208 -0.9275  0.2137
   70RES   H38829506   7.672   6.705   5.059  0.7752  0.3485 -0.9291
   70RES   H38929507   7.524   6.908   5.211 -1.3669  2.1963 -0.8619
   70RES   H39029508   7.402   6.945   5.007  0.5252 -0.3144 -0.7156
   70RES   H39129509   7.534   6.874   4.915 -2.7480 -2.2482 -0.5089
   70RES   H39229510   7.594   7.086   5.107 -2.2161 -0.3542  0.0858
   70RES   H39329511   7.688   7.041   4.964  0.1168 -1.8222 -0.2124
   70RES   H39429512   7.509   7.116   4.798 -1.7280  2.3182 -1.4468
   70RES   H39529513   7.409   7.149   4.940  0.6183  1.3469  0.3090
   70RES   H39629514   7.535   7.333   4.805 -0.3473 -1.4511 -0.0583
   70RES   H39729515   7.679   7.289   4.886  0.1457  0.7593 -1.4920
   70RES   H39829516   7.563   7.332   5.118 -2.3312  1.9305  1.0074
   70RES   H39929517   7.442   7.421   5.015 -0.3134  1.1767  1.2076
   70RES   H40029518   7.617   7.464   5.018 -0.8140 -0.0581 -3.2985
   70RES   C40129519   7.446   6.715   5.135  0.0476 -0.6921 -0.7051
   70RES   C40229520   7.316   6.749   5.213 -0.3879  0.6426  0.0135
   70RES   C40329521   7.253   6.616   5.263  0.2494  0.6017  0.4393
   70RES   C40429522   7.198   6.526   5.147 -0.4731 -0.2128  0.6906
   70RES   C40529523   7.114   6.583   5.031 -0.0570  0.3050  0.4322
   70RES   C40629524   6.976   6.640   5.073  0.1384  0.1318 -0.4393
   70RES   C40729525   6.898   6.702   4.963 -0.3408  0.4301  0.1683
   70RES   H40829526   7.495   6.634   5.189 -0.0128  0.3136  0.9223
   70RES   H40929527   7.426   6.672   5.037 -1.3100  0.8521 -1.1440
   70RES   H41029528   7.253   6.815   5.154 -1.0592  1.7502  1.9351
   70RES   H41129529   7.172   6.633   5.334 -0.3497  2.1115 -0.5981
   70RES   H41229530   7.326   6.556   5.316 -2.2778 -0.9652  2.2831
   70RES   H41329531   7.145   6.445   5.197  1.6165 -1.0072  1.6919
   70RES   H41429532   7.276   6.474   5.092  0.4354  1.3459  0.4569
   70RES   H41529533   7.168   6.670   4.994 -0.9903  2.3682  3.6447
   70RES   H41629534   7.102   6.508   4.953 -0.1824  1.0149 -0.2397
   70RES   H41729535   6.920   6.564   5.127 -0.7856  1.5341  0.6025
   70RES   H41829536   6.996   6.727   5.135  3.6765 -0.2445 -0.9485
   70RES   H41929537   6.963   6.751   4.891  0.3314 -1.2189 -0.3879
   70RES   H42029538   6.828   6.776   5.000 -0.5436  0.2635  0.1190
   70RES   H42129539   6.847   6.623   4.907  0.4068  0.1585 -0.1512
   70RES   H42229540   7.334   6.814   5.299  1.0028  1.2114 -0.6888
   71RES     C129541   6.041   6.556   0.244 -0.1045 -0.1536 -0.8340
   71RES     C229542   5.900   6.591   0.192 -0.0905 -0.0872  0.2721
   71RES     C329543   5.837   6.475   0.107  0.7702 -0.1458  1.0115
   71RES     C429544   5.680   6.481   0.103 -0.7020  0.1369  0.3386
   71RES     C529545   5.612   6.456   0.232 -0.2541 -0.3024  0.1059
   71RES     C629546   5.464   6.441   0.213 -0.4137  0.2415 -0.1597
   71RES     C729547   5.402   6.401   0.354 -0.9014  0.7090  0.2838
   71RES     H829548   6.073   6.632   0.315 -1.9636  0.2612 -0.4038
   71RES     H929549   6.117   6.552   0.166  0.5613 -0.4265 -0.1787
   71RES    H1029550   5.839   6.606   0.281 -0.7354 -3.6422  0.5207
   71RES    H1129551   5.886   6.470   0.010 -1.7038  1.0768 -0.3396
   71RES    H1229552   5.861   6.377   0.149 -0.2214  0.2217  2.4594
   71RES    H1329553   5.662   6.582   0.065 -1.3216  0.6522  1.9489
   71RES    H1429554   5.656   6.401   0.032 -0.6760  0.1135  0.3564
   71RES    H1529555   5.635   6.540   0.297 -1.0496  0.0262 -0.0217
   71RES    H1629556   5.646   6.365   0.282  3.0179  1.5465  1.3240
   71RES    H1729557   5.433   6.365   0.141  1.6624 -0.0315 -0.7857
   71RES    H1829558   5.408   6.528   0.179  0.2746 -0.1345 -2.3571
   71RES    H1929559   5.430   6.309   0.406 -0.6834 -0.2742 -1.5439
   71RES    H2029560   5.295   6.400   0.335 -1.2433  2.2381  2.0351
   71RES    H2129561   5.422   6.471   0.435  1.6222 -0.8256  1.0436
   71RES    H2229562   6.037   6.467   0.307  0.7319 -0.0155 -0.5810
   71RES    C2329563   5.899   6.726   0.117  0.5054 -0.0789 -0.5811
   71RES    C2429564   5.795   6.826   0.163  0.8154 -0.7406 -0.5343
   71RES    C2529565   5.788   6.936   0.057 -0.3610  0.9812  0.8693
   71RES    C2629566   5.683   6.899   7.668 -0.0033  0.1461  0.4024
   71RES    C2729567   5.690   7.002   7.557  0.7120  0.0233 -0.5672
   71RES    C2829568   5.609   6.966   7.433 -0.4109  0.1270  0.2997
   71RES    C2929569   5.617   7.069   7.316 -0.6742 -0.3373  0.0523
   71RES    H3029570   5.997   6.772   0.102  0.9383 -0.3659  1.2487
   71RES    H3129571   5.878   6.700   0.013  0.8786  0.3492 -0.7670
   71RES    H3229572   5.698   6.779   0.178  1.9038 -2.5489  1.0083
   71RES    H3329573   5.888   6.957   0.021 -1.0103  1.5052 -0.6651
   71RES    H3429574   5.742   7.023   0.105 -0.9854  2.3779 -2.1522
   71RES    H3529575   5.580   6.905   7.703 -0.5833  0.7054 -1.3508
   71RES    H3629576   5.690   6.796   7.633 -0.8493  0.5495 -1.0134
   71RES    H3729577   5.791   6.980   7.524  0.6544 -0.3470 -0.5081
   71RES    H3829578   5.654   7.097   7.596 -1.8816 -2.0495  2.4608
   71RES    H3929579   5.505   6.959   7.467  0.0207 -2.2218  1.2420
   71RES    H4029580   5.636   6.865   7.401 -2.9507  0.2904 -2.6351
   71RES    H4129581   5.558   7.025   7.236  1.9291 -0.9428 -1.5785
   71RES    H4229582   5.582   7.169   7.342  2.5167  0.2592  2.3855
   71RES    H4329583   5.723   7.064   7.289 -0.5616 -0.7859  0.5806
   71RES    C4429584   5.839   6.889   0.297  0.0505 -0.2242 -0.1614
   71RES    C4529585   5.727   6.970   0.383 -0.4061 -0.2102 -0.0757
   71RES    C4629586   5.594   6.898   0.408 -0.0291 -0.0948  0.2767
   71RES    C4729587   5.484   6.934   0.303 -0.2791  0.4983  0.6830
   71RES    C4829588   5.359   6.840   0.325 -0.6860 -0.3177 -0.2119
   71RES    C4929589   5.247   6.851   0.220 -0.1935 -0.4536  0.0153
   71RES    C5029590   5.159   6.970   0.241  0.2694 -0.0458 -0.6296
   71RES    H5129591   5.921   6.956   0.271  0.6520 -1.1507 -0.6302
   71RES    H5229592   5.875   6.805   0.356 -1.1931 -0.4183  0.3399
   71RES    H5329593   5.707   7.060   0.325  0.0053  0.9342  1.4955
   71RES    H5429594   5.556   6.907   0.509  1.5319 -1.2253  0.9874
   71RES    H5529595   5.623   6.793   0.398  0.0501  0.1488 -2.6413
   71RES    H5629596   5.461   7.040   0.308  0.6009  0.6502  1.5598
   71RES    H5729597   5.522   6.934   0.201 -0.6499 -2.4025  0.4801
   71RES    H5829598   5.324   6.862   0.425  1.0248 -1.2682  0.6240
   71RES    H5929599   5.392   6.737   0.334  0.4114  0.0617  0.3486
   71RES    H6029600   5.184   6.762   0.209  0.5212 -0.7384 -2.0911
   71RES    H6129601   5.288   6.866   0.120 -0.4627  0.2721  0.0160
   71RES    H6229602   5.218   7.059   0.265  1.8655 -1.1127 -0.5087
   71RES    H6329603   5.106   6.948   0.333  0.3527  3.3170  0.3048
   71RES    H6429604   5.082   6.988   0.166 -1.6714 -0.1606  1.3000
   71RES    C6529605   5.791   7.013   0.517 -0.0181 -0.3635 -0.4028
   71RES    C6629606   5.893   7.126   0.509  0.1032  0.1358  0.4020
   71RES    C6729607   5.976   7.126   0.642  0.2259  0.5378  0.1333
   71RES    C6829608   6.065   7.006   0.671  0.2420 -0.2098 -0.0308
   71RES    C6929609   6.151   7.026   0.794 -0.0268  0.0209 -0.8346
   71RES    C7029610   6.221   6.890   0.829 -0.8155 -0.1200  0.6497
   71RES    C7129611   6.141   6.781   0.905 -0.1296 -0.2261 -0.3811
   71RES    H7229612   5.709   7.049   0.579  0.0612 -1.5650  0.4138
   71RES    H7329613   5.830   6.927   0.571 -1.0213  0.0271  0.9601
   71RES    H7429614   5.947   7.116   0.415 -2.4746 -0.0857 -1.1073
   71RES    H7529615   6.032   7.220   0.646 -0.7762  1.0967  1.3709
   71RES    H7629616   5.893   7.130   0.713 -0.7964 -0.4650 -0.9699
   71RES    H7729617   6.017   6.911   0.690  0.5270 -0.0488  1.5815
   71RES    H7829618   6.130   6.989   0.586 -1.1019  0.8810 -1.3158
   71RES    H7929619   6.224   7.106   0.782 -0.5307  0.9942  2.0342
   71RES    H8029620   6.081   7.065   0.868  0.1221  0.2899 -0.8375
   71RES    H8129621   6.304   6.922   0.894 -0.2660 -3.1416  1.5101
   71RES    H8229622   6.264   6.845   0.740  0.1530  3.3096 -0.6961
   71RES    H8329623   6.179   6.679   0.916 -3.9364 -1.4519  2.5361
   71RES    H8429624   6.118   6.808   1.008  0.4526  1.9088 -0.7854
   71RES    H8529625   6.044   6.766   0.858 -0.7843 -2.0557  1.4669
   71RES    C8629626   5.823   7.265   0.486  0.7512 -0.2391  0.4001
   71RES    C8729627   5.917   7.397   0.467  0.4365  0.5611 -0.4573
   71RES    C8829628   5.916   7.424   0.316  0.5701 -0.8277  0.2803
   71RES    C8929629   5.970   7.316   0.224  0.2221  0.8443  1.1044
   71RES    C9029630   5.974   7.349   0.077 -0.2772 -0.5366  0.3910
   71RES    C9129631   5.991   7.222   7.713 -0.8019 -0.4994 -0.0789
   71RES    C9229632   6.059   7.247   7.576 -0.5606 -0.5075 -0.3656
   71RES    H9329633   5.761   7.263   0.396  1.2580 -1.9607  0.0766
   71RES    H9429634   5.741   7.272   0.558  0.3984 -1.7167  0.1548
   71RES    H9529635   6.021   7.384   0.500 -0.2799  0.0020  1.6731
   71RES    H9629636   5.824   7.464   0.274  0.6784 -2.1239 -1.2199
   71RES    H9729637   5.990   7.503   0.305 -1.0142  0.5369 -0.6821
   71RES    H9829638   6.066   7.284   0.265  0.5121  1.7490  1.1493
   71RES    H9929639   5.907   7.227   0.229  0.6544  0.5047  0.5273
   71RES   H10029640   6.056   7.413   0.048 -0.0384 -0.2808  1.6022
   71RES   H10129641   5.890   7.403   0.033  0.7420 -0.6322 -1.7214
   71RES   H10229642   6.049   7.144   0.036 -1.6407 -1.3051 -0.3528
   71RES   H10329643   5.889   7.186   7.712 -0.4853 -1.3672 -2.4206
   71RES   H10429644   6.000   7.309   7.508  1.5176  1.6294 -0.2712
   71RES   H10529645   6.088   7.156   7.523  0.2794  0.0236 -0.8256
   71RES   H10629646   6.152   7.300   7.595 -0.3604 -1.5208  1.6063
   71RES   C10729647   5.868   7.519   0.550  0.1836  0.8303 -0.4540
   71RES   C10829648   5.876   7.509   0.700 -0.5850 -0.2877 -0.2837
   71RES   C10929649   6.023   7.536   0.743 -1.0534  0.3966  0.0003
   71RES   C11029650   6.037   7.474   0.880 -0.0451 -0.3579 -0.1131
   71RES   C11129651   6.175   7.480   0.947  0.0875  0.0336 -0.4849
   71RES   C11229652   6.267   7.374   0.895 -0.0566 -0.8957 -0.3957
   71RES   C11329653   6.320   7.400   0.758  0.0446 -0.3818 -0.1041
   71RES   H11429654   5.760   7.528   0.538  0.1781 -0.4563 -1.5380
   71RES   H11529655   5.919   7.611   0.522  0.2514  0.6155 -1.0505
   71RES   H11629656   5.853   7.404   0.716 -0.6634 -0.0723  1.0504
   71RES   H11729657   6.042   7.643   0.754 -2.6435  0.8803 -1.8663
   71RES   H11829658   6.085   7.504   0.660 -0.2478 -0.5207  0.9316
   71RES   H11929659   5.969   7.518   0.954  0.0379 -1.2547  0.5056
   71RES   H12029660   6.004   7.371   0.885  0.1529 -0.4950 -1.5886
   71RES   H12129661   6.146   7.473   1.052  1.2601 -1.5073 -0.2414
   71RES   H12229662   6.225   7.573   0.921  1.2369 -0.8682 -1.6223
   71RES   H12329663   6.357   7.366   0.955 -1.2589  2.3447  2.0054
   71RES   H12429664   6.207   7.285   0.911 -0.4420 -0.6657 -0.5451
   71RES   H12529665   6.359   7.500   0.744  1.1052 -0.9150 -1.0346
   71RES   H12629666   6.393   7.321   0.741 -1.0731 -1.8836  1.7951
   71RES   H12729667   6.249   7.369   0.681 -1.3637  1.3607  0.4704
   71RES   C12829668   5.769   7.607   0.765 -0.5246  0.1169 -0.0235
   71RES   C12929669   5.623   7.569   0.776  0.7382  0.0500  0.5766
   71RES   C13029670   5.535   7.691   0.803  0.5539 -1.4504 -0.0129
   71RES   C13129671   5.553   0.043   0.944  0.4006 -0.1038 -0.1738
   71RES   C13229672   5.453   0.163   0.934  0.2415 -0.6048 -0.0413
   71RES   C13329673   5.490   0.282   1.026  0.1179 -0.0825 -0.4800
   71RES   C13429674   5.410   0.410   1.002 -0.1144 -0.5457 -0.9920
   71RES   H13529675   5.817   7.639   0.857 -0.1596  3.3130 -1.2434
   71RES   H13629676   5.773   7.702   0.711 -2.3019  0.7829  0.9632
   71RES   H13729677   5.593   7.541   0.675 -1.6953 -0.7547  1.4909
   71RES   H13829678   5.431   7.684   0.773  0.2361 -1.1968  1.0138
   71RES   H13929679   5.563   0.038   0.728  0.8894  0.2759  1.7713
   71RES   H14029680   5.659   0.069   0.937  0.5194 -0.6342 -0.3708
   71RES   H14129681   5.541   7.702   1.030  1.4995 -3.1955 -2.3535
   71RES   H14229682   5.353   0.120   0.935  0.4967 -1.2028  0.2035
   71RES   H14329683   5.469   0.208   0.836  1.8777  2.3077  1.4761
   71RES   H14429684   5.596   0.306   1.026 -0.3584  2.1625  0.9837
   71RES   H14529685   5.468   0.255   1.129 -0.0523  0.8577 -0.2637
   71RES   H14629686   5.305   0.389   1.023  0.1404 -0.9447 -0.0995
   71RES   H14729687   5.408   0.438   0.897 -0.1451  0.6093 -0.6813
   71RES   H14829688   5.446   0.490   1.066 -0.8063 -1.2454  0.2958
   71RES   C14929689   5.599   7.438   0.868  0.0228  0.3966  0.3225
   71RES   C15029690   5.476   7.357   0.838 -0.5543 -0.1338  0.8413
   71RES   C15129691   5.446   7.267   0.957 -0.1518  0.3022  0.2295
   71RES   C15229692   5.414   7.335   1.095  0.5573 -0.0563 -0.0234
   71RES   C15329693   5.277   7.406   1.092 -0.3379 -0.2801 -0.6650
   71RES   C15429694   5.218   7.448   1.228 -0.1971 -0.0814  0.1567
   71RES   C15529695   5.303   7.535   1.311 -0.2305  0.5452  0.6972
   71RES   H15629696   5.685   7.372   0.857  0.5618  1.5960 -3.5193
   71RES   H15729697   5.602   7.476   0.970 -0.9289  1.5273 -0.0601
   71RES   H15829698   5.398   7.431   0.821 -0.8918 -0.5555  0.5618
   71RES   H15929699   5.358   7.208   0.932 -1.2327  1.6642  0.7998
   71RES   H16029700   5.531   7.201   0.978  0.4359  0.7829 -0.6045
   71RES   H16129701   5.484   7.412   1.129  0.7342 -0.6526  0.9775
   71RES   H16229702   5.421   7.258   1.172 -0.7548 -1.1980 -1.0223
   71RES   H16329703   5.212   7.328   1.055 -0.9959 -0.5651  1.0551
   71RES   H16429704   5.276   7.485   1.016 -1.7947 -0.8723 -1.2682
   71RES   H16529705   5.163   7.369   1.278 -0.5153  0.3856  0.5563
   71RES   H16629706   5.132   7.511   1.202  0.1183  0.2974  0.0217
   71RES   H16729707   5.364   7.606   1.255 -0.0280  0.0831  0.3253
   71RES   H16829708   5.362   7.467   1.373  0.9838 -1.9758 -3.0486
   71RES   H16929709   5.234   7.586   1.378 -0.7182  1.6697 -0.6606
   71RES   C17029710   5.488   7.276   0.709  0.0243  0.1005  0.1885
   71RES   C17129711   5.347   7.236   0.670  0.4759  0.1977  0.7730
   71RES   C17229712   5.318   7.293   0.530 -0.5240  0.7492  0.2936
   71RES   C17329713   5.272   7.434   0.535  0.2020  0.5688 -0.4453
   71RES   C17429714   5.223   7.491   0.399 -0.0989 -0.3657 -0.1256
   71RES   C17529715   5.337   7.529   0.305 -0.3351 -0.5556 -0.4061
   71RES   C17629716   5.435   7.633   0.355 -0.3009 -0.7268 -0.0586
   71RES   H17729717   5.553   7.189   0.716  0.0333  0.0344 -0.6685
   71RES   H17829718   5.529   7.338   0.629 -1.2162  0.0664 -0.4920
   71RES   H17929719   5.270   7.284   0.731 -1.6015  0.1879 -1.8066
   71RES   H18029720   5.251   7.224   0.478  2.2560 -0.5462 -1.7372
   71RES   H18129721   5.405   7.282   0.465 -0.7549  1.9685 -0.2312
   71RES   H18229722   5.360   7.487   0.571 -0.2125  1.3887 -0.6460
   71RES   H18329723   5.195   7.452   0.610  0.7457  1.2490 -0.0393
   71RES   H18429724   5.145   7.563   0.424  0.5542  0.6219 -0.9039
   71RES   H18529725   5.159   7.417   0.350  0.6603 -2.2387  1.5832
   71RES   H18629726   5.290   7.588   0.226 -0.7982 -0.0487  0.2432
   71RES   H18729727   5.397   7.445   0.271  0.4901  0.1155 -0.6574
   71RES   H18829728   5.504   7.676   0.283 -1.4038  0.1354 -0.6084
   71RES   H18929729   5.490   7.584   0.436 -0.8904 -0.8371  0.2801
   71RES   H19029730   5.381   7.713   0.406  2.5002  1.8652 -0.9861
   71RES   C19129731   5.330   7.084   0.681  0.2356  0.1873  0.7702
   71RES   C19229732   5.200   7.014   0.641  0.7174 -0.4085  0.3156
   71RES   C19329733   5.215   6.868   0.689 -0.2942  0.0776 -0.0190
   71RES   C19429734   5.120   6.758   0.649  0.5536  0.0291  0.3852
   71RES   C19529735   5.108   6.638   0.747  0.3344  0.0008  0.1237
   71RES   C19629736   5.228   6.539   0.749 -0.2634  0.1928  0.0240
   71RES   C19729737   5.196   6.396   0.799 -0.0884 -0.2291  0.3075
   71RES   H19829738   5.354   7.060   0.784  0.7786 -0.1040  0.5786
   71RES   H19929739   5.411   7.047   0.618 -0.0973 -0.8351  0.9336
   71RES   H20029740   5.193   7.009   0.532  1.5866 -2.0922  0.3233
   71RES   H20129741   5.226   6.875   0.797 -0.7400  0.5371 -0.0004
   71RES   H20229742   5.309   6.832   0.646 -0.8476 -1.2112 -0.1692
   71RES   H20329743   5.152   6.722   0.552 -2.0392 -1.6401  0.1028
   71RES   H20429744   5.018   6.790   0.631  1.0295  1.4853  0.2014
   71RES   H20529745   5.083   6.666   0.849 -0.5879  0.6077 -0.2598
   71RES   H20629746   5.021   6.576   0.723  0.0721  0.0943  0.8267
   71RES   H20729747   5.307   6.590   0.804 -0.7388  0.4585  0.4709
   71RES   H20829748   5.262   6.527   0.647  0.3227 -1.6764  0.4232
   71RES   H20929749   5.118   6.369   0.728  0.1582  0.4166 -0.2183
   71RES   H21029750   5.163   6.407   0.902  0.3431 -0.4986  0.4769
   71RES   H21129751   5.279   6.325   0.789  0.8875  0.9303  0.0054
   71RES   C21229752   5.078   7.081   0.710 -0.0020 -0.2710  1.2265
   71RES   C21329753   5.003   7.187   0.644 -0.5058 -0.6110  0.4101
   71RES   C21429754   4.936   7.142   0.506  0.1880 -0.2599  0.3381
   71RES   C21529755   4.940   7.237   0.390  0.0245  0.1493 -0.0402
   71RES   C21629756   4.856   7.178   0.278  0.0677  0.4638  0.3965
   71RES   C21729757   4.834   7.266   0.153 -0.0128 -0.2347 -0.4448
   71RES   C21829758   4.936   7.239   0.043 -0.2808 -0.0477 -0.1410
   71RES   H21929759   5.100   7.107   0.813  0.5460  1.9985  0.5721
   71RES   H22029760   5.007   6.998   0.714  0.5219 -0.7615  0.3862
   71RES   H22129761   5.053   7.282   0.623 -1.1228 -1.0871 -3.8224
   71RES   H22229762   4.988   7.048   0.493 -0.7849 -0.4674 -2.5569
   71RES   H22329763   4.835   7.103   0.524  0.3292 -1.0516 -0.5438
   71RES   H22429764   5.039   7.239   0.343  0.3080  1.5815  0.5926
   71RES   H22529765   4.918   7.339   0.420 -2.4780 -0.5232  0.4764
   71RES   H22629766   4.880   7.076   0.250 -0.5443 -0.2776  2.5505
   71RES   H22729767   4.761   7.160   0.326 -0.2960 -0.2715 -0.5934
   71RES   H22829768   4.733   7.268   0.112 -0.6434  1.5511  1.1148
   71RES   H22929769   4.856   7.368   0.185  2.0163 -0.5668 -0.6877
   71RES   H23029770   4.922   7.302   7.682 -0.3589 -1.1094 -0.9009
   71RES   H23129771   4.934   7.133   0.016  1.3132  0.0387 -0.6270
   71RES   H23229772   5.034   7.269   0.080 -0.5255 -0.0105  0.4944
   71RES   C23329773   4.887   7.226   0.736  0.1356  0.3204  0.5023
   71RES   C23429774   4.916   7.315   0.857  0.2399  0.2669  0.6757
   71RES   C23529775   4.925   7.470   0.810  0.3958  0.3298 -0.2881
   71RES   C23629776   4.964   7.571   0.918  0.7057 -0.0327 -0.8791
   71RES   C23729777   5.020   7.711   0.867  0.0634  0.5869 -0.4507
   71RES   C23829778   5.030   0.079   0.987  0.5971  1.1746 -0.4531
   71RES   C23929779   5.088   0.220   0.950  0.0728 -0.3507 -0.2493
   71RES   H24029780   4.840   7.133   0.766  1.6358 -0.7189 -0.3043
   71RES   H24129781   4.805   7.273   0.683 -0.2593 -1.5852 -0.6064
   71RES   H24229782   5.013   7.283   0.896  1.3645  0.3570 -1.9359
   71RES   H24329783   4.833   7.503   0.762  0.0761 -0.8737 -0.5186
   71RES   H24429784   4.991   7.471   0.723 -1.8714  0.1657 -2.0861
   71RES   H24529785   5.042   7.530   0.982 -0.7230  0.0713  0.9864
   71RES   H24629786   4.877   7.575   0.984  2.4378  0.0130  1.4625
   71RES   H24729787   4.947   0.026   0.797 -1.4771  0.7952  1.2227
   71RES   H24829788   5.115   7.678   0.826  0.8243 -2.0332  3.1451
   71RES   H24929789   4.927   0.096   1.020  0.2158 -1.6898 -0.0845
   71RES   H25029790   5.082   0.038   1.073  2.1502  0.6638 -1.6219
   71RES   H25129791   5.101   0.272   1.044 -2.4337  1.2723 -0.7529
   71RES   H25229792   5.181   0.220   0.892  0.7840  0.6919  0.8751
   71RES   H25329793   5.021   0.269   0.880  1.5874  0.0525 -1.4543
   71RES   C25429794   4.806   7.288   0.969  0.9720  0.5819 -0.4404
   71RES   C25529795   4.847   7.311   1.117 -0.2037  0.2975  0.5354
   71RES   C25629796   4.935   7.195   1.174 -0.2657  0.5942  0.1671
   71RES   C25729797   4.874   7.066   1.208 -0.0158 -0.8574  0.5899
   71RES   C25829798   4.977   6.963   1.259  0.2142  0.3703  0.5394
   71RES   C25929799   5.065   6.903   1.146 -0.5114 -0.6329 -0.1737
   71RES   C26029800   5.166   6.803   1.215 -0.0243 -0.6674  0.2878
   71RES   H26129801   4.768   7.186   0.971  1.7357  0.2768 -0.9764
   71RES   H26229802   4.719   7.352   0.955 -0.3740 -0.6368  2.0420
   71RES   H26329803   4.919   7.391   1.127 -0.0471  0.1116  0.9018
   71RES   H26429804   4.993   7.222   1.262  0.8459 -1.2299  0.0337
   71RES   H26529805   5.014   7.187   1.099 -1.4123  0.5737 -1.0487
   71RES   H26629806   4.791   7.071   1.278 -1.3050 -0.2452 -0.9427
   71RES   H26729807   4.820   7.024   1.122 -3.1815  2.1616  0.9944
   71RES   H26829808   4.914   6.882   1.296  0.6016  0.3068  1.0706
   71RES   H26929809   5.026   6.995   1.351  0.3121 -1.2476  1.0723
   71RES   H27029810   5.010   6.863   1.061 -1.2641 -1.2374  0.5932
   71RES   H27129811   5.116   6.986   1.096  3.2115 -1.5052  1.9696
   71RES   H27229812   5.219   6.743   1.141  0.9419 -1.5840  1.6955
   71RES   H27329813   5.236   6.864   1.273 -1.4923  0.0420  1.3280
   71RES   H27429814   5.129   6.741   1.296  0.7476  0.2880  1.3847
   71RES   C27529815   4.725   7.335   1.212  0.3185 -0.7084  0.4422
   71RES   C27629816   4.680   7.485   1.209  0.1751 -0.3885  0.0681
   71RES   C27729817   4.775   7.578   1.285  0.8778 -0.1301 -0.1617
   71RES   C27829818   4.769   7.575   1.436  0.5809  0.4025  0.4575
   71RES   C27929819   4.833   7.704   1.500  0.0818 -1.0986 -0.1390
   71RES   C28029820   4.822   7.707   1.654  0.0727  0.2648 -0.1301
   71RES   C28129821   4.893   0.095   1.728 -0.4860  0.0981  0.6273
   71RES   H28229822   4.753   7.312   1.314  0.3037 -2.0474  0.1522
   71RES   H28329823   4.643   7.267   1.191 -2.4058  1.6618  2.9821
   71RES   H28429824   4.699   7.510   1.105  2.1357 -1.0167  0.2552
   71RES   H28529825   4.875   7.546   1.258  1.5630  0.7537  1.3167
   71RES   H28629826   4.763   7.683   1.260  1.6828  0.4750  1.8897
   71RES   H28729827   4.827   7.499   1.488 -0.4485 -0.5820  0.1767
   71RES   H28829828   4.669   7.554   1.474 -0.1244  0.1681 -1.4901
   71RES   H28929829   4.801   0.069   1.450  0.0276 -0.6966  0.6223
   71RES   H29029830   4.937   7.704   1.467  0.2136 -2.0931  0.2589
   71RES   H29129831   4.715   7.708   1.676 -0.6001  1.4140 -3.2601
   71RES   H29229832   4.860   7.615   1.699  0.0209  0.2061 -0.2070
   71RES   H29329833   5.002   0.087   1.724 -0.5909 -0.9598 -0.6516
   71RES   H29429834   4.870   0.097   1.834  0.3763  1.0624  0.8076
   71RES   H29529835   4.869   0.196   1.694  1.9395  0.3471 -0.4706
   71RES   C29629836   4.524   7.525   1.233 -0.5752  0.3738  0.1055
   71RES   C29729837   4.430   7.492   1.111 -0.1412 -0.5208 -0.0736
   71RES   C29829838   4.464   7.596   0.999 -0.0663 -0.0390 -0.2211
   71RES   C29929839   4.392   7.573   0.866 -0.1782 -0.0179 -0.2760
   71RES   C30029840   4.482   7.538   0.747 -0.2896 -0.0664  0.0055
   71RES   C30129841   4.407   7.500   0.626  0.0207 -0.2424  0.6996
   71RES   C30229842   4.345   7.622   0.554  0.3991  0.8860 -0.5984
   71RES   H30329843   4.490   7.472   1.322  2.5107  2.1896  2.4835
   71RES   H30429844   4.517   7.631   1.258 -1.0594 -0.1745  2.4465
   71RES   H30529845   4.451   7.392   1.074  2.3640 -0.2521  0.5274
   71RES   H30629846   4.433   7.693   1.039  1.2122  0.5975 -0.7179
   71RES   H30729847   4.571   7.599   0.979 -0.5555  0.2772 -3.0399
   71RES   H30829848   4.349   7.670   0.842  2.9988  0.9974 -2.2558
   71RES   H30929849   4.310   7.502   0.878 -0.8574  0.9625  1.0118
   71RES   H31029850   4.549   7.459   0.780  1.7331  0.9878 -1.5171
   71RES   H31129851   4.537   7.629   0.727 -0.6747 -0.2291 -1.8378
   71RES   H31229852   4.467   7.454   0.547  0.6202  0.2682  0.8539
   71RES   H31329853   4.329   7.424   0.636  0.5223 -1.1757 -1.9783
   71RES   H31429854   4.262   7.668   0.608  0.3117 -0.8711  0.8142
   71RES   H31529855   4.414   7.706   0.551 -0.4518  1.6036 -0.5613
   71RES   H31629856   4.322   7.602   0.449  2.1038 -2.6866 -0.3622
   71RES   C31729857   4.287   7.484   1.158  0.1583  0.3127  0.1822
   71RES   C31829858   4.242   7.408   1.288  0.5957 -0.1488 -0.0428
   71RES   C31929859   4.089   7.406   1.308  0.0873 -0.5648 -0.0685
   71RES   C32029860   4.017   7.540   1.336 -1.1592 -0.6563  0.1523
   71RES   C32129861   3.878   7.531   1.389 -0.5023  0.1695 -0.0509
   71RES   C32229862   3.765   7.482   1.289 -0.0542  0.4773  0.2754
   71RES   C32329863   3.628   7.495   1.351 -0.1177  0.3517  0.0746
   71RES   H32429864   4.228   7.446   1.074  0.4305 -0.5886  0.3909
   71RES   H32529865   4.251   7.585   1.176  1.0940  0.5169  0.9195
   71RES   H32629866   4.279   7.476   1.365  0.8424  0.6019 -0.8184
   71RES   H32729867   4.070   7.348   1.399  1.0330 -0.9439 -0.0955
   71RES   H32829868   4.040   7.365   1.220  0.1530  3.2583 -1.9597
   71RES   H32929869   4.023   7.600   1.245 -1.3331  1.3838  1.4634
   71RES   H33029870   4.072   7.597   1.411 -2.8370  1.1976  0.0047
   71RES   H33129871   3.853   7.629   1.431  1.1051  0.6886 -0.2595
   71RES   H33229872   3.876   7.455   1.467 -0.7621  0.3092  0.0808
   71RES   H33329873   3.779   7.377   1.264  0.2520  0.9116 -1.4756
   71RES   H33429874   3.769   7.543   1.198 -1.1725 -0.1182 -0.1807
   71RES   H33529875   3.602   7.599   1.372 -0.7568  0.4826 -1.2573
   71RES   H33629876   3.625   7.436   1.442 -0.5202  1.8306  1.0402
   71RES   H33729877   3.560   7.460   1.273 -1.0016 -2.3545  1.9827
   71RES   C33829878   4.304   7.273   1.290 -0.0640  0.0777 -0.0947
   71RES   C33929879   4.280   7.163   1.391 -0.9094 -0.1556  0.3927
   71RES   C34029880   4.294   7.206   1.536  0.0541  0.6322 -0.2114
   71RES   C34129881   4.197   7.146   1.638 -0.5406 -0.0198  0.3432
   71RES   C34229882   4.240   7.181   1.779 -0.6807 -0.4405  0.6581
   71RES   C34329883   4.159   7.090   1.868 -0.1968  0.0829 -0.1316
   71RES   C34429884   4.209   7.074   2.006 -0.4218 -0.1146 -0.0650
   71RES   H34529885   4.413   7.283   1.289 -0.1372  1.0364  1.3857
   71RES   H34629886   4.289   7.227   1.192 -0.3917  1.2980 -0.6252
   71RES   H34729887   4.173   7.148   1.382 -1.0895  0.2473  1.6674
   71RES   H34829888   4.394   7.185   1.574  0.1945 -1.5674 -1.6575
   71RES   H34929889   4.279   7.314   1.530  2.9474  1.1468  1.1605
   71RES   H35029890   4.209   7.039   1.623  0.7458  0.2676 -0.8217
   71RES   H35129891   4.094   7.164   1.610 -0.4858  0.6301  0.5308
   71RES   H35229892   4.343   7.149   1.791 -1.1258 -0.9620  3.2865
   71RES   H35329893   4.223   7.288   1.792 -0.5237 -0.2352 -0.7251
   71RES   H35429894   4.057   7.128   1.873 -2.3763 -5.1116 -1.8285
   71RES   H35529895   4.152   6.986   1.837  3.3124 -0.3732  0.4100
   71RES   H35629896   4.136   7.025   2.070  0.8251 -0.1732  1.3179
   71RES   H35729897   4.233   7.175   2.039  0.5538 -1.1933  2.6246
   71RES   H35829898   4.306   7.027   2.014  0.6998  1.8979 -1.3284
   71RES   C35929899   4.369   7.035   1.382 -0.3044  0.4882 -0.2204
   71RES   C36029900   4.310   6.923   1.300 -0.2083  0.5518  0.0698
   71RES   C36129901   4.247   6.966   1.163  1.1090  0.0940  0.2254
   71RES   C36229902   4.350   7.004   1.056  0.1757 -0.2099 -0.3134
   71RES   C36329903   4.287   7.059   0.935  0.8195 -0.5229  0.1051
   71RES   C36429904   4.389   7.075   0.820  0.0620 -0.0539 -0.3461
   71RES   C36529905   4.502   7.175   0.854 -0.3076  0.5945  0.0466
   71RES   H36629906   4.386   6.993   1.481 -2.3261 -0.7362 -0.3758
   71RES   H36729907   4.465   7.064   1.339  0.2392  1.1466  1.4057
   71RES   H36829908   4.224   6.899   1.363  2.0734 -0.6521  2.7988
   71RES   H36929909   4.187   6.883   1.125  2.3195 -1.2195  1.1372
   71RES   H37029910   4.169   7.041   1.172 -0.1162 -1.1681  0.1954
   71RES   H37129911   4.413   7.082   1.098 -1.8598  2.1367 -1.5270
   71RES   H37229912   4.423   6.924   1.044  2.6296  2.1634 -1.6692
   71RES   H37329913   4.203   6.997   0.903  0.4416 -0.3808  0.8080
   71RES   H37429914   4.246   7.156   0.963  2.1738 -0.2850  1.3371
   71RES   H37529915   4.431   6.980   0.788  0.1090  0.3506 -1.5136
   71RES   H37629916   4.332   7.112   0.735  1.5290  1.8577 -0.5468
   71RES   H37729917   4.577   7.187   0.775  1.0385 -1.4075  0.9817
   71RES   H37829918   4.454   7.271   0.874 -1.3845  0.2377 -0.8229
   71RES   H37929919   4.552   7.138   0.944 -0.5890  1.0404  0.3941
   71RES   C38029920   4.398   6.792   1.285  0.5982 -0.1257 -0.2691
   71RES   C38129921   4.396   6.715   1.428 -0.0805 -0.0421  0.8048
   71RES   C38229922   4.317   6.583   1.411  0.9845  0.4199 -0.0799
   71RES   C38329923   4.168   6.607   1.436 -0.2553  0.3413  0.2534
   71RES   C38429924   4.132   6.644   1.579 -0.0383  0.4045  0.2061
   71RES   C38529925   3.979   6.675   1.586  0.3796 -0.0532 -0.2154
   71RES   C38629926   3.919   6.760   1.700  0.2716 -0.1032 -0.7229
   71RES   H38729927   4.367   6.727   1.202 -1.0611  0.4436 -0.1170
   71RES   H38829928   4.499   6.820   1.255  0.5373  0.7582  0.3387
   71RES   H38929929   4.369   6.785   1.506  1.4060  0.5927  0.7665
   71RES   H39029930   4.350   6.505   1.481  0.6022 -0.6550 -1.0843
   71RES   H39129931   4.329   6.544   1.310 -1.2245  1.6318 -0.8450
   71RES   H39229932   4.136   6.690   1.372  0.6645  0.8060  0.3985
   71RES   H39329933   4.107   6.520   1.409 -0.4569 -0.4692  3.2146
   71RES   H39429934   4.154   6.555   1.637  1.2752 -0.2724 -1.3022
   71RES   H39529935   4.192   6.732   1.605 -0.0308  0.8553 -1.2495
   71RES   H39629936   3.913   6.588   1.577 -1.8736  1.6022 -0.0980
   71RES   H39729937   3.956   6.746   1.507  1.2916  0.2534 -0.2130
   71RES   H39829938   3.812   6.768   1.686  0.3220 -0.6705 -1.4767
   71RES   H39929939   3.978   6.851   1.695 -0.0955  0.1221 -0.9302
   71RES   H40029940   3.945   6.714   1.796  0.5332  0.0773 -0.7078
   71RES   C40129941   4.538   6.688   1.491 -0.2471 -0.4398  0.0967
   71RES   C40229942   4.602   6.812   1.549  0.9053  0.2206  0.0694
   71RES   C40329943   4.731   6.782   1.618  0.3079  0.6914  0.2957
   71RES   C40429944   4.788   6.904   1.698 -0.4564 -0.5851 -0.1451
   71RES   C40529945   4.829   7.019   1.622 -0.2088  0.0408  0.5705
   71RES   C40629946   4.859   7.141   1.705  0.4200  0.6034  0.2363
   71RES   C40729947   4.861   7.271   1.628  0.1606  0.6254  0.2070
   71RES   H40829948   4.605   6.644   1.418  0.6068  0.1850  0.4955
   71RES   H40929949   4.531   6.610   1.567  0.4487 -0.5532  0.0405
   71RES   H41029950   4.530   6.860   1.615 -1.2758 -2.2488 -0.4581
   71RES   H41129951   4.805   6.743   1.547 -0.6223 -2.2093  0.8488
   71RES   H41229952   4.723   6.704   1.694 -1.3074 -0.0229 -0.5815
   71RES   H41329953   4.880   6.875   1.748 -0.5597 -0.3301  0.1944
   71RES   H41429954   4.715   6.911   1.779  1.3738  0.7668  1.4285
   71RES   H41529955   4.915   6.997   1.559 -1.1961 -0.7901 -0.5017
   71RES   H41629956   4.741   7.039   1.560  0.5805  1.1271 -0.2259
   71RES   H41729957   4.783   7.158   1.782  1.8687  5.9849  0.7030
   71RES   H41829958   4.957   7.128   1.749  1.0471 -1.9609 -1.8153
   71RES   H41929959   4.939   7.271   1.552  0.3833 -2.4569  0.3636
   71RES   H42029960   4.873   7.354   1.697  1.8250  1.1578 -0.7199
   71RES   H42129961   4.768   7.291   1.574 -1.5827 -1.1706  2.3878
   71RES   H42229962   4.612   6.888   1.471 -0.6059  0.8655  0.4922
   72RES     C129963   5.794   5.322   7.509  0.4566  0.7837 -0.3654
   72RES     C229964   5.735   5.270   7.644 -0.0741 -0.7172  0.3488
   72RES     C329965   5.752   5.378   0.023  0.1399  0.3640 -0.2544
   72RES     C429966   5.651   5.361   0.142  0.3580  0.1043  0.5407
   72RES     C529967   5.675   5.470   0.251  0.6441 -0.3479  0.5353
   72RES     C629968   5.554   5.468   0.355  0.0267 -0.1644 -0.0644
   72RES     C729969   5.432   5.544   0.310  0.4864 -0.0242  0.9739
   72RES     H829970   5.738   5.404   7.465 -1.3538  0.1571  0.7155
   72RES     H929971   5.812   5.259   7.421  1.3934  1.4472 -0.6551
   72RES    H1029972   5.628   5.257   7.631 -0.1445  0.6575 -0.5409
   72RES    H1129973   5.855   5.392   0.057 -1.1768  2.2007  3.2679
   72RES    H1229974   5.729   5.472   7.700  1.3915  0.9723  0.2672
   72RES    H1329975   5.551   5.382   0.106  0.3423  0.0846  0.5725
   72RES    H1429976   5.652   5.259   0.180  0.3979  0.7340  2.2752
   72RES    H1529977   5.674   5.571   0.210 -1.7316 -0.9693 -1.0373
   72RES    H1629978   5.774   5.447   0.292 -0.2052 -1.0956  2.2250
   72RES    H1729979   5.578   5.523   0.447 -1.3070 -2.2710  1.5939
   72RES    H1829980   5.523   5.368   0.386  2.2202 -0.2038  2.2782
   72RES    H1929981   5.351   5.544   0.383 -1.2043  0.5077 -0.8603
   72RES    H2029982   5.389   5.495   0.222  3.7614 -1.8909  0.3289
   72RES    H2129983   5.446   5.649   0.283  0.4954 -1.0120 -3.3257
   72RES    H2229984   5.897   5.356   7.518  2.0163 -2.7966 -3.1950
   72RES    C2329985   5.797   5.140   7.693  0.8156 -0.1853  0.7067
   72RES    C2429986   5.780   5.002   7.611 -0.0774 -0.1973 -0.9265
   72RES    C2529987   5.647   4.924   7.637  0.1657 -0.3706 -0.2741
   72RES    C2629988   5.613   4.820   7.527 -0.5319 -0.5538 -0.4569
   72RES    C2729989   5.476   4.749   7.541 -0.4316  0.6033  0.0090
   72RES    C2829990   5.478   4.649   7.663  0.3473 -0.0914 -0.6668
   72RES    C2929991   5.388   4.525   7.629  0.0864  0.0634  0.3079
   72RES    H3029992   5.904   5.154   7.706  1.1541 -2.3585  0.4338
   72RES    H3129993   5.758   5.112   0.064  1.3602 -3.2269  0.1134
   72RES    H3229994   5.786   5.032   7.507  0.7600  0.7905 -0.6094
   72RES    H3329995   5.563   4.993   7.630  0.2207 -0.2084  0.6264
   72RES    H3429996   5.650   4.874   0.007  2.3352  0.3469  0.0707
   72RES    H3529997   5.690   4.745   7.544  0.1619  0.1103 -0.6078
   72RES    H3629998   5.641   4.854   7.427 -1.1525 -2.4525 -1.3092
   72RES    H3729999   5.475   4.688   7.451  1.2360 -0.7851  0.8822
   72RES    H3830000   5.385   4.807   7.554 -0.5931 -0.1920  2.9762
   72RES    H3930001   5.429   4.690   0.024 -1.0722 -0.4808 -1.2714
   72RES    H4030002   5.572   4.601   7.690 -1.0913 -1.6726  1.6452
   72RES    H4130003   5.436   4.464   7.553  0.4155 -1.6818  1.8838
   72RES    H4230004   5.374   4.457   7.713  2.7253  0.2378  0.9221
   72RES    H4330005   5.285   4.556   7.610 -0.0321 -1.5435 -1.8722
   72RES    C4430006   5.902   4.908   7.634  0.2297 -0.8739  0.2683
   72RES    C4530007   6.039   4.953   7.589 -0.3791  0.7811  0.6822
   72RES    C4630008   6.134   4.957   7.706 -0.3210 -0.3966 -0.3126
   72RES    C4730009   6.273   5.022   7.680 -0.1121 -0.4675  0.2117
   72RES    C4830010   6.270   5.177   7.650 -0.4435  0.0812 -0.1047
   72RES    C4930011   6.412   5.242   7.668  1.0640  0.2091  0.3961
   72RES    C5030012   6.410   5.392   7.650  0.4563  0.4211 -0.0506
   72RES    H5130013   5.870   4.821   7.577 -2.2286  0.2259 -0.1117
   72RES    H5230014   5.913   4.883   0.013  1.6650  0.0098  0.3354
   72RES    H5330015   6.038   5.057   7.556  0.9626  0.5592 -0.1236
   72RES    H5430016   6.145   4.854   0.013  0.1461 -0.9978 -2.2277
   72RES    H5530017   6.089   5.017   0.059 -0.6392 -1.1700  0.0995
   72RES    H5630018   6.324   5.002   0.048  0.7849 -0.5711 -0.2853
   72RES    H5730019   6.324   4.968   7.600 -3.5176  0.2912 -2.5867
   72RES    H5830020   6.200   5.220   7.723 -0.4842  0.0831 -0.1453
   72RES    H5930021   6.233   5.202   7.551  0.1644  2.7233  0.3113
   72RES    H6030022   6.474   5.201   7.588 -0.9428  1.4358 -1.8378
   72RES    H6130023   6.441   5.220   0.044  2.1629  0.3557  0.1279
   72RES    H6230024   6.371   5.406   7.549  0.1112  1.9997  0.2888
   72RES    H6330025   6.508   5.438   7.662 -0.4491  1.7479  2.4937
   72RES    H6430026   6.332   5.437   7.710 -0.7390 -1.2076 -0.3206
   72RES    C6530027   6.091   4.856   7.474 -0.2171  0.2584  0.2129
   72RES    C6630028   6.015   4.850   7.336  1.3587  0.2123  0.2799
   72RES    C6730029   6.105   4.776   7.239  0.0097 -0.5022 -0.0034
   72RES    C6830030   6.141   4.636   7.282  0.8549 -0.0195  0.3570
   72RES    C6930031   6.015   4.550   7.306  0.0366  0.3264  0.6189
   72RES    C7030032   5.911   4.543   7.194  0.0589  0.2344  0.4693
   72RES    C7130033   5.776   4.490   7.249 -0.0830  0.2758  0.0714
   72RES    H7230034   6.195   4.883   7.456  0.8651 -2.2841  2.4262
   72RES    H7330035   6.091   4.760   7.526  2.7253  0.5407  0.8222
   72RES    H7430036   5.924   4.792   7.353  1.3909 -0.6418 -2.2885
   72RES    H7530037   6.054   4.769   7.143 -1.3408  0.6891  0.5990
   72RES    H7630038   6.200   4.820   7.210 -0.9091  1.3086 -0.3827
   72RES    H7730039   6.203   4.594   7.202  0.4858 -0.2588  0.1959
   72RES    H7830040   6.206   4.639   7.369  0.4058  2.5842  0.6262
   72RES    H7930041   6.035   4.447   7.334  0.2247  0.3827  0.6938
   72RES    H8030042   5.975   4.595   7.397 -0.9950  0.8646 -0.0936
   72RES    H8130043   5.940   4.473   7.115  0.0345 -0.3053  0.9297
   72RES    H8230044   5.884   4.637   7.147 -0.4487 -0.9663 -1.7066
   72RES    H8330045   5.733   4.531   7.340 -0.0521 -1.1183  0.7303
   72RES    H8430046   5.701   4.504   7.171 -0.8898  1.9918  1.1282
   72RES    H8530047   5.781   4.385   7.278 -0.4538 -0.0403 -0.9819
   72RES    C8630048   5.988   4.991   7.270 -0.4762  0.1169 -0.0142
   72RES    C8730049   5.885   4.994   7.151 -0.1554 -0.0343 -0.2651
   72RES    C8830050   5.735   4.954   7.186  0.1121  0.2388  0.6377
   72RES    C8930051   5.643   4.944   7.065 -0.3941  0.2317  0.5614
   72RES    C9030052   5.537   4.841   7.078 -0.0015  0.3762  0.4378
   72RES    C9130053   5.456   4.815   6.953 -0.0665  0.4744  0.2396
   72RES    C9230054   5.347   4.703   6.970 -0.0438 -0.1632  0.5889
   72RES    H9330055   5.950   5.059   7.347 -3.2276 -3.4852  1.9721
   72RES    H9430056   6.082   5.041   7.251 -1.4787  2.3666  0.7241
   72RES    H9530057   5.927   4.925   7.078  0.2150  0.1777 -0.2591
   72RES    H9630058   5.743   4.865   7.249 -0.2103 -0.2822 -0.0516
   72RES    H9730059   5.692   5.026   7.255 -1.4495 -0.4629  0.4283
   72RES    H9830060   5.622   5.044   7.028  1.2364  0.8922  1.3917
   72RES    H9930061   5.702   4.902   6.983 -0.8040 -0.3464  0.5517
   72RES   H10030062   5.470   4.859   7.161  1.4977 -2.1268  2.2743
   72RES   H10130063   5.587   4.751   7.115 -1.0784 -0.7663 -0.8266
   72RES   H10230064   5.416   4.904   6.904 -1.2426 -1.4945 -2.4432
   72RES   H10330065   5.533   4.784   6.882 -0.6258  0.0782 -0.1939
   72RES   H10430066   5.298   4.669   6.878 -1.3582  0.9752  0.8507
   72RES   H10530067   5.260   4.747   7.019 -0.1670  0.3502 -0.0762
   72RES   H10630068   5.372   4.611   7.023 -1.3538 -1.3990 -0.8691
   72RES   C10730069   5.891   5.140   7.088 -0.0877  0.2700 -0.1249
   72RES   C10830070   6.026   5.183   7.016 -0.1752 -0.0360  0.2062
   72RES   C10930071   6.090   5.069   6.934  0.5618  0.2558  0.5368
   72RES   C11030072   6.001   5.008   6.816  0.5650  0.1967 -0.1523
   72RES   C11130073   6.034   4.857   6.780 -0.3872  0.0762  0.4141
   72RES   C11230074   5.955   4.790   6.666 -0.6901 -0.7212 -0.2304
   72RES   C11330075   6.001   4.831   6.517  0.1110 -0.2741  0.6144
   72RES   H11430076   5.870   5.212   7.167  3.7541  0.2421  1.0483
   72RES   H11530077   5.807   5.139   7.018 -0.7207  0.0053  0.6359
   72RES   H11630078   6.097   5.201   7.096  0.3736 -0.4465 -0.1891
   72RES   H11730079   6.127   4.998   7.008  1.4373  0.0543 -0.0857
   72RES   H11830080   6.175   5.117   6.886 -1.0411  2.9017  0.2804
   72RES   H11930081   5.897   4.994   6.844  0.4243 -0.0001 -0.7761
   72RES   H12030082   6.001   5.083   6.736 -0.1145  2.1773  1.6635
   72RES   H12130083   6.021   4.786   6.862 -1.5683  1.1325  1.1713
   72RES   H12230084   6.140   4.843   6.759 -0.5900 -1.3726  0.3302
   72RES   H12330085   5.976   4.683   6.676  0.7475 -0.4570 -0.3119
   72RES   H12430086   5.849   4.809   6.681 -0.8007 -0.8906 -0.7700
   72RES   H12530087   5.958   4.772   6.437  4.3235  0.5309 -2.4589
   72RES   H12630088   5.971   4.934   6.497  0.5119 -0.1497  0.6461
   72RES   H12730089   6.109   4.824   6.505  0.2007  1.0613  0.5231
   72RES   C12830090   5.999   5.313   6.928  0.4147 -0.1909  0.3197
   72RES   C12930091   6.127   5.376   6.866 -0.7419  0.2791 -0.0624
   72RES   C13030092   6.223   5.414   6.985  0.0619 -0.0464  0.7564
   72RES   C13130093   6.167   5.483   7.106  0.4459 -0.0974  0.0670
   72RES   C13230094   6.268   5.497   7.226 -0.1424  0.8751  0.0525
   72RES   C13330095   6.387   5.591   7.201 -0.6109  0.2043  0.0181
   72RES   C13430096   6.486   5.592   7.308 -0.1301 -0.3335 -0.1469
   72RES   H13530097   5.940   5.276   6.844  0.6761  0.2923 -0.0785
   72RES   H13630098   5.943   5.391   6.979 -2.0064 -1.4635 -0.3521
   72RES   H13730099   6.187   5.315   6.798 -3.0433 -1.9585 -0.1672
   72RES   H13830100   6.308   5.464   6.939  0.2665  0.4216  1.6311
   72RES   H13930101   6.283   5.327   7.012 -0.7006 -0.6585  0.5012
   72RES   H14030102   6.078   5.432   7.143  0.0594  1.4809  1.3892
   72RES   H14130103   6.144   5.583   7.069 -1.9553 -0.8430 -0.5391
   72RES   H14230104   6.296   5.396   7.253  3.1832  1.7353 -0.0250
   72RES   H14330105   6.222   5.526   7.321 -0.3666  3.6336 -0.8304
   72RES   H14430106   6.359   5.691   7.168 -1.3077  0.5279  1.5718
   72RES   H14530107   6.444   5.549   7.118 -0.3217  0.9422 -0.1638
   72RES   H14630108   6.507   5.493   7.347 -1.5355  0.0896  1.7486
   72RES   H14730109   6.451   5.669   7.377  0.0613 -0.5943  0.2396
   72RES   H14830110   6.587   5.620   7.279  0.9035 -3.2334  0.5505
   72RES   C14930111   6.085   5.505   6.799 -0.3109  0.4106  0.2673
   72RES   C15030112   6.023   5.499   6.659 -0.3077 -0.1625 -1.1034
   72RES   C15130113   6.122   5.439   6.547 -0.3028 -0.2979  0.9071
   72RES   C15230114   6.068   5.406   6.406 -0.5773  0.7059  0.8184
   72RES   C15330115   6.154   5.302   6.325 -0.1784 -0.2596  0.3467
   72RES   C15430116   6.280   5.352   6.255 -0.0881 -0.3057  0.3668
   72RES   C15530117   6.336   5.250   6.151 -0.5230  0.1478  0.4284
   72RES   H15630118   6.012   5.547   6.868 -0.4319  0.0035  0.3869
   72RES   H15730119   6.169   5.573   6.785  0.3787 -0.9400 -2.4694
   72RES   H15830120   5.935   5.435   6.666  0.2964 -0.8890  0.1501
   72RES   H15930121   6.206   5.509   6.543 -0.3986 -0.0870  2.1803
   72RES   H16030122   6.164   5.353   6.600  0.8949 -0.0765  0.3233
   72RES   H16130123   6.055   5.499   6.351  0.9831  0.8166  0.6094
   72RES   H16230124   5.969   5.360   6.416 -0.1307 -0.4107  0.2214
   72RES   H16330125   6.089   5.274   6.242 -0.8468 -0.1363  0.8274
   72RES   H16430126   6.170   5.207   6.376  2.2697 -0.3840 -0.5745
   72RES   H16530127   6.352   5.374   6.334 -0.0637 -1.3606  0.6405
   72RES   H16630128   6.261   5.446   6.203 -1.7032 -1.9623 -2.0928
   72RES   H16730129   6.323   5.149   6.188 -3.1247 -0.6825 -2.5562
   72RES   H16830130   6.441   5.267   6.127 -0.4308  0.3220  0.9645
   72RES   H16930131   6.278   5.266   6.060  0.1160  0.8353  0.1327
   72RES   C17030132   5.979   5.643   6.622  0.5012  0.1113 -0.3546
   72RES   C17130133   5.864   5.708   6.701 -0.0771 -0.5666 -0.1728
   72RES   C17230134   5.865   5.865   6.705 -0.1588  0.2163 -0.5499
   72RES   C17330135   5.834   5.927   6.569  0.3188 -0.4386  0.3863
   72RES   C17430136   5.866   6.084   6.563 -0.4258  0.1250 -0.9385
   72RES   C17530137   5.773   6.154   6.460 -0.0795 -0.7567 -0.0393
   72RES   C17630138   5.823   6.290   6.433 -0.0878  0.1859 -0.0390
   72RES   H17730139   5.954   5.654   6.517  0.4718 -0.7682 -0.4374
   72RES   H17830140   6.070   5.698   6.647  0.2902  1.1038 -1.7133
   72RES   H17930141   5.890   5.677   6.802 -1.1324 -0.2595  0.2043
   72RES   H18030142   5.957   5.908   6.744  0.0219 -0.2098 -0.5034
   72RES   H18130143   5.796   5.877   6.788  2.0798 -0.5743  1.4722
   72RES   H18230144   5.733   5.903   6.538  1.0371 -0.4148 -2.1026
   72RES   H18330145   5.898   5.871   6.501  0.0117 -0.5297  0.1709
   72RES   H18430146   5.968   6.091   6.527 -0.3714 -1.0058 -1.0089
   72RES   H18530147   5.857   6.133   6.660  1.5305 -0.6285 -0.3584
   72RES   H18630148   5.672   6.179   6.494 -0.7403  1.1321 -3.1780
   72RES   H18730149   5.760   6.098   6.367 -1.7384 -0.2565 -0.1344
   72RES   H18830150   5.923   6.293   6.389  0.9890  0.3815  2.3415
   72RES   H18930151   5.831   6.342   6.528 -0.5841 -2.4029  1.4909
   72RES   H19030152   5.750   6.338   6.368 -0.2665  0.0181  0.0369
   72RES   C19130153   5.718   5.647   6.681 -0.3686  0.0618 -0.1852
   72RES   C19230154   5.622   5.643   6.806 -0.3710 -0.4632  0.7095
   72RES   C19330155   5.484   5.670   6.755 -0.4939 -0.4182 -0.4161
   72RES   C19430156   5.442   5.556   6.662  0.0357 -0.3064  0.5572
   72RES   C19530157   5.295   5.564   6.619 -0.0199  0.0099 -0.0903
   72RES   C19630158   5.253   5.455   6.520  0.4303 -0.6744 -0.4760
   72RES   C19730159   5.330   5.471   6.385 -1.0296 -0.6162  0.4715
   72RES   H19830160   5.733   5.553   6.628  3.1713  0.7027 -0.4828
   72RES   H19930161   5.675   5.712   6.605 -1.7185  1.0554  1.4070
   72RES   H20030162   5.646   5.725   6.873  1.2800  2.0357 -2.8178
   72RES   H20130163   5.488   5.766   6.703 -1.6947  0.0839  0.4004
   72RES   H20230164   5.406   5.679   6.831  0.3003 -0.2079  0.3798
   72RES   H20330165   5.447   5.458   6.710  3.2090 -0.6154 -0.3282
   72RES   H20430166   5.493   5.540   6.568 -1.9570 -0.9851 -0.4424
   72RES   H20530167   5.228   5.552   6.704  0.6590 -0.1000  0.4342
   72RES   H20630168   5.265   5.662   6.581 -0.7488  0.4324  1.5408
   72RES   H20730169   5.146   5.461   6.500  0.6491 -1.1596 -1.8991
   72RES   H20830170   5.265   5.354   6.561 -0.2710 -1.0072 -1.0720
   72RES   H20930171   5.258   5.448   6.306 -0.7525  1.8585 -0.5787
   72RES   H21030172   5.417   5.407   6.377  1.2016  2.5083 -1.3706
   72RES   H21130173   5.373   5.570   6.370 -0.2683 -1.5077 -4.1023
   72RES   C21230174   5.652   5.515   6.890 -0.4282  0.8302  0.5403
   72RES   C21330175   5.610   5.540   7.036  0.6295  0.1990 -0.3485
   72RES   C21430176   5.569   5.411   7.112  0.2862  0.2719  0.3767
   72RES   C21530177   5.429   5.370   7.069 -0.0384 -0.1963  0.3243
   72RES   C21630178   5.381   5.233   7.126  0.5016  0.3621 -0.6459
   72RES   C21730179   5.237   5.200   7.093 -0.1990 -0.7673 -0.0902
   72RES   C21830180   5.219   5.195   6.945 -0.3305  0.1968  0.0324
   72RES   H21930181   5.758   5.490   6.892  0.1444  2.9081 -1.6592
   72RES   H22030182   5.599   5.428   6.850  1.7985 -0.0716 -0.5903
   72RES   H22130183   5.524   5.607   7.036  1.7948  1.7147  0.4201
   72RES   H22230184   5.647   5.337   7.093  1.1864  0.7839  1.9475
   72RES   H22330185   5.564   5.424   7.220  2.2503 -1.0262  0.6512
   72RES   H22430186   5.430   5.367   6.960  1.9506  0.3224  0.3137
   72RES   H22530187   5.353   5.446   7.090 -0.3840 -0.2441 -0.7500
   72RES   H22630188   5.446   5.156   7.085 -0.0628  0.4140 -1.6526
   72RES   H22730189   5.399   5.242   7.233  0.5945 -0.1999 -0.6120
   72RES   H22830190   5.203   5.104   7.133  0.9476 -0.8991  0.5986
   72RES   H22930191   5.179   5.286   7.126  2.6988  0.6789  1.4575
   72RES   H23030192   5.114   5.174   6.924 -0.0333 -0.6854 -0.6368
   72RES   H23130193   5.283   5.115   6.907  0.1143  0.8594 -0.6196
   72RES   H23230194   5.248   5.289   6.898  1.4638 -0.6435 -0.6057
   72RES   C23330195   5.728   5.602   7.114 -0.1760  0.5989 -1.4339
   72RES   C23430196   5.703   5.660   7.256 -0.4504 -0.0140  0.6232
   72RES   C23530197   5.846   5.682   7.320 -0.1237  0.7074  0.3925
   72RES   C23630198   5.853   5.725   7.471  0.0753  0.6291 -0.1949
   72RES   C23730199   5.992   5.695   7.536  0.0792  0.6189  0.2782
   72RES   C23830200   5.998   5.737   7.684 -0.1775 -0.4417  0.5041
   72RES   C23930201   6.132   5.705   0.027 -0.2770  0.1506 -0.2985
   72RES   H24030202   5.775   5.680   7.053 -1.8282  1.4011 -1.7165
   72RES   H24130203   5.802   5.522   7.111 -2.0594 -1.2840  0.4334
   72RES   H24230204   5.641   5.587   7.309 -2.2076  1.2897  0.4116
   72RES   H24330205   5.902   5.756   7.261 -0.7859  1.3297  0.5434
   72RES   H24430206   5.907   5.593   7.304 -1.8237 -0.2368 -0.9663
   72RES   H24530207   5.792   5.657   7.531  2.2919 -1.0559  0.2023
   72RES   H24630208   5.816   5.827   7.478 -0.7019  0.1983  2.9179
   72RES   H24730209   6.078   5.745   7.492 -0.8859  1.9536 -0.1391
   72RES   H24830210   6.013   5.589   7.522  1.3083  0.6803  1.5419
   72RES   H24930211   5.976   5.843   7.692 -0.3839 -0.4031 -0.4686
   72RES   H25030212   5.922   5.685   0.015 -0.5093  1.3488  1.7085
   72RES   H25130213   6.122   5.727   0.133  0.9354  0.8217 -0.3128
   72RES   H25230214   6.145   5.596   0.029 -0.0424  0.1885  0.9704
   72RES   H25330215   6.223   5.737   7.702  1.4564 -0.8082  2.0660
   72RES   C25430216   5.609   5.783   7.258  0.5598 -0.2288  0.0662
   72RES   C25530217   5.467   5.753   7.317  0.2610 -0.4720 -0.1122
   72RES   C25630218   5.367   5.851   7.259 -0.2891 -1.3139 -0.3191
   72RES   C25730219   5.334   5.812   7.109  0.3450  0.1631 -0.0768
   72RES   C25830220   5.205   5.879   7.057 -0.5513 -0.3372  0.2168
   72RES   C25930221   5.201   5.901   6.908 -0.7994 -0.4177  0.0680
   72RES   C26030222   5.075   5.974   6.854  0.1795  0.1953 -0.5307
   72RES   H26130223   5.604   5.825   7.157 -1.7811  1.0794  0.6810
   72RES   H26230224   5.649   5.860   7.323 -0.4095 -0.0005  0.4021
   72RES   H26330225   5.434   5.657   7.278  0.1149 -1.0196  1.3132
   72RES   H26430226   5.400   5.954   7.271  0.0852 -1.1282 -2.7704
   72RES   H26530227   5.272   5.841   7.313 -0.0264 -3.5606 -0.2137
   72RES   H26630228   5.412   5.843   7.040 -0.2557  1.9239  0.0111
   72RES   H26730229   5.326   5.705   7.089 -1.0190 -0.4821  3.5327
   72RES   H26830230   5.204   5.981   7.095 -1.7991  0.5422 -2.0169
   72RES   H26930231   5.119   5.826   7.098 -0.7635  0.2627  0.5532
   72RES   H27030232   5.292   5.953   6.877 -1.9581  0.2133 -2.3821
   72RES   H27130233   5.200   5.800   6.867  0.4203 -0.2577 -0.3672
   72RES   H27230234   4.981   5.931   6.890  0.7705 -0.9361 -0.3235
   72RES   H27330235   5.059   6.075   6.894 -2.0783 -0.8772  1.4377
   72RES   H27430236   5.072   5.977   6.745 -1.4936 -1.0394 -0.5374
   72RES   C27530237   5.457   5.751   7.472  0.0644 -0.5897 -0.1296
   72RES   C27630238   5.338   5.669   7.532  0.1317 -0.3715 -0.1091
   72RES   C27730239   5.320   5.708   7.686  0.1220 -0.0766  0.0657
   72RES   C27830240   5.225   5.832   7.691 -0.6832 -0.0021 -0.0206
   72RES   C27930241   5.231   5.916   0.096  0.1498  0.2374  0.0608
   72RES   C28030242   5.145   6.048   0.088 -0.2130  0.4707  0.0023
   72RES   C28130243   5.217   6.152   0.005 -0.6985  0.3189 -0.3736
   72RES   H28230244   5.454   5.856   7.502  3.5485 -0.6236  0.6354
   72RES   H28330245   5.555   5.723   7.513  0.4997  2.2680  0.9625
   72RES   H28430246   5.246   5.709   7.489  1.2206  0.5387 -1.6666
   72RES   H28530247   5.279   5.621   0.010  1.2933 -1.8006 -1.9100
   72RES   H28630248   5.419   5.733   7.726 -0.5001  1.6455  0.6163
   72RES   H28730249   5.120   5.808   7.672 -0.6442  0.2959 -0.6216
   72RES   H28830250   5.264   5.895   7.611 -1.6551 -0.4006 -0.8235
   72RES   H28930251   5.327   5.960   0.123 -0.3523  2.0225 -0.9975
   72RES   H29030252   5.188   5.853   0.174 -0.0292 -0.5773 -0.6923
   72RES   H29130253   5.041   6.033   0.058 -0.8509 -0.1589  2.4071
   72RES   H29230254   5.131   6.088   0.188  0.4717  2.6993 -0.7770
   72RES   H29330255   5.309   6.173   0.058 -1.1993 -2.6082  1.8212
   72RES   H29430256   5.156   6.242   7.723  0.7474  1.2976 -0.4632
   72RES   H29530257   5.233   6.123   7.628 -0.8470  0.8979 -0.5569
   72RES   C29630258   5.344   5.515   7.522 -0.0955 -0.2896  0.6940
   72RES   C29730259   5.201   5.461   7.547 -0.5417  0.1944 -0.0475
   72RES   C29830260   5.200   5.312   7.560 -0.3832 -0.3715 -0.0224
   72RES   C29930261   5.211   5.277   7.709 -0.0606 -0.2051 -0.0184
   72RES   C30030262   5.243   5.128   0.005 -0.1925  0.4158 -0.0002
   72RES   C30130263   5.263   5.095   0.148 -0.6133 -0.2063  0.2834
   72RES   C30230264   5.278   4.942   0.160 -0.3365 -0.1222 -0.2436
   72RES   H30330265   5.389   5.499   7.424  2.8314  0.1145  1.9350
   72RES   H30430266   5.418   5.483   7.595  0.4695 -2.2667 -0.7000
   72RES   H30530267   5.140   5.506   7.625 -0.0379  1.0609 -0.1496
   72RES   H30630268   5.108   5.267   7.523  0.0922  0.8893 -2.8921
   72RES   H30730269   5.277   5.266   7.499  1.1197 -0.3617  1.8254
   72RES   H30830270   5.118   5.318   0.023  0.5231  0.4648  0.6484
   72RES   H30930271   5.289   5.332   0.034  0.7458 -0.3268 -1.0811
   72RES   H31030272   5.337   5.100   7.685 -2.0094 -2.8827 -1.8812
   72RES   H31130273   5.171   5.059   7.688  1.3854 -0.4140 -1.3625
   72RES   H31230274   5.360   5.139   0.171  0.8855 -3.2674  0.0658
   72RES   H31330275   5.180   5.133   0.208 -0.7002  1.7223 -1.0187
   72RES   H31430276   5.360   4.899   0.103  0.0757  0.0453  0.2192
   72RES   H31530277   5.292   4.913   0.264  3.3339 -1.7833 -1.1325
   72RES   H31630278   5.192   4.882   0.129 -0.1182 -0.9986  0.8246
   72RES   C31730279   5.123   5.488   7.417 -0.0690 -0.1334  0.1568
   72RES   C31830280   4.969   5.498   7.434 -0.4861 -0.4128  0.6039
   72RES   C31930281   4.930   5.636   7.485 -0.4141 -0.3798 -0.0829
   72RES   C32030282   4.942   5.754   7.383  0.0197  0.0789  0.2350
   72RES   C32130283   4.886   5.883   7.438 -0.1438  0.4577  0.0687
   72RES   C32230284   4.969   6.007   7.394  0.0988 -0.1658  0.6999
   72RES   C32330285   4.943   6.027   7.243 -0.0185 -0.8733  0.7488
   72RES   H32430286   5.141   5.414   7.339  1.0873 -1.8566  2.0056
   72RES   H32530287   5.146   5.583   7.370  0.5313  0.7264  2.1401
   72RES   H32630288   4.941   5.430   7.515 -0.3570 -1.2012 -0.0081
   72RES   H32730289   4.986   5.652   7.577  0.3894  1.0859 -0.7964
   72RES   H32830290   4.826   5.631   7.518 -0.0409  0.6582  1.2969
   72RES   H32930291   4.890   5.719   7.293 -0.5489  0.5123  0.3933
   72RES   H33030292   5.047   5.761   7.353 -0.3423 -0.2668 -1.1454
   72RES   H33130293   4.869   5.870   7.545 -1.5398  0.4244 -0.1567
   72RES   H33230294   4.785   5.891   7.398  1.8136  0.3929 -5.2950
   72RES   H33330295   5.074   5.991   7.416  0.4575 -0.5156 -1.1339
   72RES   H33430296   4.941   6.098   7.448  1.6696  0.6254  0.1994
   72RES   H33530297   5.025   6.083   7.199 -1.0503  0.4883  0.5507
   72RES   H33630298   4.844   6.064   7.217  1.0727  1.2604 -0.4905
   72RES   H33730299   4.946   5.930   7.194  2.0192 -0.8738  0.8317
   72RES   C33830300   4.884   5.451   7.317 -0.4370  0.6802  0.0830
   72RES   C33930301   4.740   5.405   7.364 -0.3060 -0.4522 -0.5873
   72RES   C34030302   4.733   5.251   7.379  0.1378  0.5497  0.3148
   72RES   C34130303   4.821   5.182   7.481 -0.3501 -0.4955 -1.0819
   72RES   C34230304   4.779   5.198   7.627  0.7350  0.2304 -0.8322
   72RES   C34330305   4.851   5.097   7.712 -0.5625 -0.0357 -0.9603
   72RES   C34430306   4.825   5.097   0.131  0.0532  0.0537 -0.1020
   72RES   H34530307   4.932   5.371   7.261 -1.3696  2.0044 -2.7454
   72RES   H34630308   4.876   5.521   7.233 -2.0334  1.7835  1.1323
   72RES   H34730309   4.712   5.453   7.458 -1.0796 -2.2394  0.1302
   72RES   H34830310   4.629   5.236   7.408  0.1348 -0.5405 -0.2228
   72RES   H34930311   4.758   5.219   7.277  2.4598 -0.7633  1.2648
   72RES   H35030312   4.923   5.217   7.465 -1.0112  1.5294 -0.9325
   72RES   H35130313   4.813   5.080   7.442  1.1480 -0.9676 -0.2041
   72RES   H35230314   4.806   5.297   7.664 -0.1842  0.1052  0.1987
   72RES   H35330315   4.672   5.177   7.633  0.5533  1.2800 -0.2714
   72RES   H35430316   4.827   4.994   7.687 -0.8247 -0.3665  0.6488
   72RES   H35530317   4.957   5.105   7.685  0.6314 -2.1086  2.8511
   72RES   H35630318   4.882   5.175   0.181  0.3444  0.5142 -1.1255
   72RES   H35730319   4.848   4.998   0.171  3.0549  0.8854  0.3310
   72RES   H35830320   4.718   5.116   0.134  0.4154  1.9187  1.6871
   72RES   C35930321   4.626   5.447   7.274  0.0227  0.2029 -0.3713
   72RES   C36030322   4.603   5.608   7.270  0.2007 -0.3850  0.2951
   72RES   C36130323   4.598   5.662   7.123  0.2153 -0.4061  0.1536
   72RES   C36230324   4.630   5.814   7.116  0.7114  0.2072 -0.4698
   72RES   C36330325   4.562   5.878   6.996 -0.3030 -0.5218 -0.0791
   72RES   C36430326   4.602   6.026   6.973 -0.7260 -0.4748  0.5193
   72RES   C36530327   4.728   6.038   6.887 -0.8512  0.5418  0.6747
   72RES   H36630328   4.531   5.395   7.285 -0.2366  1.0185  1.3509
   72RES   H36730329   4.665   5.418   7.176  1.0029  1.9882 -0.5504
   72RES   H36830330   4.677   5.659   7.332 -0.0454 -0.7150  0.8638
   72RES   H36930331   4.668   5.613   7.055  0.4529  0.6823 -0.4084
   72RES   H37030332   4.500   5.636   7.084  0.2168 -0.5643  0.2555
   72RES   H37130333   4.592   5.866   7.204  0.1539  0.3182 -0.7716
   72RES   H37230334   4.738   5.824   7.110  0.6615  1.4841  0.4359
   72RES   H37330335   4.562   5.817   6.906  2.2750  1.9544 -1.8539
   72RES   H37430336   4.457   5.893   7.019 -0.2949  0.6619 -0.7914
   72RES   H37530337   4.526   6.089   6.926 -1.4130  0.2787  2.5527
   72RES   H37630338   4.602   6.086   7.064 -2.2926  0.9142 -0.3609
   72RES   H37730339   4.822   6.044   6.941  0.3693  0.1197 -1.3764
   72RES   H37830340   4.749   5.961   6.813  1.3081  0.0073  1.7909
   72RES   H37930341   4.717   6.126   6.823 -0.4330  0.0919 -0.0172
   72RES   C38030342   4.465   5.656   7.336  0.1367 -1.0933 -0.0848
   72RES   C38130343   4.452   5.636   7.490 -0.5960  0.1416  0.1459
   72RES   C38230344   4.534   5.745   7.564 -0.4367  0.2221 -0.3309
   72RES   C38330345   4.500   5.895   7.539 -0.2100 -0.4770  0.4264
   72RES   C38430346   4.590   5.991   7.615 -1.2676  0.2833 -0.6499
   72RES   C38530347   4.604   6.123   7.546 -0.0070 -0.0869  0.6008
   72RES   C38630348   4.698   6.219   7.624 -0.5701  0.0300  0.4154
   72RES   H38730349   4.442   5.759   7.309  0.8861 -0.3272  2.0898
   72RES   H38830350   4.388   5.602   7.281 -2.1186  2.4179 -0.4961
   72RES   H38930351   4.507   5.544   7.509  1.8010  1.8114  1.5964
   72RES   H39030352   4.641   5.733   7.549  0.0654  0.8842  2.4240
   72RES   H39130353   4.524   5.722   7.670  3.2320  0.7214  0.1824
   72RES   H39230354   4.511   5.918   7.433  1.5329 -0.8153  0.5115
   72RES   H39330355   4.397   5.908   7.570 -0.1911  2.3483 -0.5740
   72RES   H39430356   4.547   6.003   7.714 -0.8817  0.7880 -0.5396
   72RES   H39530357   4.688   5.949   7.641 -0.7030  3.1234  2.1514
   72RES   H39630358   4.509   6.176   7.535  0.4556  0.7711  0.6601
   72RES   H39730359   4.652   6.113   7.448 -1.3627  5.7313 -0.8826
   72RES   H39830360   4.673   6.230   0.003 -1.7083  1.8390 -0.0225
   72RES   H39930361   4.694   6.322   7.590  3.5786  0.3847  0.6593
   72RES   H40030362   4.806   6.201   7.616 -0.1959  2.9776 -1.9901
   72RES   C40130363   4.306   5.626   7.549  0.0578 -0.2777 -0.1814
   72RES   C40230364   4.251   5.489   7.537  0.3350 -0.5424 -0.0157
   72RES   C40330365   4.103   5.493   7.582 -0.5882  0.6157  0.0430
   72RES   C40430366   4.028   5.353   7.611  0.1452  0.1345  0.4683
   72RES   C40530367   4.015   5.250   7.495 -0.2830  0.2553  0.4090
   72RES   C40630368   3.971   5.109   7.536 -0.0576  0.2309  0.5661
   72RES   C40730369   3.956   5.023   7.411  0.9117 -0.4921 -0.1837
   72RES   H40830370   4.234   5.685   7.492 -1.2646 -2.3822 -0.7707
   72RES   H40930371   4.321   5.659   7.652  0.6704 -1.3354  0.0648
   72RES   H41030372   4.323   5.423   7.586  2.3938  1.2094 -0.6445
   72RES   H41130373   4.044   5.540   7.504  0.9912  3.7000  0.6580
   72RES   H41230374   4.083   5.563   7.663 -1.0107 -1.1098  1.4643
   72RES   H41330375   3.923   5.360   7.642  0.4905 -0.1433  1.7306
   72RES   H41430376   4.087   5.307   7.690  1.4259  0.2871 -0.3765
   72RES   H41530377   3.936   5.286   7.429  0.9500  0.5731 -0.9328
   72RES   H41630378   4.112   5.240   7.446 -1.1147  2.3549 -1.7476
   72RES   H41730379   4.046   5.062   7.599  1.0414  2.2146  0.7585
   72RES   H41830380   3.885   5.113   7.602  0.8357 -0.7784  1.8085
   72RES   H41930381   3.905   5.078   7.332  0.9339 -1.8937 -1.1961
   72RES   H42030382   3.883   4.946   7.437 -0.2879  0.9843  0.9261
   72RES   H42130383   4.046   4.973   7.374  0.4957 -1.6488  0.3534
   72RES   H42230384   4.253   5.462   7.432  1.6131 -2.6617  0.5246
   73RES     C130385   7.480   2.978   3.023  0.9173 -0.1413  0.4011
   73RES     C230386   7.356   3.060   2.976  0.3060  0.1916 -0.0711
   73RES     C330387   7.258   3.092   3.094 -0.1868  0.0265 -0.5238
   73RES     C430388   7.154   3.204   3.062 -0.2886  0.1063 -0.1636
   73RES     C530389   7.031   3.177   3.158 -0.0252 -0.6296  0.1673
   73RES     C630390   6.911   3.277   3.144 -0.2131 -0.0434  0.0658
   73RES     C730391   6.873   3.301   3.001 -0.0721  0.3865 -0.1232
   73RES     H830392   7.520   3.030   3.109 -0.4735  1.6842 -0.0313
   73RES     H930393   7.552   2.973   2.942  0.4444 -0.2313 -0.0197
   73RES    H1030394   7.389   3.159   2.944  1.1324  0.4602  1.5434
   73RES    H1130395   7.209   3.001   3.130 -3.1303  2.3357  1.6140
   73RES    H1230396   7.315   3.120   3.182 -0.5947 -1.6951  0.3144
   73RES    H1330397   7.211   3.295   3.079 -0.3662  0.4534 -1.7390
   73RES    H1430398   7.120   3.206   2.959  0.1811  0.1862 -0.3178
   73RES    H1530399   7.063   3.170   3.262 -1.9944 -0.6033  0.8020
   73RES    H1630400   6.989   3.080   3.131  0.8000 -0.9362 -0.0074
   73RES    H1730401   6.942   3.376   3.178  3.3032 -1.9823  2.8395
   73RES    H1830402   6.826   3.242   3.201 -1.5516  1.3263 -1.0655
   73RES    H1930403   6.823   3.220   2.949 -2.0258  0.7439  1.1388
   73RES    H2030404   6.954   3.351   2.947  0.6076 -0.8037 -0.2259
   73RES    H2130405   6.790   3.371   3.009 -0.5256 -0.0249 -1.2286
   73RES    H2230406   7.450   2.876   3.051 -1.9595  0.5413  0.0151
   73RES    C2330407   7.278   2.976   2.876 -0.1525 -0.3236  0.2332
   73RES    C2430408   7.325   2.980   2.724  0.6462  0.2896  0.2792
   73RES    C2530409   7.358   3.121   2.671 -0.2931 -0.5340  0.0417
   73RES    C2630410   7.510   3.149   2.673 -0.2876 -0.5307 -0.0404
   73RES    C2730411   7.550   3.294   2.649 -0.3789  0.0940  0.0888
   73RES    C2830412   7.521   3.394   2.764  0.4725  0.1924 -0.8606
   73RES    C2930413   7.597   3.528   2.751 -0.3961  0.3427  0.3079
   73RES    H3030414   7.258   2.875   2.913 -0.7802 -0.5264 -0.6521
   73RES    H3130415   7.186   3.032   2.867 -0.8821 -1.0881  2.6436
   73RES    H3230416   7.421   2.930   2.716 -0.0116 -0.9484 -0.0806
   73RES    H3330417   7.327   3.198   2.743  0.4147 -0.8691  0.7079
   73RES    H3430418   7.322   3.132   2.569  1.6858 -0.6402 -0.6719
   73RES    H3530419   7.561   3.093   2.595  1.1897  2.5258 -1.3503
   73RES    H3630420   7.555   3.109   2.763 -0.4927 -0.0024  0.2957
   73RES    H3730421   7.494   3.325   2.561  0.4007  2.6188  0.4548
   73RES    H3830422   7.658   3.289   2.632 -0.6208  2.0007 -2.3506
   73RES    H3930423   7.547   3.338   2.855 -0.5472  0.2439 -0.5351
   73RES    H4030424   7.413   3.408   2.773  0.9986  2.8101  2.2426
   73RES    H4130425   7.699   3.522   2.791 -0.1723 -2.9422 -0.5984
   73RES    H4230426   7.597   3.557   2.646 -0.9932 -2.2689 -0.4532
   73RES    H4330427   7.541   3.594   2.817 -0.5860 -0.2233  0.7148
   73RES    C4430428   7.231   2.907   2.632 -0.1730  0.4875  0.2380
   73RES    C4530429   7.296   2.848   2.496  0.0456 -0.4218 -0.3756
   73RES    C4630430   7.423   2.766   2.516 -0.3333  0.7868 -0.0909
   73RES    C4730431   7.416   2.657   2.624 -0.7075 -0.4336  0.4965
   73RES    C4830432   7.551   2.581   2.651  0.1169  0.4594  0.5835
   73RES    C4930433   7.550   2.504   2.774 -1.4569 -0.5591 -0.4541
   73RES    C5030434   7.545   2.601   2.890  0.1645 -0.4411 -0.6468
   73RES    H5130435   7.152   2.975   2.602  0.3764  0.3196 -1.6656
   73RES    H5230436   7.185   2.821   2.680  1.3955 -0.1565  0.6191
   73RES    H5330437   7.320   2.941   2.445 -1.9287  0.7828  0.8145
   73RES    H5430438   7.505   2.836   2.530  0.9747 -0.6311 -0.4705
   73RES    H5530439   7.433   2.713   2.421 -0.7876 -0.0207  0.3039
   73RES    H5630440   7.367   2.698   2.712 -3.1700  1.5253 -1.6795
   73RES    H5730441   7.343   2.583   2.592 -2.7974  1.7722  0.0388
   73RES    H5830442   7.632   2.654   2.659  1.4827 -1.1599  1.9914
   73RES    H5930443   7.579   2.519   2.565 -0.2634  1.7785 -0.5134
   73RES    H6030444   7.646   2.453   2.782 -1.3425  0.0418  2.2642
   73RES    H6130445   7.464   2.436   2.776 -1.7794 -0.2591 -2.7321
   73RES    H6230446   7.447   2.616   2.934  0.8990 -0.5677  1.0883
   73RES    H6330447   7.580   2.703   2.875 -1.9646  0.0180 -2.7058
   73RES    H6430448   7.613   2.569   2.970 -1.3343 -0.7477  0.5220
   73RES    C6530449   7.192   2.758   2.420 -0.3569  0.2675  1.0009
   73RES    C6630450   7.173   2.796   2.271  0.3980 -0.4922  0.7786
   73RES    C6730451   7.281   2.733   2.176 -0.5671 -0.2261 -1.1321
   73RES    C6830452   7.312   2.580   2.185  0.3543 -0.3418 -0.5520
   73RES    C6930453   7.400   2.539   2.067  0.1341 -0.3390 -0.2697
   73RES    C7030454   7.427   2.380   2.059  0.4051 -0.0365  0.0210
   73RES    C7130455   7.330   2.313   1.963 -0.0942 -0.7832  0.9044
   73RES    H7230456   7.219   2.653   2.418  0.2564  0.4407 -1.4869
   73RES    H7330457   7.092   2.766   2.463 -2.3416  3.5189 -3.7595
   73RES    H7430458   7.080   2.745   2.248 -0.5267  1.7816 -0.6372
   73RES    H7530459   7.238   2.746   2.077 -1.0564 -1.0633 -1.0352
   73RES    H7630460   7.376   2.785   2.181 -0.5199 -0.3672 -0.4167
   73RES    H7730461   7.360   2.570   2.283  0.8170  1.1719 -0.6146
   73RES    H7830462   7.219   2.524   2.194  0.3460 -0.1220  0.7609
   73RES    H7930463   7.369   2.575   1.969  1.8929  0.4375 -0.5508
   73RES    H8030464   7.495   2.589   2.084 -0.3060  0.5141 -0.3160
   73RES    H8130465   7.431   2.334   2.158 -2.0536 -0.2122  0.0576
   73RES    H8230466   7.525   2.359   2.016  0.2469 -0.9401  0.0848
   73RES    H8330467   7.339   2.361   1.866  0.6442 -1.4832  0.6138
   73RES    H8430468   7.344   2.205   1.955 -1.1986 -0.7709 -1.4958
   73RES    H8530469   7.225   2.324   1.989 -0.1230 -0.1309  0.5239
   73RES    C8630470   7.155   2.943   2.243  0.1620 -0.4223  0.1783
   73RES    C8730471   7.058   2.986   2.131  0.0493 -0.6183 -0.8400
   73RES    C8830472   6.916   2.988   2.186  0.0900  0.1026 -0.3106
   73RES    C8930473   6.808   2.946   2.087 -0.8289  0.0175  0.1220
   73RES    C9030474   6.670   2.964   2.151  0.1871  0.2993  0.2374
   73RES    C9130475   6.545   2.934   2.059 -0.3476  0.3665 -0.7909
   73RES    C9230476   6.546   3.026   1.930 -0.3711  0.7641  0.3513
   73RES    H9330477   7.133   3.003   2.331 -1.1648  0.5649 -0.8128
   73RES    H9430478   7.254   2.982   2.221 -0.5592  0.3804 -1.7616
   73RES    H9530479   7.062   2.906   2.056  1.2814 -1.0755 -0.2855
   73RES    H9630480   6.926   2.920   2.271 -0.1419 -2.1772 -2.0547
   73RES    H9730481   6.895   3.084   2.232 -3.1006  0.0210 -1.4369
   73RES    H9830482   6.819   3.001   1.994  1.9257 -1.6414 -0.6126
   73RES    H9930483   6.833   2.842   2.065 -1.5176 -0.1879  0.2951
   73RES   H10030484   6.665   3.070   2.175  0.5594 -0.3080  3.1172
   73RES   H10130485   6.658   2.915   2.247  3.4722 -1.2404 -0.0389
   73RES   H10230486   6.537   2.830   2.026 -0.0085 -0.0878  0.5052
   73RES   H10330487   6.453   2.954   2.115 -0.3781 -2.5568  0.3274
   73RES   H10430488   6.451   3.025   1.878 -0.3842  0.9072  0.3745
   73RES   H10530489   6.612   2.981   1.856  0.3392  0.5681  1.0934
   73RES   H10630490   6.584   3.127   1.936  3.2278 -0.3575 -1.6878
   73RES   C10730491   7.099   3.128   2.070 -0.3853  0.0546  0.1416
   73RES   C10830492   7.207   3.135   1.966 -0.5267  0.3741  0.1303
   73RES   C10930493   7.161   3.062   1.836 -0.0580  0.1543  0.7556
   73RES   C11030494   7.051   3.136   1.752 -0.5397  0.3796 -0.5830
   73RES   C11130495   7.003   3.050   1.635 -0.5635 -0.0494 -0.0633
   73RES   C11230496   6.887   3.128   1.564  0.8655 -0.0726  0.7748
   73RES   C11330497   6.841   3.062   1.434  0.1201  0.6606 -0.7087
   73RES   H11430498   7.127   3.192   2.154  0.1893  0.8060 -0.6147
   73RES   H11530499   7.006   3.183   2.056  0.2075  2.2801  4.1451
   73RES   H11630500   7.300   3.088   1.998  2.0070  4.4176 -0.9292
   73RES   H11730501   7.129   2.962   1.866 -0.0238 -0.0257  0.2108
   73RES   H11830502   7.246   3.039   1.771  1.5360  2.2928  2.0538
   73RES   H11930503   6.967   3.165   1.814  2.1169 -0.1431  3.3982
   73RES   H12030504   7.100   3.224   1.710  0.5564  0.5113  0.9608
   73RES   H12130505   6.972   2.955   1.678  1.7229  0.0038  1.7953
   73RES   H12230506   7.090   3.029   1.574 -0.1472 -0.8886  0.8064
   73RES   H12330507   6.798   3.122   1.627  1.5126 -2.8270  1.4780
   73RES   H12430508   6.911   3.234   1.558 -1.9216  0.5712 -0.0117
   73RES   H12530509   6.749   3.106   1.395  0.3683  1.2815 -0.5896
   73RES   H12630510   6.920   3.050   1.361  1.5721  1.3446  0.7250
   73RES   H12730511   6.813   2.960   1.459  2.0112 -0.2075 -2.0354
   73RES   C12830512   7.252   3.282   1.938  0.0385 -0.1066 -0.0709
   73RES   C12930513   7.386   3.307   1.865 -0.0701  0.0556 -0.1373
   73RES   C13030514   7.505   3.201   1.894  0.0790 -0.0720  0.4051
   73RES   C13130515   7.571   3.236   2.033  0.1504  0.3628  0.4105
   73RES   C13230516   7.617   3.124   2.123  0.8712  0.3316  0.4459
   73RES   C13330517   7.628   3.148   2.280  0.4688  0.1114  0.4818
   73RES   C13430518   7.724   3.268   2.306  0.0152 -0.4537 -0.5915
   73RES   H13530519   7.165   3.332   1.894  0.9894  1.9574  0.3742
   73RES   H13630520   7.270   3.335   2.031  0.9554 -0.5753  0.0250
   73RES   H13730521   7.353   3.280   1.764 -1.8436 -2.1070  0.9702
   73RES   H13830522   7.588   3.212   1.824 -0.7099 -0.2887 -0.5818
   73RES   H13930523   7.475   3.097   1.879  4.0059 -1.5414  2.1804
   73RES   H14030524   7.506   3.299   2.093 -0.0430  0.0596  0.5212
   73RES   H14130525   7.664   3.291   2.018 -1.0329  2.1020 -0.6019
   73RES   H14230526   7.709   3.085   2.080 -0.2622 -0.6797 -1.1366
   73RES   H14330527   7.554   3.036   2.113  0.3676  0.9516 -2.0641
   73RES   H14430528   7.673   3.063   2.332 -1.8058 -0.6418  1.2667
   73RES   H14530529   7.525   3.166   2.312  0.0132 -0.8502 -0.4021
   73RES   H14630530   0.103   3.249   2.286 -0.0224 -0.1598 -1.0770
   73RES   H14730531   7.716   3.313   2.405  3.0298  0.8297 -0.8753
   73RES   H14830532   7.709   3.354   2.242 -0.1266 -0.2275 -0.2584
   73RES   C14930533   7.436   3.456   1.859  0.7544 -0.0191 -0.4641
   73RES   C15030534   7.389   3.530   1.727  0.7326 -0.9516 -0.6340
   73RES   C15130535   7.454   3.476   1.600 -0.0571  0.3595  0.0924
   73RES   C15230536   7.611   3.482   1.595 -0.1313  0.1965  0.0262
   73RES   C15330537   7.672   3.421   1.468  0.6039  0.0205 -0.8990
   73RES   C15430538   0.095   3.389   1.470  0.5273 -0.2404 -0.5990
   73RES   C15530539   0.181   3.511   1.504  0.0114 -0.1464  0.3575
   73RES   H15630540   7.407   3.509   1.949 -1.9423 -1.9618 -0.1082
   73RES   H15730541   7.544   3.453   1.872  0.5448  0.9680  1.5949
   73RES   H15830542   7.280   3.526   1.718  0.8408 -0.7731 -2.0665
   73RES   H15930543   7.428   3.371   1.590  2.9220 -0.3609 -0.5439
   73RES   H16030544   7.408   3.527   1.516 -2.1736  0.5277  1.3045
   73RES   H16130545   7.643   3.429   1.684  0.3748  0.9310  0.2833
   73RES   H16230546   7.648   3.584   1.606  1.1904 -0.3297  0.4591
   73RES   H16330547   7.648   3.495   1.391 -0.2702  0.3261 -0.3358
   73RES   H16430548   7.610   3.333   1.455 -1.0476  0.6963  1.9859
   73RES   H16530549   0.128   3.352   1.373 -0.0977  0.0439 -0.9238
   73RES   H16630550   0.120   3.316   1.547 -0.2617  1.5511  1.4119
   73RES   H16730551   0.141   3.555   1.596  0.5447 -0.0820  0.5566
   73RES   H16830552   0.169   3.597   1.438  0.6896  0.5502  1.1206
   73RES   H16930553   0.287   3.492   1.513  0.0374 -0.1978 -0.0490
   73RES   C17030554   7.420   3.682   1.743  0.6787  0.2983  0.7476
   73RES   C17130555   7.320   3.763   1.837  0.1628 -0.3545 -0.3131
   73RES   C17230556   7.391   3.903   1.878 -0.1367  0.3577 -0.5850
   73RES   C17330557   7.309   3.975   1.992 -0.2615 -0.1748 -0.1710
   73RES   C17430558   7.375   4.099   2.052  0.6191  0.2374  0.1115
   73RES   C17530559   7.295   4.170   2.162  0.2900  0.6127  0.2431
   73RES   C17630560   7.370   4.285   2.231  0.2262  0.0098 -0.0377
   73RES   H17730561   7.411   3.724   1.643  1.2208 -1.9932 -0.3078
   73RES   H17830562   7.523   3.699   1.776 -0.3745  2.3510  3.0967
   73RES   H17930563   7.307   3.714   1.933  0.0920 -0.6947 -0.4954
   73RES   H18030564   7.394   3.966   1.789  3.1334  0.3111 -0.5574
   73RES   H18130565   7.492   3.888   1.916  0.0472  1.7971 -0.4552
   73RES   H18230566   7.311   3.899   2.070  3.4083  1.2005  1.1552
   73RES   H18330567   7.207   3.987   1.957  0.1839 -0.8203 -1.7411
   73RES   H18430568   7.405   4.164   1.971  0.1525 -1.2514 -1.2731
   73RES   H18530569   7.469   4.061   2.093  0.0221 -2.4615 -0.9313
   73RES   H18630570   7.264   4.102   2.241 -0.8889  2.0522  1.0356
   73RES   H18730571   7.206   4.198   2.105  0.2509  0.6161  0.3052
   73RES   H18830572   7.414   4.355   2.160  0.5931  0.6717  0.8295
   73RES   H18930573   7.455   4.241   2.283 -1.1150 -2.9203 -0.2412
   73RES   H19030574   7.307   4.325   2.311  0.8131 -1.8474  1.3835
   73RES   C19130575   7.186   3.781   1.754 -0.5881 -0.3104 -0.0881
   73RES   C19230576   7.058   3.708   1.810  0.1280 -0.1773 -0.1162
   73RES   C19330577   7.037   3.746   1.959 -0.5747 -0.5363  0.2942
   73RES   C19430578   6.928   3.652   2.018  0.5516 -0.3102  0.0008
   73RES   C19530579   6.971   3.508   2.059 -0.7140  0.0157  0.1368
   73RES   C19630580   6.882   3.450   2.162  0.5190  0.2813  0.0445
   73RES   C19730581   6.749   3.388   2.116 -0.1014 -0.0177 -0.4745
   73RES   H19830582   7.195   3.768   1.646 -0.6491 -0.7504 -0.0409
   73RES   H19930583   7.155   3.885   1.767 -0.4519 -0.0158 -1.9768
   73RES   H20030584   7.081   3.601   1.811 -1.0150 -0.4261  1.7519
   73RES   H20130585   6.995   3.847   1.961  1.7249  0.4542  0.4648
   73RES   H20230586   7.130   3.743   2.017 -0.7529 -0.3736  0.5924
   73RES   H20330587   6.834   3.642   1.963  0.1579 -0.3139  0.6615
   73RES   H20430588   6.896   3.700   2.111  0.4220 -0.7728  0.1966
   73RES   H20530589   6.975   3.434   1.980  1.1818 -0.5308  0.7100
   73RES   H20630590   7.070   3.521   2.104 -0.2434 -1.6947 -0.3949
   73RES   H20730591   6.861   3.531   2.233 -2.6572  0.9153 -1.5430
   73RES   H20830592   6.934   3.382   2.228 -0.2489  2.5022  3.0746
   73RES   H20930593   6.759   3.295   2.061  3.0467 -0.1414  0.2233
   73RES   H21030594   6.685   3.460   2.065  0.2579  1.5853  1.2560
   73RES   H21130595   6.697   3.363   2.209  3.0505 -1.0317  1.0613
   73RES   C21230596   6.936   3.733   1.719  0.9479 -0.5130 -0.3929
   73RES   C21330597   6.937   3.644   1.591 -0.3377 -0.3219 -0.4561
   73RES   C21430598   6.801   3.582   1.563 -0.4661 -0.3197 -0.8703
   73RES   C21530599   6.734   3.501   1.676  0.2936 -0.2807  0.6621
   73RES   C21630600   6.642   3.399   1.607  0.1505 -0.5986 -0.0959
   73RES   C21730601   6.557   3.315   1.708  0.5499 -0.0609  0.0126
   73RES   C21830602   6.464   3.224   1.628  0.4465  0.4080 -0.0342
   73RES   H21930603   6.932   3.841   1.700 -2.1247 -0.3735  0.7451
   73RES   H22030604   6.845   3.712   1.774  0.6641 -1.0725 -1.0664
   73RES   H22130605   7.000   3.558   1.613  0.2502 -0.3135 -1.9838
   73RES   H22230606   6.739   3.668   1.539  1.9198  1.7910  0.2718
   73RES   H22330607   6.799   3.524   1.471  1.0858 -2.3151  0.3140
   73RES   H22430608   6.678   3.565   1.744  1.8133  1.7808  0.0427
   73RES   H22530609   6.806   3.436   1.725  1.4583  0.3702 -0.1721
   73RES   H22630610   6.573   3.455   1.544 -0.6290 -0.1776  1.1099
   73RES   H22730611   6.700   3.327   1.551  0.5873 -1.4343  1.4048
   73RES   H22830612   6.632   3.254   1.757  1.1727  0.9938  0.3868
   73RES   H22930613   6.500   3.380   1.776 -1.4163 -0.2571 -1.3921
   73RES   H23030614   6.387   3.188   1.696 -1.3742  2.5028 -0.8938
   73RES   H23130615   6.514   3.136   1.587 -0.2547  0.8447 -1.8694
   73RES   H23230616   6.418   3.281   1.547  2.7765 -0.7566 -2.2201
   73RES   C23330617   6.990   3.717   1.469  0.0010  0.6118  0.2847
   73RES   C23430618   7.077   3.625   1.377 -0.4181  0.3869  0.0202
   73RES   C23530619   7.021   3.483   1.328 -0.2760  0.6119 -0.0284
   73RES   C23630620   7.123   3.389   1.278 -0.8743  0.3171  0.0642
   73RES   C23730621   7.178   3.295   1.382  0.4771 -0.2242  0.2310
   73RES   C23830622   7.277   3.186   1.338 -0.2858  0.2203 -0.8057
   73RES   C23930623   7.394   3.239   1.254 -0.1486 -0.4765  0.2590
   73RES   H24030624   7.029   3.812   1.505 -0.6788  0.9186  0.2207
   73RES   H24130625   6.912   3.736   1.395 -0.1174 -2.2069 -0.3522
   73RES   H24230626   7.164   3.599   1.436  1.7154 -0.6857 -3.4535
   73RES   H24330627   6.945   3.503   1.252 -1.3954 -0.1639  0.8651
   73RES   H24430628   6.968   3.435   1.410  0.9826 -0.9934 -0.1259
   73RES   H24530629   7.209   3.442   1.237 -0.6842  0.4059  0.5734
   73RES   H24630630   7.077   3.327   1.201 -0.7466  1.5936 -1.0556
   73RES   H24730631   7.093   3.243   1.426  0.1229  1.2114  1.2918
   73RES   H24830632   7.217   3.348   1.469  1.9543 -0.4486 -0.2813
   73RES   H24930633   7.312   3.116   1.414  2.2816  0.6908 -1.4844
   73RES   H25030634   7.230   3.112   1.273  0.5381 -1.0540  0.0369
   73RES   H25130635   7.358   3.296   1.169  1.6959 -0.6910 -0.6733
   73RES   H25230636   7.457   3.306   1.313  0.6157 -1.7568  0.9121
   73RES   H25330637   7.444   3.151   1.214 -0.4452  0.0136 -1.1839
   73RES   C25430638   7.117   3.713   1.253 -0.1791 -0.4080  0.6022
   73RES   C25530639   7.220   3.836   1.274 -0.3358  0.6167  0.1599
   73RES   C25630640   7.205   3.939   1.155  0.3710 -0.1463 -0.1914
   73RES   C25730641   7.076   4.020   1.147  0.9669  0.2899  0.2464
   73RES   C25830642   7.084   4.126   1.042 -0.1018 -0.0235  1.3238
   73RES   C25930643   6.937   4.188   1.029  0.6117 -0.5814 -0.9289
   73RES   C26030644   6.827   4.085   1.000  0.1900  0.4185  0.3129
   73RES   H26130645   7.024   3.754   1.214 -0.9056 -1.9474  0.6795
   73RES   H26230646   7.154   3.651   1.172  0.7879  1.5237 -0.4818
   73RES   H26330647   7.202   3.883   1.370  1.3893  2.3966 -0.3544
   73RES   H26430648   7.220   3.894   1.057  1.1127 -1.9060  0.7166
   73RES   H26530649   7.288   4.010   1.158  1.6564 -1.5930 -1.1748
   73RES   H26630650   6.995   3.949   1.127  0.2970  0.3837  2.4708
   73RES   H26730651   7.057   4.072   1.240  0.0256  2.6477 -1.2144
   73RES   H26830652   7.113   4.076   0.949  1.2820  1.3699  0.9884
   73RES   H26930653   7.161   4.200   1.061  0.1387 -0.2635  1.2838
   73RES   H27030654   6.918   4.235   1.126  0.9278 -1.5849 -0.3612
   73RES   H27130655   6.943   4.266   0.953  0.1695  0.2616 -0.1079
   73RES   H27230656   6.793   4.030   1.088 -0.4236  1.0874  0.4978
   73RES   H27330657   6.732   4.127   0.967  0.2233  0.3048  0.0771
   73RES   H27430658   6.859   4.014   0.924  2.6122  0.7300  1.0131
   73RES   C27530659   7.356   3.779   1.278 -0.5129 -0.6804 -0.0938
   73RES   C27630660   7.471   3.878   1.303  0.3236 -0.6838  0.1029
   73RES   C27730661   7.599   3.796   1.290  0.6912 -0.3460  0.0154
   73RES   C27830662   7.722   3.880   1.238  0.4826 -0.1948  0.6506
   73RES   C27930663   0.109   3.782   1.183  1.3115 -0.4998 -0.0379
   73RES   C28030664   0.254   3.839   1.189  0.0104 -0.9565  0.6347
   73RES   C28130665   0.268   3.971   1.111  0.4724  0.0717 -0.3299
   73RES   H28230666   7.368   3.716   1.189 -1.4904 -0.1083 -0.6346
   73RES   H28330667   7.376   3.693   1.341  0.3915 -0.6733 -0.3602
   73RES   H28430668   7.469   3.948   1.219 -1.1815 -1.7084 -0.7433
   73RES   H28530669   7.621   3.748   1.385 -0.5468  0.1378  0.5588
   73RES   H28630670   7.593   3.717   1.215  0.3538 -0.4648  0.1681
   73RES   H28730671   0.029   3.947   1.316  2.2087  1.7445 -1.7010
   73RES   H28830672   7.699   3.947   1.155 -2.6899 -1.2501  0.5936
   73RES   H28930673   0.080   3.760   1.080  0.5171  1.3129 -0.2207
   73RES   H29030674   0.091   3.693   1.243  0.3174  1.0600  2.0253
   73RES   H29130675   0.276   3.849   1.296  3.2460  0.8417 -0.1247
   73RES   H29230676   0.331   3.770   1.153  2.1316  1.1533  0.9630
   73RES   H29330677   0.264   3.960   1.003  0.3178 -1.1449 -0.2055
   73RES   H29430678   0.366   4.006   1.144  0.6724 -0.5137 -0.3138
   73RES   H29530679   0.194   4.043   1.148  1.3079  0.3309  0.8706
   73RES   C29630680   7.464   3.953   1.440  0.0782 -0.6242  0.0897
   73RES   C29730681   7.424   4.109   1.420  0.3198  0.4303 -0.4577
   73RES   C29830682   7.544   4.191   1.376  0.3934 -0.2177  0.4052
   73RES   C29930683   7.528   4.318   1.289  0.2898 -0.4980 -0.7616
   73RES   C30030684   7.465   4.287   1.149 -0.5236  0.6989  0.0690
   73RES   C30130685   7.469   4.396   1.042  0.2234 -0.3798 -1.2339
   73RES   C30230686   7.335   4.408   0.964 -0.5968  0.3182 -0.1187
   73RES   H30330687   7.396   3.900   1.506  1.4783 -1.9918  0.4631
   73RES   H30430688   7.565   3.951   1.480  0.0903 -0.0171  0.1066
   73RES   H30530689   7.351   4.117   1.340  0.8543 -0.8367 -1.0732
   73RES   H30630690   7.592   4.234   1.464  0.1646  1.0703 -0.0792
   73RES   H30730691   7.613   4.125   1.323  0.3222 -1.7332  2.1737
   73RES   H30830692   7.632   4.350   1.277 -0.5069  3.3205  1.8622
   73RES   H30930693   7.461   4.393   1.329  1.7269  0.3060  0.1956
   73RES   H31030694   7.358   4.267   1.160 -0.7503  1.4465 -0.7368
   73RES   H31130695   7.503   4.192   1.113  0.0996  0.0665  2.2887
   73RES   H31230696   7.498   4.495   1.077  0.9379 -1.1786  0.5021
   73RES   H31330697   7.555   4.386   0.977  0.3684  0.3269 -1.1629
   73RES   H31430698   7.326   4.499   0.905  0.2076  2.0243  2.2711
   73RES   H31530699   7.329   4.336   0.882 -0.3374  0.1063  0.0483
   73RES   H31630700   7.245   4.398   1.025  1.6335 -1.2848  3.0821
   73RES   C31730701   7.348   4.152   1.556  0.2612 -0.0023  0.8875
   73RES   C31830702   7.268   4.284   1.565  0.3708 -0.3086  0.0984
   73RES   C31930703   7.134   4.277   1.483 -0.4585  0.1539  0.9691
   73RES   C32030704   7.055   4.407   1.452  0.1334  0.0257  0.1950
   73RES   C32130705   7.139   4.496   1.363  0.5322 -0.5765 -0.5018
   73RES   C32230706   7.050   4.578   1.262 -0.6191 -0.0327  0.2418
   73RES   C32330707   7.124   4.696   1.193  0.0766 -0.7340 -0.0151
   73RES   H32430708   7.427   4.157   1.631  1.3004  1.5151 -0.3017
   73RES   H32530709   7.278   4.074   1.588  0.8188 -0.8240  0.1323
   73RES   H32630710   7.340   4.352   1.518  2.4164 -3.2148 -1.1358
   73RES   H32730711   7.080   4.201   1.538  1.5153 -1.4190  0.7884
   73RES   H32830712   7.148   4.230   1.385 -2.0218 -0.6417  1.1164
   73RES   H32930713   7.020   4.459   1.541 -2.3167 -2.0004  0.4849
   73RES   H33030714   6.965   4.374   1.399 -1.2662 -0.0477  2.5712
   73RES   H33130715   7.214   4.445   1.302  0.8357  0.1860 -0.7773
   73RES   H33230716   7.192   4.571   1.422 -0.6316  0.2037 -0.4289
   73RES   H33330717   6.967   4.630   1.309 -0.5226 -1.3846  1.9612
   73RES   H33430718   7.019   4.518   1.176  0.1620 -1.5438  0.9956
   73RES   H33530719   7.069   4.730   1.105  0.0918 -0.2841  0.1510
   73RES   H33630720   7.226   4.684   1.154 -0.1519  1.4957 -1.3682
   73RES   H33730721   7.140   4.779   1.262 -0.8297  0.1526 -0.8623
   73RES   C33830722   7.241   4.331   1.710 -0.5560 -0.1131  0.0137
   73RES   C33930723   7.292   4.475   1.730 -0.3652 -0.5177 -0.3209
   73RES   C34030724   7.450   4.491   1.720  0.6732 -0.1432  0.8266
   73RES   C34130725   7.527   4.409   1.827 -0.7187  0.2169 -0.2014
   73RES   C34230726   7.680   4.420   1.804 -0.6314 -0.0028 -0.5142
   73RES   C34330727   0.033   4.339   1.906 -0.2842 -1.0101 -0.5948
   73RES   C34430728   0.185   4.377   1.909  0.8424  0.7879 -0.9869
   73RES   H34530729   7.279   4.258   1.782 -0.4781 -0.2412 -0.1568
   73RES   H34630730   7.136   4.327   1.737 -0.0491 -0.2576  2.1012
   73RES   H34730731   7.245   4.539   1.655 -1.5828 -0.3222  0.5940
   73RES   H34830732   7.489   4.458   1.623  0.5921  0.8061  0.4741
   73RES   H34930733   7.475   4.597   1.718  2.1711 -0.4909  0.2990
   73RES   H35030734   7.493   4.307   1.809  0.0260  0.0918 -0.8775
   73RES   H35130735   7.509   4.443   1.929  0.8423  0.3607  0.0334
   73RES   H35230736   7.718   4.404   1.703 -1.5142  2.1112 -1.2071
   73RES   H35330737   7.719   4.518   1.832  4.6506 -2.1269  0.2336
   73RES   H35430738   7.722   4.342   2.008 -0.5073  0.6191 -0.7066
   73RES   H35530739   0.029   4.238   1.865  1.1057 -1.2025 -0.2893
   73RES   H35630740   0.233   4.363   1.813  2.0158  2.1972 -0.6110
   73RES   H35730741   0.239   4.306   1.972 -0.3094 -1.4837 -2.4575
   73RES   H35830742   0.217   4.476   1.942  0.5078 -0.0708  2.1221
   73RES   C35930743   7.236   4.524   1.865  0.4500 -0.0916 -0.1039
   73RES   C36030744   7.240   4.672   1.896  0.1124 -0.4748  0.2763
   73RES   C36130745   7.131   4.739   1.809  0.7529  0.4414  0.2397
   73RES   C36230746   7.144   4.897   1.810 -0.3056  0.4705  0.4644
   73RES   C36330747   7.273   4.941   1.734  0.0218 -0.5942  0.0812
   73RES   C36430748   7.306   5.089   1.730  0.0661  0.5492 -0.4851
   73RES   C36530749   7.348   5.156   1.867 -0.4646  0.1079  0.4364
   73RES   H36630750   7.289   4.469   1.943 -3.8437 -0.1960  2.9199
   73RES   H36730751   7.133   4.497   1.890  0.1617  1.1346  0.0612
   73RES   H36830752   7.337   4.715   1.875 -1.1543  2.8747  1.0015
   73RES   H36930753   7.125   4.711   1.704 -3.2469 -1.6445  0.9177
   73RES   H37030754   7.035   4.709   1.849 -0.5561  2.2093 -1.5165
   73RES   H37130755   7.058   4.933   1.754 -0.9105 -1.4025  0.1308
   73RES   H37230756   7.150   4.927   1.915 -1.6027  0.4355  0.5454
   73RES   H37330757   7.359   4.885   1.771  1.1300  1.6514  0.9635
   73RES   H37430758   7.259   4.903   1.632 -0.2202  1.7019 -0.7738
   73RES   H37530759   7.389   5.095   1.660 -0.4034 -2.0437 -1.3208
   73RES   H37630760   7.219   5.133   1.680 -0.3448 -0.8500 -1.0128
   73RES   H37730761   7.268   5.129   1.937 -0.0128 -2.2156  0.0885
   73RES   H37830762   7.440   5.111   1.903 -1.1695 -1.9210 -0.2279
   73RES   H37930763   7.361   5.263   1.854 -0.7264 -0.0633 -1.4315
   73RES   C38030764   7.209   4.687   2.046 -0.1180  0.2644  0.6631
   73RES   C38130765   7.318   4.666   2.146  0.1928 -0.3330 -0.4912
   73RES   C38230766   7.439   4.767   2.124  0.2835  0.0072  0.0232
   73RES   C38330767   7.575   4.693   2.075  0.3533  0.8824  0.1561
   73RES   C38430768   7.692   4.791   2.084  0.0947 -0.6682 -0.3883
   73RES   C38530769   0.096   4.735   2.034 -0.2066  0.5601 -0.7683
   73RES   C38630770   0.200   4.841   2.055  0.4219  0.1489 -0.2890
   73RES   H38730771   7.165   4.785   2.064  3.2086  1.7495  1.0379
   73RES   H38830772   7.137   4.608   2.067  0.3002 -1.1687 -2.9659
   73RES   H38930773   7.354   4.565   2.124  1.4577  0.4193 -1.9724
   73RES   H39030774   7.471   4.809   2.220  0.6601 -0.6281  0.1740
   73RES   H39130775   7.415   4.854   2.064 -1.9279 -0.5197  0.0926
   73RES   H39230776   7.597   4.605   2.136 -1.5797 -0.4175 -0.9775
   73RES   H39330777   7.548   4.661   1.975 -0.7692  0.0050  0.7347
   73RES   H39430778   7.671   4.873   2.014  0.9610 -0.7617 -0.7725
   73RES   H39530779   7.703   4.838   2.182 -0.7755 -0.5801 -0.3304
   73RES   H39630780   0.093   4.718   1.926 -0.1632  1.2937 -0.8921
   73RES   H39730781   0.112   4.639   2.084 -2.3458  0.9862  0.7725
   73RES   H39830782   0.168   4.930   2.001 -2.5242 -0.5025  0.2848
   73RES   H39930783   0.300   4.827   2.015  0.0500  0.5598 -1.3845
   73RES   H40030784   0.218   4.877   2.156 -0.5217  1.6768 -0.6458
   73RES   C40130785   7.259   4.669   2.287 -0.7005  0.5261 -0.7542
   73RES   C40230786   7.370   4.622   2.395  0.4940  0.3788 -0.0739
   73RES   C40330787   7.332   4.657   2.537 -0.1320  0.0406 -0.1481
   73RES   C40430788   7.436   4.635   2.645  0.6302  0.2255  0.0663
   73RES   C40530789   7.384   4.702   2.775  0.1496  0.1413  0.2412
   73RES   C40630790   7.482   4.677   2.891 -0.6961  0.3438  0.3675
   73RES   C40730791   7.456   4.768   3.008 -0.3196 -0.0371  0.4467
   73RES   H40830792   7.164   4.616   2.293 -1.8494  2.8980  3.9168
   73RES   H40930793   7.223   4.771   2.283 -3.0543 -0.2808 -0.6366
   73RES   H41030794   7.463   4.662   2.357  0.5783  1.8554  1.6467
   73RES   H41130795   7.244   4.598   2.562  0.1928 -0.5946 -0.4853
   73RES   H41230796   7.301   4.761   2.528 -1.2644 -0.4260 -1.7541
   73RES   H41330797   7.528   4.686   2.617 -0.2473  2.0652  0.4971
   73RES   H41430798   7.449   4.528   2.662  3.0831  0.6559  1.1750
   73RES   H41530799   7.367   4.808   2.753  0.7742  0.4151  1.0509
   73RES   H41630800   7.287   4.673   2.815  0.0998  1.6023  1.2501
   73RES   H41730801   7.479   4.573   2.923 -1.5422 -0.0483 -0.9755
   73RES   H41830802   7.585   4.693   2.858 -0.9876 -0.6312 -1.0378
   73RES   H41930803   7.366   4.739   3.064  0.1717  0.7882  1.6846
   73RES   H42030804   7.433   4.868   2.971 -0.7031 -0.0447  0.6563
   73RES   H42130805   7.537   4.770   3.080 -1.7101 -2.3360  2.1787
   73RES   H42230806   7.390   4.515   2.382  3.1365  1.0212 -1.6853
   74RES     C130807   0.312   5.317   7.233  0.0203 -0.0301 -0.3135
   74RES     C230808   0.402   5.195   7.187 -0.7410 -0.7502  0.7499
   74RES     C330809   0.320   5.076   7.157  0.4780  0.9678 -0.0519
   74RES     C430810   0.393   4.976   7.063 -0.6576 -0.2888 -0.2754
   74RES     C530811   0.303   4.851   7.036 -0.9571 -0.4856 -0.2215
   74RES     C630812   0.361   4.767   6.924 -0.3204 -0.4280 -0.5844
   74RES     C730813   0.268   4.653   6.876 -0.1682  1.2903  0.3006
   74RES     H830814   0.248   5.291   7.317 -0.3827 -2.3795 -1.3118
   74RES     H930815   0.247   5.339   7.148 -1.6056 -1.8731  0.4097
   74RES    H1030816   0.457   5.230   7.100 -1.6220  2.1685  1.3253
   74RES    H1130817   0.302   5.012   7.244 -1.5753  0.1920 -1.0120
   74RES    H1230818   0.217   5.095   7.128  0.7157  3.5184  0.6498
   74RES    H1330819   0.402   5.023   6.965  2.5245 -0.5411 -0.1728
   74RES    H1430820   0.488   4.951   7.111 -1.3510 -1.2633  0.6050
   74RES    H1530821   0.201   4.883   7.015  0.1393  2.7169 -0.8824
   74RES    H1630822   0.299   4.797   7.130 -0.3802  0.4372  0.3358
   74RES    H1730823   0.456   4.722   6.951 -0.3983  0.5915  1.5354
   74RES    H1830824   0.374   4.845   6.849  3.5708  2.9169  3.2823
   74RES    H1930825   0.176   4.687   6.830 -2.0066 -1.9123  1.4565
   74RES    H2030826   0.242   4.601   6.968  1.0480  0.1787  0.0249
   74RES    H2130827   0.312   4.576   6.813 -0.4637  0.5349  1.0053
   74RES    H2230828   0.373   5.401   7.266  0.6144 -1.3308  2.1068
   74RES    C2330829   0.521   5.159   7.283 -0.1680  0.8093  0.4305
   74RES    C2430830   0.625   5.273   7.310 -0.4245  0.6327  0.0723
   74RES    C2530831   0.731   5.275   7.193  0.0415  0.0904  0.2832
   74RES    C2630832   0.791   5.414   7.165  0.4513  0.1051 -0.3182
   74RES    C2730833   0.870   5.420   7.029  0.0274  0.0878  0.1833
   74RES    C2830834   0.971   5.310   6.976  0.7205  0.4421  0.4499
   74RES    C2930835   1.081   5.261   7.074 -0.0462  0.0448  0.0913
   74RES    H3030836   0.471   5.113   7.368  0.8463 -0.1254  0.5234
   74RES    H3130837   0.571   5.069   7.247  2.2402  2.7306 -1.2251
   74RES    H3230838   0.576   5.369   7.330 -0.4773  0.5140  0.5237
   74RES    H3330839   0.680   5.259   7.098  1.4591 -0.0780 -0.4484
   74RES    H3430840   0.806   5.198   7.206  2.1828  2.5028  2.8188
   74RES    H3530841   0.863   5.437   7.243  0.3125 -2.1557  0.5131
   74RES    H3630842   0.715   5.491   7.175 -0.5497 -0.8850 -0.2223
   74RES    H3730843   0.925   5.513   7.031  0.9809 -0.3758 -2.7814
   74RES    H3830844   0.793   5.436   6.954  1.5764  0.6874 -1.2850
   74RES    H3930845   1.018   5.345   6.884 -2.4921 -0.1780 -1.5160
   74RES    H4030846   0.907   5.225   6.953  2.0515 -0.3241 -0.4767
   74RES    H4130847   1.050   5.220   7.170  1.9448 -1.8050  0.0111
   74RES    H4230848   1.126   5.172   7.028 -0.5777 -0.6562  0.9015
   74RES    H4330849   1.162   5.331   7.096  0.7847 -0.7537 -0.3647
   74RES    C4430850   0.701   5.268   7.447  0.3345 -0.8525  0.7130
   74RES    C4530851   0.620   5.316   7.569 -0.1165 -0.4867 -0.3956
   74RES    C4630852   0.706   5.271   7.684  0.0413 -0.1364 -0.2511
   74RES    C4730853   0.652   5.295   0.095  0.3285 -0.3791  0.1634
   74RES    C4830854   0.758   5.252   0.208 -0.2288  0.2320 -0.3237
   74RES    C4930855   0.704   5.279   0.348  0.8593 -0.1192 -0.4113
   74RES    C5030856   0.782   5.215   0.466  0.0022  0.3888 -0.1477
   74RES    H5130857   0.794   5.324   7.435  0.7688 -1.5129  0.9759
   74RES    H5230858   0.722   5.162   7.464 -2.3948 -1.4845  0.3819
   74RES    H5330859   0.532   5.251   7.572  1.9345 -3.3039  0.7429
   74RES    H5430860   0.801   5.323   7.691  0.5858 -1.2095  0.5226
   74RES    H5530861   0.729   5.165   7.677  1.8922  0.1737  0.7076
   74RES    H5630862   0.634   5.400   0.119  1.2987 -0.5077  1.5363
   74RES    H5730863   0.557   5.243   0.109 -0.0294 -0.1506 -1.3651
   74RES    H5830864   0.851   5.309   0.206 -0.6655  1.0136  1.0131
   74RES    H5930865   0.788   5.148   0.203  3.7950  1.2291  1.4320
   74RES    H6030866   0.609   5.229   0.360  0.8762  0.0673  0.5446
   74RES    H6130867   0.688   5.386   0.360  1.3607 -0.1544  0.6049
   74RES    H6230868   0.713   5.237   0.547 -0.1035  0.1248 -0.1660
   74RES    H6330869   0.881   5.260   0.480 -0.1356  1.0190 -1.1075
   74RES    H6430870   0.794   5.108   0.455  0.6766  0.3900  0.5352
   74RES    C6530871   0.574   5.464   7.571 -0.2519  0.0044 -0.4134
   74RES    C6630872   0.421   5.491   7.577 -0.0641 -0.7476 -0.2287
   74RES    C6730873   0.375   5.623   7.506 -0.2013  0.2929 -0.2774
   74RES    C6830874   0.394   5.758   7.585 -0.0085 -0.3997  0.9989
   74RES    C6930875   0.325   5.880   7.526 -0.0429 -0.5089 -0.2184
   74RES    C7030876   0.326   6.000   7.620  0.5873  0.0741 -0.5624
   74RES    C7130877   0.287   6.127   7.553  0.1689  0.1262  0.0598
   74RES    H7230878   0.620   5.517   7.654 -1.6181 -0.1431  0.4655
   74RES    H7330879   0.619   5.511   7.484 -0.3728  0.6882 -0.1077
   74RES    H7430880   0.371   5.407   7.528 -1.9004  0.7331 -0.9839
   74RES    H7530881   0.425   5.636   7.410 -1.4803  1.5707 -0.7947
   74RES    H7630882   0.268   5.611   7.490 -0.2931 -0.3020  0.7133
   74RES    H7730883   0.363   5.760   7.689  2.0722 -0.2780  1.6320
   74RES    H7830884   0.496   5.794   7.587  0.1866 -0.8400 -0.5397
   74RES    H7930885   0.381   5.916   7.439 -0.4827 -0.7022 -0.5860
   74RES    H8030886   0.223   5.857   7.494 -1.5617  1.2078  3.2024
   74RES    H8130887   0.431   6.000   7.649  0.9209  1.6678 -1.7363
   74RES    H8230888   0.272   5.989   7.714  0.4281 -0.4120 -0.7114
   74RES    H8330889   0.183   6.117   7.523  0.7620 -0.8835 -1.7366
   74RES    H8430890   0.303   6.209   7.623  0.9077 -1.6905  2.1062
   74RES    H8530891   0.345   6.149   7.464  0.1466 -0.3875 -0.0850
   74RES    C8630892   0.380   5.483   7.726  0.0540 -0.2604  0.0808
   74RES    C8730893   0.229   5.498   0.029  1.0076 -0.1999 -0.2159
   74RES    C8830894   0.134   5.396   7.682 -0.1125 -0.0559  0.1317
   74RES    C8930895   0.144   5.251   0.002 -0.6203  0.4781 -0.0020
   74RES    C9030896   0.057   5.145   7.652  0.3863  0.8022 -0.0347
   74RES    C9130897   7.630   5.155   7.687 -0.5159  0.2121  0.1375
   74RES    C9230898   7.551   5.040   7.627 -0.1535 -0.1540  0.2592
   74RES    H9330899   0.402   5.381   0.031 -0.6501 -0.3455  0.3169
   74RES    H9430900   0.445   5.549   0.056 -1.1927  0.1607  1.0465
   74RES    H9530901   0.191   5.596   7.725  2.9363  0.4601 -0.5570
   74RES    H9630902   0.026   5.413   7.689  0.2035  2.1318 -0.1331
   74RES    H9730903   0.163   5.407   7.578  1.1227 -0.3968  0.4369
   74RES    H9830904   0.251   5.230   0.000 -0.3383  1.8936 -0.2207
   74RES    H9930905   0.118   5.240   0.107  0.6887 -0.2481  0.2440
   74RES   H10030906   0.096   5.050   7.688  0.0709  1.0153  0.8885
   74RES   H10130907   0.070   5.154   7.544 -0.6100 -0.2888 -0.2604
   74RES   H10230908   7.608   5.166   0.067  1.3132  0.5407  0.5059
   74RES   H10330909   7.595   5.249   7.643  1.5751  0.6573 -0.6537
   74RES   H10430910   7.562   4.941   7.673  0.1316  0.1331  0.8165
   74RES   H10530911   7.581   5.021   7.524 -1.5509  0.5005 -0.2749
   74RES   H10630912   7.445   5.060   7.616  0.3564  3.0850  0.9513
   74RES   C10730913   0.199   5.488   0.187  0.1556 -0.1158 -0.1807
   74RES   C10830914   0.249   5.596   0.278 -0.3180 -0.7591 -0.1940
   74RES   C10930915   0.207   5.741   0.249  0.4309 -1.2315 -0.1060
   74RES   C11030916   0.070   5.793   0.291 -0.1317 -0.9264  0.1855
   74RES   C11130917   0.046   5.944   0.251 -0.3580  0.6151  0.4273
   74RES   C11230918   7.623   5.986   0.258  0.0525 -0.7175 -0.0109
   74RES   C11330919   7.606   6.134   0.215  0.2528  0.1275 -0.0388
   74RES   H11430920   0.229   5.389   0.222  1.6920  0.0533 -0.9597
   74RES   H11530921   0.091   5.496   0.201  0.0246 -0.3672 -1.0343
   74RES   H11630922   0.357   5.604   0.259 -0.4888  0.3399 -0.7891
   74RES   H11730923   0.214   5.772   0.145  1.5693  0.3623  0.4278
   74RES   H11830924   0.279   5.809   0.295 -0.7757 -0.6039  0.8852
   74RES   H11930925   0.004   5.718   0.247  0.1980 -0.2453 -1.5288
   74RES   H12030926   0.054   5.776   0.397 -0.5656 -1.4430  0.0356
   74RES   H12130927   0.080   5.961   0.149  0.0658  0.1406  0.4818
   74RES   H12230928   0.100   6.011   0.318  0.7069  0.2672 -0.0632
   74RES   H12330929   7.579   5.925   0.179  2.8616 -1.0344 -1.3787
   74RES   H12430930   7.585   5.954   0.355  3.6492 -1.8477  1.0883
   74RES   H12530931   7.672   6.200   0.270  1.1044 -0.0759 -0.7985
   74RES   H12630932   7.628   6.146   0.108 -0.7724  0.4101 -0.2279
   74RES   H12730933   7.508   6.177   0.234  1.3171  2.8291 -0.4695
   74RES   C12830934   0.222   5.560   0.427  0.1691 -0.2117 -0.2050
   74RES   C12930935   0.295   5.656   0.528  0.3388 -0.3100 -0.4511
   74RES   C13030936   0.444   5.625   0.540 -0.1551 -0.4532 -0.0364
   74RES   C13130937   0.524   5.730   0.620 -0.5273 -0.5934  0.3242
   74RES   C13230938   0.552   5.857   0.531 -0.5677  0.5353 -0.1090
   74RES   C13330939   0.684   5.934   0.563  0.1227  0.0174 -0.2853
   74RES   C13430940   0.706   6.068   0.488  0.0487 -0.3715  0.2742
   74RES   H13530941   0.113   5.561   0.428  0.1216 -1.0147 -2.3846
   74RES   H13630942   0.229   5.453   0.445 -2.2237 -0.2216  0.8991
   74RES   H13730943   0.284   5.761   0.501 -1.3723 -0.2034  0.5694
   74RES   H13830944   0.492   5.598   0.446  1.0637 -0.8225  0.6893
   74RES   H13930945   0.449   5.530   0.592  0.1757 -0.4741 -0.1083
   74RES   H14030946   0.613   5.675   0.649  0.3102 -0.7609 -2.3993
   74RES   H14130947   0.474   5.753   0.714 -2.1044  0.2688 -0.6918
   74RES   H14230948   0.472   5.917   0.573  2.0668  4.3047 -0.2131
   74RES   H14330949   0.541   5.842   0.424 -1.3319 -0.3341  0.0866
   74RES   H14430950   0.768   5.869   0.539 -1.2563 -2.3265  0.9461
   74RES   H14530951   0.682   5.941   0.672  0.2446 -0.4519 -0.2492
   74RES   H14630952   0.738   6.055   0.385 -0.5487  1.0296 -0.0923
   74RES   H14730953   0.793   6.122   0.526 -0.8896  1.0703  0.3783
   74RES   H14830954   0.619   6.132   0.495  0.6733  0.4986  0.1031
   74RES   C14930955   0.230   5.632   0.663 -0.1708 -0.2247  0.7882
   74RES   C15030956   0.099   5.713   0.687 -0.3756 -0.7181  0.2441
   74RES   C15130957   0.126   5.861   0.707 -0.4002 -0.0973  0.4739
   74RES   C15230958   0.006   5.956   0.703 -0.3001  0.5488 -0.4513
   74RES   C15330959   0.043   6.100   0.682 -0.3208 -0.5583 -0.1216
   74RES   C15430960   7.648   6.188   0.659 -0.1909  0.6786  0.7804
   74RES   C15530961   7.683   6.336   0.616 -0.6757  0.7760  0.3493
   74RES   H15630962   0.206   5.526   0.673 -2.6980  0.1035 -1.1441
   74RES   H15730963   0.299   5.654   0.743 -0.5579  0.3272  0.9738
   74RES   H15830964   0.042   5.708   0.595 -0.5650 -1.1964  0.3863
   74RES   H15930965   0.188   5.878   0.795  0.4761  1.0632 -0.3493
   74RES   H16030966   0.192   5.900   0.629 -1.3308  2.2922  0.8495
   74RES   H16130967   7.676   5.940   0.795  1.4607  0.9427  0.7104
   74RES   H16230968   7.671   5.931   0.617 -0.5104  2.8897 -0.9967
   74RES   H16330969   0.098   6.115   0.589 -0.2540  0.1988  0.0396
   74RES   H16430970   0.094   6.145   0.767 -0.5607  3.0480 -1.8016
   74RES   H16530971   7.585   6.192   0.748 -1.3934  0.7229 -0.0549
   74RES   H16630972   7.578   6.147   0.585  2.2692 -3.4286  0.5761
   74RES   H16730973   0.039   6.379   0.671 -0.5350  2.0250 -0.8205
   74RES   H16830974   7.592   6.392   0.634 -0.4448  1.4995 -0.6913
   74RES   H16930975   7.698   6.336   0.508 -2.0626  2.2924  0.1303
   74RES   C17030976   0.019   5.655   0.803 -0.1651  0.5411 -0.7648
   74RES   C17130977   7.655   5.538   0.755 -0.7001  0.5334  0.0849
   74RES   C17230978   7.651   5.418   0.858 -0.1881  0.4906  0.0984
   74RES   C17330979   0.046   5.322   0.853 -0.4330  0.2770 -0.0790
   74RES   C17430980   0.028   5.205   0.948 -0.4225  0.3066 -0.5891
   74RES   C17530981   0.138   5.102   0.919  0.3985  0.3067 -0.1876
   74RES   C17630982   0.124   4.980   1.007  0.0867 -1.0480 -0.2497
   74RES   H17730983   7.686   5.727   0.858 -1.1104 -1.6433  1.1636
   74RES   H17830984   0.088   5.619   0.880 -1.3526 -1.7503 -0.7224
   74RES   H17930985   7.708   5.494   0.670 -0.0176 -1.0405  1.2933
   74RES   H18030986   7.557   5.365   0.837 -0.1601  0.9928 -1.3864
   74RES   H18130987   7.652   5.451   0.961 -0.1204 -3.4783  1.4630
   74RES   H18230988   0.139   5.369   0.882 -0.2968  0.3742 -0.6647
   74RES   H18330989   0.053   5.277   0.754  1.7624 -0.7764  0.5333
   74RES   H18430990   7.654   5.165   0.933  0.7611 -2.2930 -1.9045
   74RES   H18530991   0.042   5.249   1.047  0.7555 -0.8096 -0.2485
   74RES   H18630992   0.233   5.151   0.942  0.6186 -0.2877  0.1657
   74RES   H18730993   0.137   5.070   0.815  0.3901  0.4471 -0.2304
   74RES   H18830994   0.035   4.928   0.971 -0.5859 -0.0555 -0.0555
   74RES   H18930995   0.108   5.004   1.112 -0.2101 -1.4410 -0.2033
   74RES   H19030996   0.217   4.926   0.994  3.1383  3.7760  0.0963
   74RES   C19130997   7.516   5.596   0.724  0.6059 -0.1081  0.0350
   74RES   C19230998   7.411   5.508   0.661 -0.6219  0.3375  0.6528
   74RES   C19330999   7.275   5.581   0.678 -0.0131 -0.2099 -0.2360
   74RES   C19431000   7.214   5.555   0.816 -0.3399  0.3693  0.2521
   74RES   C19531001   7.073   5.625   0.841 -0.3214  0.4285  0.1267
   74RES   C19631002   7.093   5.777   0.856 -0.1199  0.4771 -0.0266
   74RES   C19731003   6.967   5.856   0.902  0.0085 -0.3002  0.0710
   74RES   H19831004   7.522   5.685   0.661  1.1501 -0.4541 -0.4087
   74RES   H19931005   7.478   5.630   0.820 -0.1115 -0.6418 -0.0541
   74RES   H20031006   7.408   5.408   0.705 -0.9937  0.8121  1.7300
   74RES   H20131007   7.199   5.531   0.618 -0.0941  0.7484 -0.9336
   74RES   H20231008   7.282   5.684   0.643 -2.1917  0.0117 -0.1170
   74RES   H20331009   7.280   5.600   0.890  0.0059 -0.0516  0.2007
   74RES   H20431010   7.216   5.454   0.855  0.0031  0.6714  1.0155
   74RES   H20531011   6.996   5.594   0.770  0.6684  0.3640 -0.9260
   74RES   H20631012   7.045   5.582   0.937 -1.4583 -3.1882 -1.7271
   74RES   H20731013   7.122   5.814   0.757 -3.5211  1.2056 -0.8252
   74RES   H20831014   7.180   5.794   0.919  2.4704 -2.6976 -2.6078
   74RES   H20931015   6.945   5.846   1.008 -2.0545  2.5576 -0.0130
   74RES   H21031016   6.877   5.834   0.844 -0.7949  1.6320  0.5198
   74RES   H21131017   6.987   5.962   0.884 -0.4105 -0.3298 -0.5831
   74RES   C21231018   7.454   5.488   0.510  0.0460  0.3219 -0.2385
   74RES   C21331019   7.360   5.390   0.422 -0.1139 -0.4202  0.2133
   74RES   C21431020   7.395   5.376   0.276 -0.2658  0.9202  0.2228
   74RES   C21531021   7.336   5.470   0.170 -0.0451 -0.2725 -0.3405
   74RES   C21631022   7.376   5.444   0.024  0.2584  0.2854 -0.2751
   74RES   C21731023   7.284   5.349   7.666  0.5766  0.3705 -0.0451
   74RES   C21831024   7.300   5.355   7.510  0.7553 -0.0639  0.2163
   74RES   H21931025   7.557   5.454   0.502 -0.2489 -0.7382  0.3063
   74RES   H22031026   7.450   5.585   0.462 -0.9504  0.9560  1.0931
   74RES   H22131027   7.263   5.441   0.418  0.1786  0.1114 -0.0852
   74RES   H22231028   7.504   5.366   0.268 -0.1913  0.1720  1.8712
   74RES   H22331029   7.354   5.278   0.251 -1.8417  0.7727  3.1629
   74RES   H22431030   7.371   5.573   0.182  0.3675 -0.4259 -0.2282
   74RES   H22531031   7.230   5.481   0.191  0.2452 -0.2873  1.1806
   74RES   H22631032   7.373   5.543   7.705 -1.3836  0.2287 -0.3003
   74RES   H22731033   7.477   5.404   0.017  0.7803  1.7551 -1.3508
   74RES   H22831034   7.270   5.246   7.700  1.8453  0.1824 -0.0839
   74RES   H22931035   7.186   5.395   7.681 -0.0666 -0.8877 -0.2889
   74RES   H23031036   7.387   5.310   7.464 -0.1515 -0.7600 -0.8571
   74RES   H23131037   7.311   5.460   7.484  0.0764 -0.3693 -1.3623
   74RES   H23231038   7.217   5.312   7.452  0.8325 -1.0582  0.8386
   74RES   C23331039   7.351   5.244   0.483 -0.5911  0.2987  0.0697
   74RES   C23431040   7.484   5.175   0.498 -0.7275  0.3884  0.0765
   74RES   C23531041   7.495   5.111   0.640  0.0559  0.1691 -0.3379
   74RES   C23631042   7.388   5.008   0.669 -0.1941 -0.0046 -0.1387
   74RES   C23731043   7.395   4.954   0.813 -0.1474  0.8785 -0.8538
   74RES   C23831044   7.501   4.840   0.850 -0.0211 -0.3852  0.4468
   74RES   C23931045   7.504   4.815   1.002  0.4507 -0.4652  0.4023
   74RES   H24031046   7.276   5.184   0.431 -0.3868 -0.2446  0.4023
   74RES   H24131047   7.302   5.253   0.580 -2.0344  0.2088 -0.6358
   74RES   H24231048   7.559   5.248   0.468  0.9992 -1.9457 -1.4128
   74RES   H24331049   7.480   5.185   0.718 -1.9808 -2.3191  1.7188
   74RES   H24431050   7.596   5.075   0.661 -0.5305 -0.7819  0.8803
   74RES   H24531051   7.406   4.918   0.611 -0.4713  0.4166 -0.8756
   74RES   H24631052   7.291   5.056   0.660  0.6436  2.0181  1.2105
   74RES   H24731053   7.299   4.904   0.825  0.1938 -0.0885 -2.0712
   74RES   H24831054   7.398   5.045   0.873 -2.0279  1.9885 -2.3528
   74RES   H24931055   7.466   4.743   0.816  1.7769 -1.1997  0.8690
   74RES   H25031056   7.596   4.864   0.802 -0.4351 -0.8814 -0.6236
   74RES   H25131057   7.404   4.802   1.045 -0.4584 -1.8606 -2.0120
   74RES   H25231058   7.560   4.729   1.040 -0.6285 -1.1475  0.4680
   74RES   H25331059   7.550   4.897   1.057  0.6832 -0.9269  0.9084
   74RES   C25431060   7.490   5.074   0.382  0.0539 -0.0700  0.1874
   74RES   C25531061   7.625   5.006   0.384  0.0458  0.1777  0.2764
   74RES   C25631062   0.024   5.102   0.390  0.1712  0.5671  0.0413
   74RES   C25731063   0.164   5.026   0.390 -0.4493 -0.4183  0.3571
   74RES   C25831064   0.272   5.094   0.468 -0.3252  0.1998 -0.1585
   74RES   C25931065   0.404   5.022   0.472  0.1539 -0.3995 -0.9522
   74RES   C26031066   0.405   4.894   0.557 -0.0169 -0.1153  0.3158
   74RES   H26131067   7.480   5.118   0.283 -2.0821 -0.4602  0.2021
   74RES   H26231068   7.415   4.995   0.389 -0.1061  0.0510 -0.1510
   74RES   H26331069   7.629   4.949   0.477 -2.0269 -1.1632 -0.4336
   74RES   H26431070   0.020   5.156   0.485  0.1682  0.2798  0.2057
   74RES   H26531071   0.025   5.180   0.314  0.0346  0.9242  0.3968
   74RES   H26631072   0.140   4.941   0.453  1.2556 -0.1631  1.3810
   74RES   H26731073   0.191   4.982   0.294 -0.0570  1.9211 -0.6384
   74RES   H26831074   0.231   5.113   0.567  0.1014  0.4952 -0.0355
   74RES   H26931075   0.271   5.196   0.429 -3.3758  1.3046  2.5868
   74RES   H27031076   0.423   4.988   0.370  0.1474  1.0115 -1.4366
   74RES   H27131077   0.480   5.092   0.508 -1.1410  0.5291 -0.0109
   74RES   H27231078   0.505   4.851   0.558  0.5154  1.0498 -1.4986
   74RES   H27331079   0.375   4.921   0.658 -1.0597  0.9142 -0.2595
   74RES   H27431080   0.344   4.816   0.511  0.9213  0.2363 -1.5530
   74RES   C27531081   7.625   4.914   0.251 -0.2768 -0.5268 -0.1010
   74RES   C27631082   7.643   4.763   0.283 -0.4454 -0.0964 -0.1043
   74RES   C27731083   7.675   4.685   0.159 -0.1196  0.6817  0.6739
   74RES   C27831084   0.086   4.716   0.097 -0.1919 -0.0323  1.0078
   74RES   C27931085   0.114   4.615   7.707 -0.4603  0.1423 -0.0590
   74RES   C28031086   0.225   4.647   7.602 -0.1254 -0.4461 -0.4943
   74RES   C28131087   0.197   4.765   7.511  0.0345 -0.0231 -0.4406
   74RES   H28231088   7.717   4.941   0.198  1.6637 -1.9158  2.4824
   74RES   H28331089   7.535   4.936   0.193  0.9035 -2.1476 -2.6412
   74RES   H28431090   7.725   4.758   0.354  0.4907 -3.0317 -1.3008
   74RES   H28531091   7.661   4.577   0.162 -0.2363  0.6916  0.5061
   74RES   H28631092   7.598   4.710   0.086  0.8134 -1.0365 -0.9205
   74RES   H28731093   0.162   4.719   0.174  2.3731 -1.8583 -1.3393
   74RES   H28831094   0.084   4.813   0.048  1.5861 -1.0508 -1.1615
   74RES   H28931095   0.018   4.609   7.655 -0.4633  0.0711 -0.0436
   74RES   H29031096   0.129   4.520   0.030 -0.5591  0.1544 -0.0048
   74RES   H29131097   0.311   4.668   7.665 -2.2120  0.8272  2.0022
   74RES   H29231098   0.249   4.551   7.555  2.4908 -0.1137  0.0702
   74RES   H29331099   0.099   4.762   7.463 -1.9322 -1.4574  3.3530
   74RES   H29431100   0.282   4.778   7.445  0.1164 -3.5796 -1.1029
   74RES   H29531101   0.199   4.861   7.563 -1.6379  0.1186 -0.6038
   74RES   C29631102   7.516   4.712   0.353  0.0830  0.3128 -0.1048
   74RES   C29731103   7.531   4.573   0.431 -0.2770  0.4675  0.1757
   74RES   C29831104   7.388   4.527   0.478  0.4809  0.3801 -1.1096
   74RES   C29931105   7.383   4.379   0.509  0.6492  0.1800 -0.4657
   74RES   C30031106   7.245   4.343   0.557  0.1026 -0.1512 -0.0592
   74RES   C30131107   7.235   4.197   0.587  0.5862  0.7123  0.0241
   74RES   C30231108   7.092   4.159   0.626 -0.3408  0.5421  0.4046
   74RES   H30331109   7.486   4.790   0.423  0.7794  0.3010  0.2135
   74RES   H30431110   7.438   4.703   0.278  0.8922  2.1138 -1.2156
   74RES   H30531111   7.577   4.511   0.354  1.4848  1.9450  0.0044
   74RES   H30631112   7.361   4.578   0.570 -0.7696 -0.3418 -1.0623
   74RES   H30731113   7.301   4.546   0.413 -0.4454  0.0261  0.0114
   74RES   H30831114   7.458   4.350   0.584  3.2817  1.5789 -2.4739
   74RES   H30931115   7.406   4.322   0.419  0.3334  0.0663 -0.4745
   74RES   H31031116   7.179   4.365   0.474 -1.2629 -2.3605  0.3816
   74RES   H31131117   7.219   4.399   0.647  0.7568 -1.6325  1.0696
   74RES   H31231118   7.259   4.136   0.499  0.3807 -0.5069  0.7945
   74RES   H31331119   7.306   4.159   0.661  0.3793  0.0435 -0.1150
   74RES   H31431120   7.086   4.056   0.660 -2.6000  0.7926  0.8755
   74RES   H31531121   7.053   4.218   0.709 -0.7308 -1.7545  1.9123
   74RES   H31631122   7.024   4.155   0.541 -0.1654  0.4687  0.2696
   74RES   C31731123   7.632   4.577   0.546 -0.0471  0.5036 -0.1345
   74RES   C31831124   0.050   4.525   0.516 -0.4669 -0.1055 -0.7471
   74RES   C31931125   0.156   4.579   0.611 -0.4664 -0.2028  0.1151
   74RES   C32031126   0.141   4.533   0.759  0.7923 -0.4499 -0.0387
   74RES   C32131127   0.242   4.596   0.853 -0.0194 -0.3271 -0.4888
   74RES   C32231128   0.252   4.540   0.993  0.4013 -0.2245 -0.6366
   74RES   C32331129   0.126   4.588   1.073  0.0522 -0.2616 -0.9697
   74RES   H32431130   7.586   4.539   0.637 -0.1613 -0.0144 -0.4070
   74RES   H32531131   7.647   4.684   0.562 -1.9832  0.6993  0.4230
   74RES   H32631132   0.072   4.561   0.415  1.8949  0.3555 -0.1097
   74RES   H32731133   0.162   4.688   0.611  2.5574 -0.3241  1.0875
   74RES   H32831134   0.257   4.556   0.575 -0.4169 -1.7624  1.2113
   74RES   H32931135   0.151   4.424   0.766  0.9537 -0.4205  0.1831
   74RES   H33031136   0.039   4.552   0.792  0.7781  1.4119 -1.1167
   74RES   H33131137   0.234   4.705   0.844  1.3744  0.0497  2.3741
   74RES   H33231138   0.340   4.571   0.811  0.5855  1.8150 -0.4235
   74RES   H33331139   0.339   4.586   1.039  1.5919 -0.0042 -3.0474
   74RES   H33431140   0.250   4.431   0.984  1.7677 -0.4885  1.8898
   74RES   H33531141   0.107   4.691   1.042  0.6538 -0.4329 -1.9511
   74RES   H33631142   0.151   4.586   1.179 -2.5033 -2.6305 -0.3822
   74RES   H33731143   0.036   4.528   1.070  0.4205 -0.9474  1.1991
   74RES   C33831144   0.053   4.375   0.501 -0.5209 -0.0553 -1.0779
   74RES   C33931145   0.176   4.312   0.430  0.0375 -0.6459 -0.4530
   74RES   C34031146   0.176   4.341   0.278  0.2325  0.0539  0.1841
   74RES   C34131147   0.318   4.349   0.214  0.0024 -0.4664 -0.4494
   74RES   C34231148   0.398   4.475   0.252 -0.3915 -0.4435 -0.5438
   74RES   C34331149   0.509   4.504   0.153  0.3402 -0.1579  0.1605
   74RES   C34431150   0.591   4.620   0.219 -0.1934 -0.1214  0.3066
   74RES   H34531151   7.692   4.332   0.452 -0.9148  0.5366 -0.8983
   74RES   H34631152   0.045   4.334   0.601 -1.1676  3.8759  0.5466
   74RES   H34731153   0.269   4.357   0.466 -1.1770  0.5403  1.3131
   74RES   H34831154   0.116   4.262   0.233 -1.4584  0.4438  1.7366
   74RES   H34931155   0.128   4.435   0.254  1.9036  0.5868 -1.1643
   74RES   H35031156   0.318   4.341   0.105  2.1406 -1.7624 -0.3830
   74RES   H35131157   0.378   4.260   0.233 -0.5433 -0.6335  0.5154
   74RES   H35231158   0.335   4.564   0.259 -0.9185 -0.6234 -2.7756
   74RES   H35331159   0.451   4.462   0.346 -0.3416  0.3515 -0.4552
   74RES   H35431160   0.564   4.414   0.127 -0.4585 -0.7085  0.4000
   74RES   H35531161   0.473   4.534   0.054 -0.5132 -1.2633  0.1353
   74RES   H35631162   0.647   4.586   0.306  2.6433 -1.5001 -1.9829
   74RES   H35731163   0.527   4.703   0.249 -2.5576 -1.6512 -0.3753
   74RES   H35831164   0.665   4.668   0.154 -0.5854  0.8841  0.5938
   74RES   C35931165   0.192   4.168   0.465 -0.3274 -0.4944  0.9371
   74RES   C36031166   0.259   4.131   0.598  0.3073  0.0856  0.9812
   74RES   C36131167   0.175   4.042   0.685 -0.1242  0.8227  0.2896
   74RES   C36231168   0.041   4.095   0.722  0.0882  0.3256  0.2952
   74RES   C36331169   7.697   3.986   0.808  0.5178 -0.1940 -0.7133
   74RES   C36431170   7.547   3.983   0.807 -0.4142  0.8913 -0.2749
   74RES   C36531171   7.495   3.880   0.918 -0.2649  0.0101 -0.0491
   74RES   H36631172   0.233   4.111   0.381 -3.7296 -0.8962 -0.5506
   74RES   H36731173   0.095   4.121   0.445 -0.4305  0.3253 -0.5648
   74RES   H36831174   0.282   4.228   0.643  0.3798  1.0892 -1.1663
   74RES   H36931175   0.152   3.948   0.636  2.3885 -0.1311  0.8514
   74RES   H37031176   0.226   4.016   0.778  0.3379 -2.2874 -0.7967
   74RES   H37131177   0.045   4.195   0.767 -0.4723  0.2372  0.5455
   74RES   H37231178   7.706   4.101   0.633  1.1714  0.3761 -0.4628
   74RES   H37331179   0.007   3.891   0.771  0.5907 -0.3979 -0.1317
   74RES   H37431180   7.721   3.982   0.915 -2.0323  1.2167 -0.0522
   74RES   H37531181   7.511   4.085   0.820 -2.3147  0.3947 -1.4232
   74RES   H37631182   7.532   3.950   0.704 -0.0650  1.0956 -0.3926
   74RES   H37731183   7.557   3.793   0.896 -0.6506 -0.5912  1.1686
   74RES   H37831184   7.513   3.914   1.020  1.0957 -1.6286  0.2811
   74RES   H37931185   7.389   3.862   0.901 -0.1049 -0.1565 -0.8625
   74RES   C38031186   0.405   4.067   0.576 -0.1331 -0.3440 -0.2306
   74RES   C38131187   0.526   4.139   0.497 -0.1719  0.4012  0.0471
   74RES   C38231188   0.591   4.242   0.591  0.0372 -0.4830 -0.3141
   74RES   C38331189   0.683   4.351   0.521 -0.6744 -0.0054  0.1952
   74RES   C38431190   0.722   4.471   0.605 -0.3829  0.2150  0.1557
   74RES   C38531191   0.611   4.569   0.608  0.0412  0.3057  0.0132
   74RES   C38631192   0.591   4.650   0.744  0.3864 -0.4748 -0.0805
   74RES   H38731193   0.437   4.029   0.673 -2.5101  1.0191  1.1356
   74RES   H38831194   0.384   3.977   0.518  0.8169 -0.8038  0.1309
   74RES   H38931195   0.494   4.197   0.411  3.3698 -0.8498 -2.2083
   74RES   H39031196   0.653   4.194   0.667  1.2683 -0.9009 -1.5642
   74RES   H39131197   0.510   4.295   0.641  1.4595 -1.5135  3.2314
   74RES   H39231198   0.775   4.301   0.489 -0.0836  0.5166  1.0648
   74RES   H39331199   0.654   4.374   0.418 -1.1721 -1.4660 -0.0044
   74RES   H39431200   0.747   4.435   0.705 -0.3132 -0.5696 -0.1418
   74RES   H39531201   0.815   4.515   0.568  0.3363 -0.6309  0.9534
   74RES   H39631202   0.514   4.523   0.587  0.6046 -1.0138  0.2350
   74RES   H39731203   0.619   4.638   0.525  0.7739 -0.1410 -0.2891
   74RES   H39831204   0.569   4.583   0.826  2.3782  1.7852  2.3937
   74RES   H39931205   0.509   4.720   0.724  0.5226 -0.1517  0.4971
   74RES   H40031206   0.683   4.702   0.770  0.0277 -0.7226  1.6872
   74RES   C40131207   0.626   4.035   0.449  0.8602 -0.5909  0.0142
   74RES   C40231208   0.573   3.962   0.326  0.4397  0.2621 -0.4336
   74RES   C40331209   0.671   3.861   0.270  0.0863  0.8344 -0.5076
   74RES   C40431210   0.628   3.799   0.132 -0.5235 -0.4941 -0.3553
   74RES   C40531211   0.736   3.704   0.085 -0.2845  0.2372 -0.3175
   74RES   C40631212   0.741   3.684   7.662 -0.3391 -0.7430 -0.3320
   74RES   C40731213   0.872   3.626   7.613 -0.1436  0.0999 -0.1244
   74RES   H40831214   0.631   3.961   0.528 -0.9689 -0.8892 -0.1290
   74RES   H40931215   0.728   4.072   0.437  0.8572 -0.7655 -0.6104
   74RES   H41031216   0.553   4.032   0.246 -1.4150 -0.7488 -0.8915
   74RES   H41131217   0.714   3.792   0.343 -2.8695 -0.2600  0.2591
   74RES   H41231218   0.765   3.914   0.255  0.7865  0.3916  2.0164
   74RES   H41331219   0.620   3.880   0.059  1.7188  1.4897  1.5216
   74RES   H41431220   0.535   3.743   0.142 -0.9651  0.4396  0.9631
   74RES   H41531221   0.830   3.744   0.123 -0.5318  1.4926 -0.9827
   74RES   H41631222   0.730   3.607   0.134 -1.5634  0.9511  0.9624
   74RES   H41731223   0.664   3.610   7.647  0.6438 -1.1618 -3.7482
   74RES   H41831224   0.716   3.773   7.604  2.2878 -0.0205 -0.4656
   74RES   H41931225   0.934   3.711   7.584 -1.9885  1.7071  0.5838
   74RES   H42031226   0.837   3.567   7.528  1.1997  1.1455 -1.4218
   74RES   H42131227   0.912   3.551   7.681 -1.3895 -2.3771 -2.0525
   74RES   H42231228   0.476   3.913   0.338  1.0815 -0.9771 -0.2388
   75RES     C131229   4.704   3.239   0.344 -0.6953  0.4840 -0.4821
   75RES     C231230   4.854   3.267   0.349  0.1848  0.5725  0.0173
   75RES     C331231   4.885   3.359   0.232 -0.5323 -0.0893 -0.1776
   75RES     C431232   4.782   3.475   0.200 -0.0502 -0.0840  0.1691
   75RES     C531233   4.838   3.568   0.093  0.7678  0.0598 -0.3616
   75RES     C631234   4.749   3.688   0.079 -0.8529 -0.8059  0.0416
   75RES     C731235   4.787   3.772   7.681  0.0973 -0.5948  0.4999
   75RES     H831236   4.668   3.226   0.242  0.2031  1.1382 -0.8854
   75RES     H931237   4.641   3.308   0.399 -0.2990 -0.2507  0.9366
   75RES    H1031238   4.871   3.310   0.448 -1.3635 -1.6205  1.3167
   75RES    H1131239   4.984   3.403   0.243 -0.4605  0.0481 -1.2783
   75RES    H1231240   4.878   3.298   0.142 -0.2571  0.1717 -0.3788
   75RES    H1331241   4.688   3.448   0.152  0.1402  0.9441 -0.7961
   75RES    H1431242   4.762   3.532   0.290 -0.0657 -0.2136  0.2485
   75RES    H1531243   4.831   3.517   7.723 -3.0051 -0.7637  0.2699
   75RES    H1631244   4.937   3.607   0.117  0.2559  1.8253 -1.0388
   75RES    H1731245   4.755   3.744   0.172  0.0890 -0.1937 -0.3850
   75RES    H1831246   4.647   3.650   0.078 -1.1067 -0.1549  0.6246
   75RES    H1931247   4.881   3.823   7.701 -1.9522  2.3887  2.8407
   75RES    H2031248   4.715   3.847   7.651  1.7987  0.8385 -0.1269
   75RES    H2131249   4.799   3.702   7.598  1.7569  0.2390  0.0094
   75RES    H2231250   4.684   3.143   0.392 -0.5383 -0.3056 -1.9530
   75RES    C2331251   4.938   3.139   0.350 -0.2964  0.4456 -0.1384
   75RES    C2431252   4.934   3.039   0.469 -0.2135  0.8256  0.4667
   75RES    C2531253   4.961   3.107   0.610 -0.3644 -0.0288  0.6966
   75RES    C2631254   5.096   3.188   0.622  0.0777  0.0092 -0.1769
   75RES    C2731255   5.104   3.277   0.742 -1.0266 -0.4284 -0.4674
   75RES    C2831256   5.247   3.322   0.751  0.1031  0.5069 -0.6328
   75RES    C2931257   5.275   3.405   0.876  0.2590 -0.4277  0.2471
   75RES    H3031258   4.924   3.095   0.251  0.0618  0.6383 -0.2779
   75RES    H3131259   5.044   3.163   0.353  0.0519 -1.0788 -0.0288
   75RES    H3231260   4.836   2.993   0.467  0.6616 -1.0495 -0.8697
   75RES    H3331261   4.937   3.042   0.694 -0.3996  0.1828  0.8505
   75RES    H3431262   4.882   3.182   0.615 -1.5382 -0.8967 -2.9672
   75RES    H3531263   5.087   3.249   0.533 -0.2977  0.1276 -0.0580
   75RES    H3631264   5.182   3.125   0.602  0.7846  0.6015  0.9396
   75RES    H3731265   5.074   3.221   0.830  0.7488  0.2740  0.5907
   75RES    H3831266   5.048   3.370   0.737 -0.1966  0.1106  0.1655
   75RES    H3931267   5.269   3.381   0.661 -2.5156 -0.6373 -2.0790
   75RES    H4031268   5.322   3.243   0.749 -0.2602  0.0170  2.9979
   75RES    H4131269   5.236   3.344   0.957  0.6767 -2.6870 -1.1964
   75RES    H4231270   5.383   3.417   0.886  0.3908 -1.7784  0.5367
   75RES    H4331271   5.222   3.500   0.882  3.3582  1.4443 -1.0589
   75RES    C4431272   5.031   2.920   0.437 -0.1034 -0.3129  0.2729
   75RES    C4531273   4.980   2.818   0.334  0.0170  0.0678 -0.5571
   75RES    C4631274   5.093   2.783   0.225  0.4472 -0.2113 -0.1294
   75RES    C4731275   5.150   2.895   0.135 -0.4689 -0.3502  0.4069
   75RES    C4831276   5.266   2.852   0.046  0.5791 -0.1859  0.9480
   75RES    C4931277   5.227   2.749   7.660  0.0653  0.5990  0.0848
   75RES    C5031278   5.131   2.799   7.554  0.9387 -0.9297 -0.4755
   75RES    H5131279   5.045   2.864   0.530  1.4351  3.5970  2.4900
   75RES    H5231280   5.131   2.961   0.426 -0.2363  0.5540  2.1570
   75RES    H5331281   4.908   2.876   0.277 -1.0947  0.2118  0.9784
   75RES    H5431282   5.053   2.712   0.152  2.4131 -1.9329  0.4064
   75RES    H5531283   5.167   2.725   0.280 -0.3635 -0.1915  1.0085
   75RES    H5631284   5.066   2.934   0.077 -0.1134  0.5793  0.5137
   75RES    H5731285   5.186   2.978   0.196 -2.6045  0.5893  0.4383
   75RES    H5831286   5.345   2.820   0.114  1.4215 -1.2328 -0.5113
   75RES    H5931287   5.316   2.931   7.716 -1.3430  0.4318  0.0679
   75RES    H6031288   5.189   2.659   7.707  1.7878 -0.2200 -0.0626
   75RES    H6131289   5.319   2.722   7.609 -0.5857  0.6412 -1.1449
   75RES    H6231290   5.090   2.707   7.511  0.4394 -1.0812  0.3025
   75RES    H6331291   5.187   2.840   7.470 -1.1311 -0.0116 -1.4486
   75RES    H6431292   5.054   2.873   7.576  1.4116 -0.7740  0.6889
   75RES    C6531293   4.901   2.702   0.398  0.0277  0.1810 -0.3989
   75RES    C6631294   4.812   2.626   0.297 -0.6418  0.0627 -0.3348
   75RES    C6731295   4.678   2.701   0.272  0.0496  0.3813 -0.5382
   75RES    C6831296   4.598   2.645   0.155 -0.3561  0.2666  0.4386
   75RES    C6931297   4.459   2.715   0.153  0.7030 -0.0861  0.1827
   75RES    C7031298   4.369   2.677   0.032 -0.1286 -0.5586  0.2143
   75RES    C7131299   4.303   2.536   0.038 -0.5180  0.6332  0.1325
   75RES    H7231300   4.973   2.632   0.440  1.0691  0.4510 -1.6964
   75RES    H7331301   4.832   2.734   0.476  0.3476  1.1806 -0.5170
   75RES    H7431302   4.858   2.640   0.200  2.2471  0.1065  0.9875
   75RES    H7531303   4.621   2.710   0.364  0.2647  1.0240 -0.4699
   75RES    H7631304   4.710   2.802   0.247 -1.4625  1.6360  2.3456
   75RES    H7731305   4.652   2.679   0.067 -1.1418  0.4942  0.0352
   75RES    H7831306   4.607   2.537   0.148 -0.9908  0.3202 -1.4578
   75RES    H7931307   4.408   2.679   0.242  0.2117  1.2838  0.4764
   75RES    H8031308   4.477   2.822   0.158  1.1508 -0.2732  3.6051
   75RES    H8131309   4.429   2.685   7.668 -1.4973  1.5056 -0.5394
   75RES    H8231310   4.290   2.751   0.024  1.3537  0.9116 -1.2113
   75RES    H8331311   4.244   2.500   0.122  2.3430 -2.3395  0.9582
   75RES    H8431312   4.228   2.530   7.687 -0.5494 -3.6904  0.4024
   75RES    H8531313   4.382   2.463   0.020  0.2940  1.1802  1.4334
   75RES    C8631314   4.794   2.473   0.322 -0.1015  0.3300  0.2727
   75RES    C8731315   4.669   2.425   0.399  0.3993  0.6894 -0.3876
   75RES    C8831316   4.648   2.267   0.407 -0.4108 -0.0485 -0.0049
   75RES    C8931317   4.665   2.195   0.270 -0.3663  0.6854 -1.3457
   75RES    C9031318   4.568   2.248   0.162 -0.2234  0.2280  0.6122
   75RES    C9131319   4.508   2.140   0.074  0.4169  0.4268 -0.5848
   75RES    C9231320   4.410   2.186   7.692  0.4203 -0.4475  0.7516
   75RES    H9331321   4.792   2.425   0.224 -0.1882  0.9293 -0.0247
   75RES    H9431322   4.879   2.427   0.371  0.2120  0.0805 -0.4976
   75RES    H9531323   4.588   2.466   0.337 -1.1789 -1.6265  0.0792
   75RES    H9631324   4.724   2.233   0.477 -0.8050  2.2426  1.6013
   75RES    H9731325   4.548   2.252   0.448 -1.6338 -1.5837 -3.4329
   75RES    H9831326   4.766   2.215   0.233  1.1327 -0.1768  2.1136
   75RES    H9931327   4.650   2.090   0.293 -2.1488  1.0910 -0.5905
   75RES   H10031328   4.632   2.312   0.101 -1.0817 -0.7652 -1.3596
   75RES   H10131329   4.491   2.304   0.216  0.9365  1.4522  1.0117
   75RES   H10231330   4.594   2.088   0.031 -0.3398 -0.7365 -0.7052
   75RES   H10331331   4.452   2.070   0.137 -0.8354  2.2330  0.3570
   75RES   H10431332   4.453   2.261   7.625 -0.5547 -0.2251  0.3628
   75RES   H10531333   4.322   2.234   0.008 -0.2953  1.8701 -3.1395
   75RES   H10631334   4.374   2.104   7.630  1.1791  1.8285 -2.8200
   75RES   C10731335   4.662   2.490   0.540 -0.3681 -0.9014 -0.3370
   75RES   C10831336   4.544   2.444   0.631 -0.1429  0.2055 -0.5586
   75RES   C10931337   4.559   2.510   0.775  0.5554  0.7492  1.1563
   75RES   C11031338   4.529   2.413   0.893  0.6669 -1.1912  0.1797
   75RES   C11131339   4.485   2.493   1.019  0.2509 -0.3817  0.0342
   75RES   C11231340   4.448   2.407   1.139 -0.5101 -0.1815 -0.4938
   75RES   C11331341   4.436   2.494   1.264 -0.0837  0.7060 -0.5720
   75RES   H11431342   4.659   2.599   0.534  1.3123 -0.5547  3.7349
   75RES   H11531343   4.752   2.470   0.598 -0.8510 -0.9754  0.4018
   75RES   H11631344   4.541   2.336   0.642 -0.7389  0.0863 -1.8873
   75RES   H11731345   4.495   2.598   0.783 -0.4557  0.1160  0.2438
   75RES   H11831346   4.662   2.540   0.789  1.1034 -0.1940 -0.7124
   75RES   H11931347   4.462   2.334   0.860  0.1699  0.6516 -3.4758
   75RES   H12031348   4.622   2.361   0.918  1.0266  0.1857  1.7368
   75RES   H12131349   4.405   2.562   0.994 -1.1223 -1.1442  2.2456
   75RES   H12231350   4.571   2.552   1.053  0.6818  0.0082 -1.6653
   75RES   H12331351   4.361   2.346   1.116 -1.2136 -0.4533  2.6184
   75RES   H12431352   4.537   2.345   1.149  0.3926  0.3217 -4.5264
   75RES   H12531353   4.518   2.565   1.276  0.7711 -0.2429 -0.7118
   75RES   H12631354   4.349   2.556   1.244 -0.9760  0.4336  2.2465
   75RES   H12731355   4.424   2.445   1.361 -1.7288  0.0758 -1.0706
   75RES   C12831356   4.408   2.483   0.564 -0.2191 -0.4150 -0.0818
   75RES   C12931357   4.282   2.436   0.638  0.3964  0.2468 -0.0089
   75RES   C13031358   4.254   2.280   0.602 -0.1802 -0.4863  0.1873
   75RES   C13131359   4.149   2.196   0.669 -0.9960 -0.5677 -0.5356
   75RES   C13231360   4.123   2.227   0.829  0.1368 -0.3930  0.0421
   75RES   C13331361   4.033   2.124   0.901 -0.6731 -0.1728 -0.2848
   75RES   C13431362   4.008   2.170   1.043 -0.5935  0.6157  0.3722
   75RES   H13531363   4.400   2.591   0.547  0.6670 -0.5337 -1.3544
   75RES   H13631364   4.409   2.455   0.458  2.6041  3.7399 -1.2901
   75RES   H13731365   4.293   2.438   0.746 -1.0228  0.5365  0.1417
   75RES   H13831366   4.350   2.233   0.624 -0.3019 -1.9191 -2.1374
   75RES   H13931367   4.239   2.277   0.494 -2.9649 -1.2935  0.5614
   75RES   H14031368   4.167   2.089   0.658  1.0521 -0.6365  2.6945
   75RES   H14131369   4.055   2.206   0.615 -0.6009 -0.7908 -1.2611
   75RES   H14231370   4.090   2.330   0.841 -0.0066 -0.6440  1.8459
   75RES   H14331371   4.215   2.240   0.885 -1.2296  1.1945  1.9744
   75RES   H14431372   4.061   2.019   0.890  0.6841  0.0338  0.9665
   75RES   H14531373   3.935   2.135   0.855 -0.3568 -0.0675 -0.9280
   75RES   H14631374   3.915   2.126   1.080 -0.8066  1.0220  0.3209
   75RES   H14731375   4.009   2.278   1.056 -2.8514  0.9206 -1.6027
   75RES   H14831376   4.086   2.128   1.106  1.2245 -0.7633 -2.6923
   75RES   C14931377   4.158   2.523   0.605 -0.3813 -0.5969 -0.1608
   75RES   C15031378   4.155   2.672   0.635 -0.3440 -0.0993  0.1261
   75RES   C15131379   4.194   2.709   0.776  1.3927  0.8189 -0.0373
   75RES   C15231380   4.092   2.690   0.889  0.4698  0.5016 -0.5930
   75RES   C15331381   4.149   2.719   1.027  0.1586  0.2343 -0.1312
   75RES   C15431382   4.044   2.718   1.134  0.3580 -0.4214  0.2418
   75RES   C15531383   4.096   2.763   1.270  0.0299  0.3254 -0.3555
   75RES   H15631384   4.138   2.505   0.500  1.3388 -2.2529 -0.2322
   75RES   H15731385   4.073   2.483   0.660 -1.3911 -0.1816 -1.4238
   75RES   H15831386   4.239   2.711   0.577  0.3062 -0.2641  0.9422
   75RES   H15931387   4.284   2.654   0.800 -0.1110 -1.1925  1.1372
   75RES   H16031388   4.223   2.814   0.775  1.9038  0.6768 -2.6453
   75RES   H16131389   4.047   2.591   0.898  0.1597  0.6628 -0.3428
   75RES   H16231390   4.014   2.762   0.863  1.4410  2.1864  1.0844
   75RES   H16331391   4.187   2.821   1.029 -1.1663  0.8383 -3.7344
   75RES   H16431392   4.228   2.654   1.065 -0.7735  0.3574  2.1125
   75RES   H16531393   4.016   2.615   1.155 -1.0356  0.1882  1.4853
   75RES   H16631394   3.952   2.763   1.096 -1.2581 -1.8200  2.3630
   75RES   H16731395   4.141   2.861   1.281  0.7239  0.0667 -0.8551
   75RES   H16831396   4.162   2.691   1.319 -2.5072 -0.6972  1.6779
   75RES   H16931397   4.012   2.782   1.337  0.2051 -1.0436  0.2695
   75RES   C17031398   4.026   2.742   0.589  0.0144  0.1435 -1.0288
   75RES   C17131399   4.024   2.899   0.582 -0.5571 -0.1204 -0.3410
   75RES   C17231400   4.118   2.954   0.479  0.5763 -0.4049 -0.5220
   75RES   C17331401   4.088   2.910   0.336  0.4034 -0.0304  0.8387
   75RES   C17431402   4.131   3.018   0.233  0.8541  0.3025  0.5290
   75RES   C17531403   4.279   3.052   0.218 -0.4691  0.3259 -0.6319
   75RES   C17631404   4.306   3.169   0.128  0.0559  0.2984  0.5717
   75RES   H17731405   3.955   2.705   0.663  2.1118  1.2688  1.6736
   75RES   H17831406   3.988   2.696   0.498 -1.4686 -1.1116  0.1920
   75RES   H17931407   4.059   2.930   0.680 -2.1786  1.0160 -0.0943
   75RES   H18031408   4.222   2.934   0.504  0.3058 -0.6437  0.4225
   75RES   H18131409   4.114   3.061   0.500  0.2212 -0.0831 -2.1113
   75RES   H18231410   3.982   2.889   0.325  0.5379  0.5628 -2.1245
   75RES   H18331411   4.144   2.821   0.305  0.3178 -0.3001  1.4464
   75RES   H18431412   4.070   3.102   0.265 -0.2642 -0.3213  0.0846
   75RES   H18531413   4.098   2.988   0.133  0.5216 -0.2329  0.7961
   75RES   H18631414   4.322   2.965   0.169  0.2278 -0.7356  1.7626
   75RES   H18731415   4.333   3.059   0.313 -2.5403 -0.7000  0.6659
   75RES   H18831416   4.241   3.254   0.150 -0.5250 -0.1452  0.5711
   75RES   H18931417   4.290   3.129   0.028 -0.5517  1.1233  0.3295
   75RES   H19031418   4.413   3.187   0.138  0.4562 -0.2888 -2.1585
   75RES   C19131419   3.886   2.957   0.581 -0.2676  0.7998 -0.2800
   75RES   C19231420   3.872   3.095   0.652  0.5244  0.3659  0.2241
   75RES   C19331421   3.758   3.170   0.594 -0.2229  0.3752  0.5234
   75RES   C19431422   3.786   3.238   0.461  0.1779 -0.6853 -0.0315
   75RES   C19531423   3.664   3.299   0.398  0.3159  0.6434 -0.6627
   75RES   C19631424   3.696   3.399   0.283 -0.2996  0.5084 -0.1805
   75RES   C19731425   3.576   3.472   0.222 -0.1496 -0.8599  0.5706
   75RES   H19831426   3.813   2.884   0.618 -0.2531  1.1352  0.4077
   75RES   H19931427   3.853   2.970   0.478 -0.5645  2.7397  0.0390
   75RES   H20031428   3.958   3.150   0.613  1.3270 -2.5919 -2.4529
   75RES   H20131429   3.726   3.248   0.664 -0.8260  0.4974  0.1155
   75RES   H20231430   3.667   3.112   0.579 -1.0484  1.9535 -0.6459
   75RES   H20331431   3.828   3.169   0.387  2.9552 -2.0657  2.7393
   75RES   H20431432   3.867   3.308   0.477 -0.7839  0.5488 -0.4577
   75RES   H20531433   3.594   3.217   0.382  0.0183  0.3101  2.2525
   75RES   H20631434   3.609   3.350   0.476  1.5729 -1.3816  1.6104
   75RES   H20731435   3.757   3.357   0.203  0.0294 -1.4156  1.0523
   75RES   H20831436   3.762   3.471   0.332 -1.0484  2.4247 -1.9231
   75RES   H20931437   3.604   3.538   0.139  2.3396 -1.9845  0.4798
   75RES   H21031438   3.532   3.534   0.301  1.1831 -0.5135  1.0604
   75RES   H21131439   3.503   3.399   0.187  0.0544 -0.0051 -1.7260
   75RES   C21231440   3.863   3.075   0.804  0.6679 -0.6933  0.5287
   75RES   C21331441   3.932   3.185   0.883 -0.3624  0.4040  0.1400
   75RES   C21431442   3.889   3.327   0.859  0.7964 -0.4464 -0.0034
   75RES   C21531443   3.745   3.362   0.889  0.1445 -0.0984  0.3330
   75RES   C21631444   3.696   3.487   0.815 -0.0530 -0.1009  0.4611
   75RES   C21731445   3.544   3.490   0.827  0.1622  0.6645  0.4704
   75RES   C21831446   3.473   3.603   0.757 -0.8589 -0.4414 -1.0576
   75RES   H21931447   3.929   2.995   0.837  0.6846 -0.1587  1.8372
   75RES   H22031448   3.767   3.046   0.847  0.4091 -0.8441 -0.1451
   75RES   H22131449   4.039   3.192   0.867 -0.5695 -0.7633 -2.0228
   75RES   H22231450   3.945   3.403   0.913  0.2171 -0.5843  0.8035
   75RES   H22331451   3.909   3.348   0.754  0.9618  1.1671  0.3459
   75RES   H22431452   3.730   3.378   0.996 -4.8119  0.5359 -0.3196
   75RES   H22531453   3.678   3.277   0.873  0.1483  0.1834 -1.2921
   75RES   H22631454   3.729   3.580   0.860  1.3520  0.3272 -1.3949
   75RES   H22731455   3.740   3.493   0.715  0.7135  0.6667  0.8461
   75RES   H22831456   3.506   3.402   0.777 -0.7317 -0.4719  3.0700
   75RES   H22931457   3.502   3.484   0.928 -2.8812 -0.7559 -0.8423
   75RES   H23031458   3.385   3.561   0.707 -1.5836  1.3578 -1.3272
   75RES   H23131459   3.532   3.630   0.669  1.0033 -1.0737 -0.0188
   75RES   H23231460   3.447   3.689   0.819  1.5795 -1.0686  0.9111
   75RES   C23331461   3.931   3.149   1.036 -0.2796 -0.1012  0.2358
   75RES   C23431462   4.013   3.232   1.135  0.3982 -0.3037 -0.1367
   75RES   C23531463   3.971   3.192   1.279 -1.0281  0.3351 -0.1081
   75RES   C23631464   3.857   3.269   1.343  0.7182  0.1725 -0.2576
   75RES   C23731465   3.809   3.213   1.481  0.1203 -0.0865 -0.9591
   75RES   C23831466   3.664   3.259   1.507 -0.5089  0.2818  0.2842
   75RES   C23931467   3.625   3.218   1.652 -0.1726 -0.2849  0.3786
   75RES   H24031468   3.960   3.044   1.045  0.6194  0.0085 -1.2907
   75RES   H24131469   3.827   3.151   1.069 -0.1495 -1.4828  0.7774
   75RES   H24231470   4.002   3.339   1.118 -0.7946 -0.0304  2.1908
   75RES   H24331471   4.060   3.191   1.341  0.0203  0.9264 -1.5698
   75RES   H24431472   3.942   3.087   1.267 -1.1441  0.3804 -0.2336
   75RES   H24531473   3.770   3.262   1.277  0.8424  1.2061 -0.5355
   75RES   H24631474   3.874   3.376   1.349  0.2233  0.1456  2.0346
   75RES   H24731475   3.881   3.251   1.553  1.6021 -1.0169 -1.9429
   75RES   H24831476   3.813   3.105   1.477  0.8916 -0.1686  1.6058
   75RES   H24931477   3.665   3.368   1.508 -0.2885  0.2800  0.2886
   75RES   H25031478   3.590   3.237   1.431  0.6779  1.4270 -1.2343
   75RES   H25131479   3.694   3.254   1.729 -1.6549 -0.7123  1.9284
   75RES   H25231480   3.523   3.240   1.682 -0.4306 -2.5507  1.3173
   75RES   H25331481   3.640   3.110   1.662  0.5550 -0.0652  1.8639
   75RES   C25431482   4.171   3.218   1.124  0.0302 -0.3734 -0.1174
   75RES   C25531483   4.248   3.326   1.041  0.5509 -0.4362  0.1665
   75RES   C25631484   4.356   3.264   0.951  0.2711  0.6211  0.5340
   75RES   C25731485   4.343   3.132   0.875  0.0451  0.6068  0.1255
   75RES   C25831486   4.453   3.108   0.778 -0.6152  0.6999 -0.0352
   75RES   C25931487   4.449   2.958   0.729 -0.5739 -0.4759 -0.0240
   75RES   C26031488   4.553   2.935   0.627  0.1236 -0.1900 -0.4094
   75RES   H26131489   4.202   3.118   1.094  0.8319  0.9264 -3.9108
   75RES   H26231490   4.223   3.219   1.220 -0.8137 -1.7119  0.3713
   75RES   H26331491   4.182   3.368   0.966 -0.8981 -1.7574  0.6512
   75RES   H26431492   4.442   3.249   1.017 -1.0606 -2.6312  1.6092
   75RES   H26531493   4.382   3.353   0.893 -0.5891 -0.2114 -1.1529
   75RES   H26631494   4.342   3.044   0.939  0.4263  0.2136 -0.4001
   75RES   H26731495   4.247   3.139   0.822  0.3332  0.3756 -0.4293
   75RES   H26831496   4.547   3.122   0.832 -0.9485 -0.0805  0.7589
   75RES   H26931497   4.448   3.182   0.698  1.5375 -1.8918 -2.7012
   75RES   H27031498   4.460   2.877   0.801  0.0477 -1.6599 -1.4362
   75RES   H27131499   4.351   2.947   0.683  0.7049  0.5965 -3.1234
   75RES   H27231500   4.544   2.836   0.583 -0.9699  0.4341 -1.6134
   75RES   H27331501   4.546   3.008   0.545  1.2954  1.6332  1.0669
   75RES   H27431502   4.657   2.936   0.661 -0.0197  1.5123  0.0507
   75RES   C27531503   4.308   3.437   1.129  0.2587  0.4649  0.5805
   75RES   C27631504   4.204   3.515   1.219 -0.2991 -0.1500  0.5660
   75RES   C27731505   4.131   3.618   1.120 -0.2186  0.4528  0.3084
   75RES   C27831506   4.002   3.672   1.177  0.2067 -0.5631  0.8811
   75RES   C27931507   3.918   3.775   1.091  0.2228  0.3331  0.3226
   75RES   C28031508   3.791   3.807   1.164  0.4662  0.1764  0.3702
   75RES   C28131509   3.679   3.699   1.173  0.0816 -0.1109 -0.7122
   75RES   H28231510   4.374   3.498   1.068 -0.4682  0.4920 -0.1816
   75RES   H28331511   4.379   3.396   1.201  0.9851 -1.3662 -1.1289
   75RES   H28431512   4.127   3.445   1.251 -0.2059 -0.0073  1.0983
   75RES   H28531513   4.184   3.707   1.086 -0.3161  0.5319  0.3627
   75RES   H28631514   4.103   3.570   1.026 -1.8330 -1.0351  1.4992
   75RES   H28731515   4.025   3.718   1.273  1.0331  0.7154  0.0953
   75RES   H28831516   3.926   3.601   1.210 -1.6735  1.5231  1.1455
   75RES   H28931517   3.888   3.734   0.994  0.6310  1.4941 -0.3068
   75RES   H29031518   3.979   3.864   1.074  0.1743  0.3943  0.4665
   75RES   H29131519   3.818   3.839   1.265  0.5471 -0.7527  0.6443
   75RES   H29231520   3.753   3.891   1.104  0.7590 -0.3166 -0.5058
   75RES   H29331521   3.718   3.615   1.230  0.8115  2.3506  2.5338
   75RES   H29431522   3.632   3.664   1.081 -1.2890  0.0004 -0.0653
   75RES   H29531523   3.594   3.734   1.231  0.4549 -2.2129  1.1699
   75RES   C29631524   4.276   3.586   1.331  0.1399 -0.3859  0.1628
   75RES   C29731525   4.300   3.498   1.460 -0.3264 -0.0164  0.0432
   75RES   C29831526   4.220   3.540   1.579 -0.0857  0.4595 -0.5719
   75RES   C29931527   4.067   3.531   1.576 -0.0407 -0.2840  0.2959
   75RES   C30031528   3.988   3.657   1.608 -0.5673 -0.3354 -0.6180
   75RES   C30131529   3.839   3.651   1.578 -0.6793 -0.0940 -0.1361
   75RES   C30231530   3.753   3.778   1.606 -0.0551 -0.1110  0.1742
   75RES   H30331531   4.376   3.616   1.300  0.3747  0.0884  1.3346
   75RES   H30431532   4.230   3.680   1.364 -0.2688  0.4796 -2.7302
   75RES   H30531533   4.271   3.396   1.433  0.0595  0.3022 -1.5839
   75RES   H30631534   4.263   3.506   1.673  0.2924  0.6123 -0.6895
   75RES   H30731535   4.243   3.647   1.587  2.1181 -0.0324  0.2209
   75RES   H30831536   4.033   3.441   1.627  0.0132 -0.1443  0.5810
   75RES   H30931537   4.059   3.525   1.467  2.2387 -2.1172  0.1924
   75RES   H31031538   4.028   3.744   1.556 -2.9822  0.1195 -1.7862
   75RES   H31131539   4.006   3.678   1.713 -3.1051 -2.3459  0.2713
   75RES   H31231540   3.844   3.628   1.472  1.4504 -1.4377  0.2210
   75RES   H31331541   3.798   3.558   1.617 -2.7144  1.0790  0.6177
   75RES   H31431542   3.786   3.865   1.549  0.6214 -1.0158 -0.8439
   75RES   H31531543   3.653   3.761   1.566 -0.4254  1.2015  0.5135
   75RES   H31631544   3.749   3.799   1.713  0.5642 -0.2650  0.2258
   75RES   C31731545   4.450   3.480   1.484  0.3786  0.0041 -0.6804
   75RES   C31831546   4.498   3.370   1.583  0.7570  0.3070 -0.9873
   75RES   C31931547   4.449   3.228   1.550  0.2247 -0.0825  0.4464
   75RES   C32031548   4.515   3.170   1.418  0.1078  0.2009 -0.4862
   75RES   C32131549   4.459   3.032   1.382  0.4088  0.0410  0.8612
   75RES   C32231550   4.504   2.999   1.238 -0.4902  0.1284  0.5277
   75RES   C32331551   4.460   2.856   1.204  0.1341 -0.5852  0.6008
   75RES   H32431552   4.497   3.571   1.521 -1.1368  0.9339 -0.9791
   75RES   H32531553   4.500   3.474   1.387 -1.0855  0.3956 -1.4792
   75RES   H32631554   4.449   3.389   1.678  2.5900 -0.4795  0.1391
   75RES   H32731555   4.342   3.216   1.538  0.3890 -1.2267  0.1131
   75RES   H32831556   4.475   3.160   1.631 -0.9770 -1.3908 -0.2566
   75RES   H32931557   4.624   3.161   1.424  0.1830  0.7015 -1.0706
   75RES   H33031558   4.493   3.241   1.339 -1.8089  0.1825  0.0262
   75RES   H33131559   4.352   3.047   1.388  0.3078  0.3407 -1.2167
   75RES   H33231560   4.492   2.951   1.447  0.5249  0.3801  1.2304
   75RES   H33331561   4.610   3.016   1.222 -0.2495 -0.9280  0.9846
   75RES   H33431562   4.443   3.061   1.171  1.2577 -0.8450 -2.0468
   75RES   H33531563   4.507   2.842   1.107 -3.6070 -0.4382 -1.3193
   75RES   H33631564   4.352   2.845   1.193  0.4169 -2.1810 -0.7943
   75RES   H33731565   4.498   2.781   1.274 -0.3101 -0.6500  0.7783
   75RES   C33831566   4.655   3.383   1.625 -0.1054  0.0052  0.8595
   75RES   C33931567   4.687   3.509   1.710  0.7790 -0.3226 -0.3890
   75RES   C34031568   4.830   3.557   1.689 -0.1240 -0.3651 -0.3988
   75RES   C34131569   4.932   3.473   1.774 -0.0035  0.7691  0.1610
   75RES   C34231570   5.076   3.482   1.719 -0.0068  0.6389  0.4590
   75RES   C34331571   5.140   3.614   1.757  0.3572  0.1782  0.3455
   75RES   C34431572   5.285   3.631   1.720 -0.3962  0.3743  0.0231
   75RES   H34531573   4.710   3.380   1.531  0.2918  0.6166  1.0645
   75RES   H34631574   4.678   3.292   1.679 -0.4846 -1.2086 -0.9780
   75RES   H34731575   4.626   3.592   1.673 -0.4185 -1.1751 -0.3733
   75RES   H34831576   4.857   3.562   1.584  0.0374  0.3132 -0.3251
   75RES   H34931577   4.839   3.660   1.722  1.0206 -1.0294  1.4156
   75RES   H35031578   4.893   3.372   1.763  2.0859  0.1136 -1.5147
   75RES   H35131579   4.930   3.490   1.882  1.7345 -1.6194  0.5910
   75RES   H35231580   5.138   3.396   1.742 -0.3639  0.4321  0.6610
   75RES   H35331581   5.059   3.482   1.612 -0.9494 -0.5047  0.5987
   75RES   H35431582   5.089   3.701   1.715  1.7104 -0.0967 -1.9560
   75RES   H35531583   5.133   3.621   1.866  1.2329  0.8408  0.3699
   75RES   H35631584   5.295   3.654   1.614  1.0708 -0.7609 -0.1053
   75RES   H35731585   5.351   3.552   1.756 -0.6501  0.8818  1.6376
   75RES   H35831586   5.320   3.721   1.770 -0.8616 -0.0760  1.1728
   75RES   C35931587   4.638   3.502   1.858  0.2664  0.5191 -0.4511
   75RES   C36031588   4.491   3.573   1.878 -0.0285  0.3290  0.1354
   75RES   C36131589   4.400   3.501   1.978 -0.0277 -0.0210 -0.2937
   75RES   C36231590   4.343   3.360   1.934 -0.0463 -0.2810  0.1082
   75RES   C36331591   4.245   3.298   2.029  0.2815 -0.1264 -0.5345
   75RES   C36431592   4.182   3.167   1.970 -0.5726  0.4914  0.2382
   75RES   C36531593   4.106   3.082   2.069 -0.7632  0.2818 -0.0709
   75RES   H36631594   4.703   3.534   1.940  0.4055  0.7806 -0.6632
   75RES   H36731595   4.619   3.397   1.881 -1.1549  0.7471 -0.4884
   75RES   H36831596   4.440   3.571   1.781  2.1983 -0.6043 -1.0635
   75RES   H36931597   4.454   3.482   2.071 -0.3733 -0.6233 -0.2097
   75RES   H37031598   4.317   3.568   2.002  0.8719  1.0715 -0.2369
   75RES   H37131599   4.287   3.372   1.841 -2.4718 -1.4217  1.3792
   75RES   H37231600   4.431   3.297   1.921 -0.1482 -0.9184  2.2932
   75RES   H37331601   4.296   3.278   2.123 -0.3272 -0.8417 -0.3488
   75RES   H37431602   4.173   3.378   2.046  0.5133  0.2942 -1.5006
   75RES   H37531603   4.114   3.193   1.889  0.3663  1.0856 -0.3717
   75RES   H37631604   4.262   3.099   1.940 -0.9120  0.2284 -0.0781
   75RES   H37731605   4.017   3.127   2.113 -1.1941 -0.0349 -0.6161
   75RES   H37831606   4.080   2.989   2.018  1.3794 -0.7972  0.7506
   75RES   H37931607   4.174   3.049   2.148  0.2314 -0.3408 -1.1776
   75RES   C38031608   4.514   3.717   1.924 -0.3507  0.2991 -0.5833
   75RES   C38131609   4.389   3.809   1.900 -0.0909 -0.7287  0.3490
   75RES   C38231610   4.381   3.915   2.005 -0.3452  0.0973 -0.3840
   75RES   C38331611   4.496   4.015   2.012  0.0521 -0.5098 -0.7130
   75RES   C38431612   4.481   4.123   2.122  0.0523  0.7744  0.7394
   75RES   C38531613   4.607   4.200   2.154 -0.4420 -0.0328  0.2684
   75RES   C38631614   4.585   4.285   2.280  0.1057  0.4034 -0.9606
   75RES   H38731615   4.534   3.721   2.031 -2.4624  0.5000 -0.1747
   75RES   H38831616   4.595   3.762   1.868  0.7728 -1.5519 -0.4949
   75RES   H38931617   4.296   3.752   1.902 -1.0563  0.7481 -0.5918
   75RES   H39031618   4.352   3.867   2.098 -0.9458  1.4582  0.1305
   75RES   H39131619   4.292   3.974   1.980 -1.3221 -1.7826 -1.4840
   75RES   H39231620   4.582   3.952   2.033  0.7291 -0.1869 -2.4612
   75RES   H39331621   4.519   4.064   1.917 -0.3563  0.1361 -0.4806
   75RES   H39431622   4.413   4.202   2.088 -0.8615  0.1908  1.1973
   75RES   H39531623   4.437   4.082   2.213 -0.7605  0.4496  0.2064
   75RES   H39631624   4.644   4.240   2.060  1.6271 -0.2685  0.9731
   75RES   H39731625   4.680   4.126   2.187  1.7711  1.7732 -0.4819
   75RES   H39831626   4.548   4.220   2.360  0.1333  1.7612  0.1779
   75RES   H39931627   4.512   4.366   2.274  0.8828  1.2383  0.4647
   75RES   H40031628   4.672   4.336   2.322 -1.5515  1.5058  1.2880
   75RES   C40131629   4.386   3.880   1.758 -0.2598  0.0186 -0.3651
   75RES   C40231630   4.250   3.941   1.721 -0.4758 -0.2049 -0.3580
   75RES   C40331631   4.242   3.988   1.575 -0.2126 -0.1391  0.0893
   75RES   C40431632   4.114   4.061   1.551  0.3997  0.2666 -0.1006
   75RES   C40531633   4.097   4.120   1.411 -0.0832 -0.1348 -0.1528
   75RES   C40631634   3.976   4.215   1.394  0.2620  0.1352  0.1044
   75RES   C40731635   3.837   4.152   1.413 -0.0450  0.1051  0.2838
   75RES   H40831636   4.409   3.800   1.687  0.5255  0.4982 -0.6581
   75RES   H40931637   4.471   3.947   1.749  1.2198 -1.3602  2.7713
   75RES   H41031638   4.242   4.028   1.786 -0.2468 -1.0628  0.8273
   75RES   H41131639   4.263   3.913   1.499  1.3782  0.1495  0.2261
   75RES   H41231640   4.323   4.061   1.561  1.6642 -2.4056 -1.2436
   75RES   H41331641   4.098   4.139   1.626 -1.4389 -0.5063  0.3380
   75RES   H41431642   4.036   3.987   1.569  1.2058 -0.0346  2.3249
   75RES   H41531643   4.186   4.180   1.393 -1.9373  2.2762 -1.5506
   75RES   H41631644   4.101   4.040   1.338  3.1587 -0.1431 -0.0677
   75RES   H41731645   3.985   4.301   1.460 -1.5220 -0.4467  1.1131
   75RES   H41831646   3.987   4.252   1.292  0.5760  0.3132  0.2001
   75RES   H41931647   3.765   4.211   1.357  1.5367 -1.3578 -3.4578
   75RES   H42031648   3.808   4.138   1.517  0.2741  0.7427  0.4606
   75RES   H42131649   3.834   4.056   1.361 -1.0938  0.2592  0.0607
   75RES   H42231650   4.170   3.868   1.734  0.0387 -0.6738  0.1956
   76RES     C131651   6.901   6.235   0.150  0.6055  0.2570 -0.1497
   76RES     C231652   6.758   6.186   0.134 -0.3397 -0.2162  0.7746
   76RES     C331653   6.719   6.176   7.710  0.2898  0.4140  0.8041
   76RES     C431654   6.617   6.057   7.691  0.2647  0.6805 -0.7082
   76RES     C531655   6.522   6.081   7.570 -0.3579  0.4512 -0.2023
   76RES     C631656   6.467   5.961   7.514 -0.6106 -0.3615 -0.0004
   76RES     C731657   6.354   5.983   7.412  0.3065 -0.3524 -0.9982
   76RES     H831658   6.910   6.341   0.126  0.6324  0.3362  0.2090
   76RES     H931659   6.972   6.175   0.094  0.6354 -1.1135  1.2991
   76RES    H1031660   6.752   6.082   0.167 -1.7998  0.0790  1.4613
   76RES    H1131661   6.680   6.271   7.674  2.0306  1.9486  2.8564
   76RES    H1231662   6.798   6.150   7.640 -0.6943 -0.2891 -0.0711
   76RES    H1331663   6.668   5.961   7.693 -0.3831  0.3496  1.1944
   76RES    H1431664   6.551   6.061   0.051  0.9179 -1.4906 -0.0770
   76RES    H1531665   6.583   6.133   7.496 -2.1719  0.4971 -1.7047
   76RES    H1631666   6.454   6.161   7.598  0.4569  0.7115  1.1009
   76RES    H1731667   6.434   5.891   7.590 -0.3417  0.7104  1.1099
   76RES    H1831668   6.548   5.903   7.470 -0.2357  0.0246  0.1744
   76RES    H1931669   6.315   5.888   7.373 -3.1973  0.0558  1.2462
   76RES    H2031670   6.373   6.050   7.328 -1.0777  0.4526 -0.6799
   76RES    H2131671   6.268   6.029   7.460  0.2166 -1.3394 -0.1907
   76RES    H2231672   6.932   6.240   0.254  2.6867 -1.7721 -0.6411
   76RES    C2331673   6.663   6.266   0.227  0.3244 -1.0255 -0.2098
   76RES    C2431674   6.647   6.414   0.189 -0.8746  0.4735  0.0336
   76RES    C2531675   6.626   6.498   0.319 -0.1841  0.6993  0.0781
   76RES    C2631676   6.509   6.464   0.413 -0.0336  0.5881  0.7662
   76RES    C2731677   6.520   6.549   0.542  0.3984 -0.0675 -0.7740
   76RES    C2831678   6.423   6.518   0.657  0.1493  0.4993  0.3174
   76RES    C2931679   6.276   6.535   0.615 -0.4157  0.0707 -0.2406
   76RES    H3031680   6.571   6.210   0.245 -0.8726  0.5179 -1.3878
   76RES    H3131681   6.716   6.269   0.322  1.3920  0.8095 -0.8396
   76RES    H3231682   6.734   6.448   0.131 -0.1930  1.0742  1.3925
   76RES    H3331683   6.634   6.606   0.301 -0.4820  0.7517  0.2701
   76RES    H3431684   6.719   6.474   0.371 -0.0521 -1.5694 -1.1405
   76RES    H3531685   6.502   6.361   0.446 -0.0998  0.9772  1.9834
   76RES    H3631686   6.416   6.486   0.359  0.1237 -1.5154 -0.3975
   76RES    H3731687   6.508   6.653   0.511  0.9714 -0.8805 -3.9280
   76RES    H3831688   6.618   6.542   0.589  0.0978 -1.0112 -0.2769
   76RES    H3931689   6.457   6.591   0.731  0.2135 -1.3761  2.1599
   76RES    H4031690   6.448   6.421   0.700  0.9301  0.2316 -0.7159
   76RES    H4131691   6.209   6.499   0.694 -0.5854  0.0225 -0.4054
   76RES    H4231692   6.247   6.638   0.593 -0.0924 -0.1925 -1.9524
   76RES    H4331693   6.259   6.478   0.524  0.5169 -0.1199 -0.2921
   76RES    C4431694   6.518   6.443   0.105  0.0626  0.0652  0.1697
   76RES    C4531695   6.523   6.581   0.023  0.0317 -1.3006 -1.0354
   76RES    C4631696   6.622   6.568   7.628 -0.1324 -0.5963 -0.2596
   76RES    C4731697   6.687   6.705   7.588  0.0952 -0.9238  0.3139
   76RES    C4831698   6.832   6.705   7.547 -0.1839  0.2876  0.5154
   76RES    C4931699   6.928   6.633   7.639 -0.7891  0.3408  0.1532
   76RES    C5031700   7.074   6.666   7.612  0.1485  0.2096  0.5359
   76RES    H5131701   6.424   6.429   0.157 -0.4597 -1.3860 -1.1364
   76RES    H5231702   6.505   6.361   0.034  0.4934  0.0638  0.0913
   76RES    H5331703   6.554   6.662   0.089 -0.9956 -1.8587  0.1507
   76RES    H5431704   6.588   6.506   7.545 -2.7820 -0.2226  0.5108
   76RES    H5531705   6.700   6.495   7.647 -1.1582 -1.6595 -0.1305
   76RES    H5631706   6.621   6.750   7.514 -2.6375 -1.9997  2.0225
   76RES    H5731707   6.683   6.763   7.681  0.6220 -0.1633 -0.1342
   76RES    H5831708   6.874   6.803   7.525  0.8828 -0.3710 -0.3755
   76RES    H5931709   6.843   6.641   7.459 -1.0088 -0.3013  0.8330
   76RES    H6031710   6.918   6.524   7.638  0.9796  0.1397  1.1847
   76RES    H6131711   6.911   6.670   0.014  1.5552 -0.8019  1.0000
   76RES    H6231712   7.097   6.622   7.516  0.3361 -0.8142  1.0455
   76RES    H6331713   7.146   6.627   7.685  1.6409 -1.5995 -1.8535
   76RES    H6431714   7.080   6.774   7.627 -1.5702  0.1922  1.5005
   76RES    C6531715   6.376   6.622   7.698  0.1753 -0.9612  0.2393
   76RES    C6631716   6.345   6.771   7.691 -0.1271  0.3621  0.0350
   76RES    C6731717   6.332   6.826   0.106  0.4596 -0.4989  0.0175
   76RES    C6831718   6.415   6.951   0.139 -0.1391  0.4474 -0.0603
   76RES    C6931719   6.395   6.998   0.285  0.2142 -0.3568 -0.3995
   76RES    C7031720   6.280   7.104   0.309  0.1594  0.1299  0.7276
   76RES    C7131721   6.303   7.169   0.453  0.2131  0.4323  1.2991
   76RES    H7231722   6.371   6.576   7.599  3.7841 -0.8630 -0.0514
   76RES    H7331723   6.306   6.582   0.044 -0.6352  0.3076  0.1572
   76RES    H7431724   6.432   6.818   7.645 -0.0648  0.1812 -0.0302
   76RES    H7531725   6.230   6.864   0.116  1.1064  1.0708  0.7558
   76RES    H7631726   6.346   6.747   0.180 -1.4269 -0.2107  0.7106
   76RES    H7731727   6.517   6.922   0.114 -0.7750 -2.2374  0.2758
   76RES    H7831728   6.395   7.032   0.070 -1.0623  0.5256  0.2931
   76RES    H7931729   6.378   6.912   0.350 -0.6908 -0.3904 -0.6810
   76RES    H8031730   6.488   7.048   0.313 -0.9677  1.5075  0.2756
   76RES    H8131731   6.182   7.065   0.283  0.3266  0.6964 -0.7984
   76RES    H8231732   6.294   7.190   0.244 -2.1930 -0.7480 -1.0234
   76RES    H8331733   6.387   7.238   0.456  1.3611 -0.7814 -1.3688
   76RES    H8431734   6.210   7.213   0.490 -1.6167 -1.8674 -0.4097
   76RES    H8531735   6.317   7.088   0.524  1.6975 -1.0865 -0.6597
   76RES    C8631736   6.219   6.807   7.599 -0.1232  0.0754 -0.2744
   76RES    C8731737   6.222   6.779   7.441  0.0076  0.0342  0.3414
   76RES    C8831738   6.081   6.775   7.382 -0.1005  0.1421  0.3699
   76RES    C8931739   6.004   6.649   7.437  0.0833 -0.3373  0.0273
   76RES    C9031740   5.884   6.605   7.348 -0.6986  0.5491 -0.6699
   76RES    C9131741   5.815   6.479   7.410 -0.3692 -0.0309  0.1006
   76RES    C9231742   5.681   6.446   7.340  0.3777  0.2275 -0.4167
   76RES    H9331743   6.134   6.756   7.644  0.6577 -0.5232  0.5403
   76RES    H9431744   6.190   6.912   7.607  1.9491  0.6807 -0.2298
   76RES    H9531745   6.256   6.676   7.435  0.2292  0.1381 -0.2067
   76RES    H9631746   6.033   6.869   7.409 -0.6801 -0.6036  1.9961
   76RES    H9731747   6.083   6.771   7.273  0.1719  1.5121  0.3156
   76RES    H9831748   6.065   6.559   7.445  0.0698 -0.2539  1.1193
   76RES    H9931749   5.967   6.666   7.538  0.4748 -0.2210  0.1510
   76RES   H10031750   5.922   6.588   7.247  0.8682 -0.7694  0.1042
   76RES   H10131751   5.811   6.685   7.343 -1.7935 -0.2987  1.0670
   76RES   H10231752   5.882   6.393   7.410 -0.5410 -0.2022  2.3628
   76RES   H10331753   5.796   6.503   7.515  1.2311  1.6882  0.0281
   76RES   H10431754   5.692   6.415   7.237 -1.2680 -2.3771  0.1556
   76RES   H10531755   5.623   6.538   7.346 -0.6002 -0.5186  3.4398
   76RES   H10631756   5.623   6.371   7.393  2.6494 -0.6274  0.9691
   76RES   C10731757   6.317   6.864   7.351  0.5642 -0.9373 -0.3100
   76RES   C10831758   6.370   6.800   7.218  0.3964 -0.6854  0.7202
   76RES   C10931759   6.414   6.924   7.128 -0.0073  0.0675 -0.1006
   76RES   C11031760   6.426   6.886   6.980  0.1168 -0.3726 -0.9351
   76RES   C11131761   6.448   7.006   6.887 -0.4657 -0.4810  0.4547
   76RES   C11231762   6.459   6.972   6.737  0.2509  0.4799 -0.3846
   76RES   C11331763   6.336   6.900   6.674 -0.2846  0.1083  0.6766
   76RES   H11431764   6.400   6.902   7.411 -0.8314  3.6759 -1.1041
   76RES   H11531765   6.269   6.959   7.329  1.1566 -0.7768 -0.9052
   76RES   H11631766   6.285   6.762   7.161  0.8081 -0.6697  0.0901
   76RES   H11731767   6.506   6.972   7.162 -0.3304  0.1392  0.6759
   76RES   H11831768   6.333   6.996   7.119 -0.6765 -0.8034 -1.2064
   76RES   H11931769   6.503   6.809   6.973  0.6724  0.1484 -0.6170
   76RES   H12031770   6.334   6.841   6.943 -0.1602 -1.3445  0.8665
   76RES   H12131771   6.538   7.055   6.924 -0.8949  0.3579  0.4198
   76RES   H12231772   6.370   7.079   6.911  1.5211  1.4659  1.1127
   76RES   H12331773   6.448   7.070   6.689 -2.0255  0.4073 -0.0333
   76RES   H12431774   6.556   6.924   6.723 -0.4540 -1.2058  0.4077
   76RES   H12531775   6.239   6.910   6.723 -0.4983  0.9827  0.0889
   76RES   H12631776   6.302   6.928   6.574  0.9982 -1.6551 -0.2671
   76RES   H12731777   6.348   6.792   6.668 -0.8623  0.0832 -0.0667
   76RES   C12831778   6.466   6.680   7.234 -0.3127 -0.3427 -0.9026
   76RES   C12931779   6.428   6.549   7.162  0.0649 -0.3956  0.6033
   76RES   C13031780   6.329   6.462   7.250  0.2102  0.0020 -0.1516
   76RES   C13131781   6.287   6.327   7.186 -0.0657 -0.3709  0.5769
   76RES   C13231782   6.195   6.346   7.065  0.5444  0.2256 -0.4955
   76RES   C13331783   6.061   6.396   7.091  0.6130  0.1839  0.1414
   76RES   C13431784   5.988   6.428   6.959 -0.4119 -0.3316  0.3504
   76RES   H13531785   6.563   6.712   7.195  0.8018 -1.0731  1.2227
   76RES   H13631786   6.464   6.657   7.340  2.5493 -0.9188 -0.9276
   76RES   H13731787   6.380   6.572   7.067 -0.0356 -0.3679  0.6604
   76RES   H13831788   6.238   6.519   7.269  0.6587  1.0889 -1.2488
   76RES   H13931789   6.379   6.435   7.343 -1.0832  1.5148  1.0100
   76RES   H14031790   6.254   6.263   7.268 -0.7328  1.9697  2.1851
   76RES   H14131791   6.370   6.269   7.145 -0.0486  0.2169 -0.2301
   76RES   H14231792   6.171   6.251   7.017  3.0615  0.0439 -1.4935
   76RES   H14331793   6.239   6.412   6.989 -0.3489 -0.1432 -1.3433
   76RES   H14431794   6.069   6.487   7.151  1.1696  0.1303  0.1463
   76RES   H14531795   6.002   6.325   7.149  0.4285 -0.2591 -0.5808
   76RES   H14631796   6.050   6.494   6.898  1.8001 -0.8942  1.9226
   76RES   H14731797   5.889   6.468   6.978  0.6293  1.3204  2.5811
   76RES   H14831798   5.982   6.341   6.894  0.7560  0.7367 -1.2516
   76RES   C14931799   6.563   6.472   7.130 -0.4963 -0.0274 -0.8709
   76RES   C15031800   6.624   6.510   6.988  0.3945  0.9652  0.0312
   76RES   C15131801   6.548   6.451   6.864 -1.3996 -0.6764  0.0904
   76RES   C15231802   6.534   6.296   6.854 -1.2521 -0.1673 -0.0417
   76RES   C15331803   6.458   6.248   6.723 -0.4316 -0.1801 -0.2441
   76RES   C15431804   6.311   6.288   6.712 -0.0365  0.0716  0.2855
   76RES   C15531805   6.246   6.255   6.575  0.4999 -0.0820 -0.4362
   76RES   H15631806   6.628   6.498   7.213 -2.6798  0.3281  0.7990
   76RES   H15731807   6.559   6.363   7.131 -1.6493  0.0015  0.2104
   76RES   H15831808   6.621   6.619   6.985  0.3561  1.0161  1.5461
   76RES   H15931809   6.446   6.489   6.865 -1.7656 -1.6501  0.3698
   76RES   H16031810   6.586   6.498   6.774 -0.1106  0.4005  1.1787
   76RES   H16131811   6.458   6.263   6.925 -0.0635 -1.6495  0.5627
   76RES   H16231812   6.636   6.259   6.864 -1.1662  0.3759  1.2621
   76RES   H16331813   6.463   6.139   6.727  0.6384 -0.0595  3.4333
   76RES   H16431814   6.516   6.277   6.635  1.5571 -1.6382  0.5421
   76RES   H16531815   6.306   6.395   6.729  0.3122 -0.2311  2.5003
   76RES   H16631816   6.263   6.251   6.803 -0.8306  0.8231  0.1807
   76RES   H16731817   6.144   6.293   6.570 -0.2879 -1.7463  2.2073
   76RES   H16831818   6.244   6.148   6.556 -0.9225 -0.3450  1.0384
   76RES   H16931819   6.294   6.305   6.491 -0.3864 -1.5292 -1.8163
   76RES   C17031820   6.781   6.480   6.984 -0.3417 -0.8665  0.1225
   76RES   C17131821   6.863   6.543   6.876  0.0413 -0.1827  0.1237
   76RES   C17231822   6.871   6.695   6.900  0.1831  0.0213 -0.3274
   76RES   C17331823   6.851   6.793   6.786 -0.4224  0.4490 -0.7000
   76RES   C17431824   6.915   6.934   6.815  0.4214  0.1939  0.0471
   76RES   C17531825   7.056   6.949   6.780  0.4426 -0.0049  0.1738
   76RES   C17631826   7.115   7.075   6.837  0.1229  0.7831 -0.5174
   76RES   H17731827   6.792   6.372   6.993 -0.5776 -0.9276 -0.3602
   76RES   H17831828   6.818   6.521   7.079 -0.0679 -0.3360 -0.2078
   76RES   H17931829   6.813   6.523   6.782 -0.1782  2.9378 -0.4864
   76RES   H18031830   6.973   6.724   6.928  0.2451 -1.9021  1.5469
   76RES   H18131831   6.813   6.736   6.982  0.3107  2.6103 -1.4754
   76RES   H18231832   6.745   6.812   6.769 -0.2848  0.5142 -1.5460
   76RES   H18331833   6.903   6.759   6.696  0.0133 -0.0632 -0.2587
   76RES   H18431834   6.881   6.965   6.914  0.6809 -0.1769  0.2546
   76RES   H18531835   6.869   7.006   6.748 -0.3245  1.5270  1.9453
   76RES   H18631836   7.049   6.956   6.671 -2.9525 -0.2079  0.3023
   76RES   H18731837   7.105   6.863   6.825 -0.0182  0.2467  1.1575
   76RES   H18831838   7.149   7.062   6.939  1.9576  0.8220 -1.1009
   76RES   H18931839   7.040   7.154   6.828 -0.4239  0.3646  0.3170
   76RES   H19031840   7.201   7.106   6.778  1.8436 -2.8595 -0.0223
   76RES   C19131841   7.005   6.496   6.852 -0.0061 -0.9037  0.8381
   76RES   C19231842   7.019   6.341   6.829  0.8473  0.5068  0.3887
   76RES   C19331843   6.944   6.291   6.702 -0.2429 -0.5106 -0.0713
   76RES   C19431844   6.919   6.138   6.703  0.0934 -0.2278  0.6791
   76RES   C19531845   6.813   6.100   6.600 -0.7678  0.1981 -0.3600
   76RES   C19631846   6.868   6.099   6.456 -0.7166  0.4726  0.1492
   76RES   C19731847   7.002   6.016   6.436 -0.0885 -0.6974 -0.1280
   76RES   H19831848   7.057   6.507   6.947  1.0897  0.2424  0.1214
   76RES   H19931849   7.067   6.543   6.776 -1.3506  0.0962  0.3496
   76RES   H20031850   6.970   6.295   6.915  1.4717 -1.0511 -0.0689
   76RES   H20131851   7.001   6.313   6.612  1.4409 -1.2267  0.8031
   76RES   H20231852   6.849   6.343   6.693  0.1477  0.1482 -0.4730
   76RES   H20331853   6.882   6.103   6.800  0.2212 -1.8652  0.1438
   76RES   H20431854   7.015   6.088   6.693 -0.3477 -0.8723 -0.4134
   76RES   H20531855   6.767   6.008   6.637 -1.4715  0.8830  0.4913
   76RES   H20631856   6.724   6.163   6.599 -0.6377  0.4179  1.0387
   76RES   H20731857   6.887   6.203   6.430  2.6648 -0.1477 -0.0581
   76RES   H20831858   6.789   6.057   6.394  1.0814  0.4813 -2.2382
   76RES   H20931859   7.077   6.082   6.478 -0.9984  1.5526 -1.9132
   76RES   H21031860   7.022   5.980   6.335 -0.9489  0.4909 -0.7266
   76RES   H21131861   7.009   5.921   6.489 -1.9193 -1.5657 -1.3610
   76RES   C21231862   7.166   6.304   6.829 -0.2632  0.6664 -0.2325
   76RES   C21331863   7.235   6.304   6.974 -0.1019  0.0244 -0.4079
   76RES   C21431864   7.210   6.168   7.053  0.0325  0.2052  0.6108
   76RES   C21531865   7.162   6.184   7.198  0.1781  0.1052  0.0067
   76RES   C21631866   7.014   6.230   7.226 -0.1697 -0.1146 -0.0086
   76RES   C21731867   7.001   6.283   7.376 -0.1211  0.2966  0.8178
   76RES   C21831868   6.854   6.297   7.418  0.0554  0.5892  0.5886
   76RES   H21931869   7.218   6.370   6.759  3.2464 -0.2836  1.3921
   76RES   H22031870   7.175   6.209   6.777 -0.1495  0.9158 -0.6765
   76RES   H22131871   7.178   6.373   7.035 -0.6653  1.1048 -2.1240
   76RES   H22231872   7.153   6.101   6.988 -1.8462  1.3214  1.0471
   76RES   H22331873   7.314   6.138   7.063 -0.4000 -1.3536  0.4412
   76RES   H22431874   7.222   6.261   7.246  0.6596  0.9811 -1.9266
   76RES   H22531875   7.193   6.095   7.253 -0.6240 -0.9606 -1.2215
   76RES   H22631876   6.989   6.319   7.168  1.4044 -0.4053 -1.1798
   76RES   H22731877   6.940   6.154   7.202  0.5502 -0.8401  0.0537
   76RES   H22831878   7.044   6.213   7.448 -1.1269  1.5525  2.6555
   76RES   H22931879   7.053   6.378   7.384 -0.0893  0.1891  1.8990
   76RES   H23031880   6.838   6.366   7.502  2.8367  1.7444  0.2148
   76RES   H23131881   6.816   6.195   7.432  0.4972  0.0637 -1.8301
   76RES   H23231882   6.790   6.336   7.339  0.2154  0.4711  0.3997
   76RES   C23331883   7.379   6.347   6.978 -0.1527 -0.1358 -0.1683
   76RES   C23431884   7.401   6.497   6.956  0.5578  0.3352  0.4474
   76RES   C23531885   7.389   6.574   7.084 -0.0114 -0.4194  0.2602
   76RES   C23631886   7.250   6.638   7.114  0.5100  0.0922  0.4368
   76RES   C23731887   7.251   6.753   7.213  0.5573  0.6265 -0.0117
   76RES   C23831888   7.106   6.814   7.214 -0.1231 -0.3083 -0.0032
   76RES   C23931889   7.094   6.916   7.331  0.0269  0.2666 -0.2217
   76RES   H24031890   7.428   6.287   6.902  1.2764  1.3334 -0.4297
   76RES   H24131891   7.433   6.322   7.070 -1.1526  1.3482  0.8518
   76RES   H24231892   7.329   6.532   6.882  1.5993 -1.3958 -1.4244
   76RES   H24331893   7.455   6.660   7.070  2.7707 -2.5764 -0.2427
   76RES   H24431894   7.436   6.528   7.171  0.1703 -0.3185  0.2167
   76RES   H24531895   7.180   6.566   7.156  1.2225  0.4477  2.3313
   76RES   H24631896   7.214   6.684   7.022  1.7518 -0.8423 -0.5350
   76RES   H24731897   7.323   6.822   7.168  2.7583 -0.1403  2.2353
   76RES   H24831898   7.281   6.708   7.307  2.4210  1.1129 -0.3328
   76RES   H24931899   7.079   6.864   7.121 -1.0833 -0.2727  0.2910
   76RES   H25031900   7.026   6.740   7.221 -0.0798 -0.3275  0.2829
   76RES   H25131901   6.992   6.950   7.350  0.0959 -0.1542  0.9392
   76RES   H25231902   7.123   6.874   7.427  1.4598  0.5578 -0.5233
   76RES   H25331903   7.159   6.998   7.302  0.6646 -1.3220 -3.6298
   76RES   C25431904   7.538   6.514   6.886  0.0736  0.0261 -0.7249
   76RES   C25531905   7.562   6.657   6.829 -0.1577 -0.0304 -0.1538
   76RES   C25631906   7.449   6.709   6.733  0.0112  0.9981 -0.0198
   76RES   C25731907   7.406   6.625   6.612  0.3535 -0.3433 -0.3637
   76RES   C25831908   7.284   6.669   6.545  0.2058 -0.1545  0.5415
   76RES   C25931909   7.254   6.586   6.423 -0.3568 -0.7395 -0.3900
   76RES   C26031910   7.194   6.447   6.455  0.3383 -0.3484  0.2575
   76RES   H26131911   7.544   6.438   6.809 -0.9503 -2.1001  1.2220
   76RES   H26231912   7.624   6.496   6.951 -0.2196 -0.9060 -0.5816
   76RES   H26331913   7.563   6.723   6.915 -1.1194 -1.3203  0.8474
   76RES   H26431914   7.485   6.808   6.704  0.3783  1.1348  0.8744
   76RES   H26531915   7.361   6.728   6.795 -1.9924 -0.8794 -2.1893
   76RES   H26631916   7.482   6.623   6.534  0.3647 -1.1206 -0.3376
   76RES   H26731917   7.381   6.524   6.645  3.4165 -1.3555 -1.0191
   76RES   H26831918   7.296   6.768   6.501 -1.6308 -0.6670 -1.2122
   76RES   H26931919   7.202   6.684   6.615  1.7234  1.7546  1.9567
   76RES   H27031920   7.180   6.643   6.367  0.3523  0.9265  0.3244
   76RES   H27131921   7.346   6.568   6.366 -0.5605 -0.7008 -0.7324
   76RES   H27231922   7.169   6.394   6.363 -0.2329 -0.8575  0.7018
   76RES   H27331923   7.269   6.382   6.501 -0.9991 -2.2535 -0.1748
   76RES   H27431924   7.115   6.459   6.529  0.8664  0.9402  0.6241
   76RES   C27531925   7.711   6.662   6.768 -0.3193  0.1766  0.1362
   76RES   C27631926   0.047   6.800   6.725  0.3007  0.7708  0.3064
   76RES   C27731927   0.130   6.802   6.599  0.1818 -0.6118 -0.4557
   76RES   C27831928   0.061   6.734   6.475 -0.4466 -0.1925 -0.3222
   76RES   C27931929   0.132   6.759   6.340  0.0042  0.1233 -0.2990
   76RES   C28031930   0.090   6.652   6.240 -0.5404 -0.2735 -0.4335
   76RES   C28131931   0.136   6.677   6.096 -0.1480 -0.1818  0.8169
   76RES   H28231932   7.716   6.587   6.689  0.0003  0.0772  0.2513
   76RES   H28331933   0.046   6.617   6.846 -0.3891 -2.2890 -1.1647
   76RES   H28431934   7.688   6.860   6.695 -0.8157  0.3048  2.4401
   76RES   H28531935   0.160   6.904   6.576 -1.3119  0.9777  4.0367
   76RES   H28631936   0.224   6.748   6.610 -0.2006 -1.4414 -1.2174
   76RES   H28731937   7.680   6.751   6.471 -0.2562  0.7727 -2.1573
   76RES   H28831938   0.058   6.625   6.481 -2.1763 -0.2147 -1.3207
   76RES   H28931939   0.237   6.743   6.365 -0.8116 -2.2420  1.7614
   76RES   H29031940   0.106   6.858   6.300 -1.0603 -0.1181 -0.2228
   76RES   H29131941   0.115   6.552   6.275  0.7530 -0.4538 -1.8054
   76RES   H29231942   7.708   6.662   6.245 -0.7624 -3.1090  1.1657
   76RES   H29331943   0.110   6.781   6.080  0.4765  0.0230  1.1111
   76RES   H29431944   0.092   6.605   6.027  3.3224  1.3301 -3.1333
   76RES   H29531945   0.244   6.678   6.080 -0.7239  0.4437 -3.5785
   76RES   C29631946   0.142   6.864   6.831  0.2143 -0.2913  0.0063
   76RES   C29731947   0.082   6.893   6.968 -0.2036  0.3100  0.3775
   76RES   C29831948   7.705   7.007   6.957  0.5519  0.5487  0.0348
   76RES   C29931949   7.621   7.022   7.092  0.6112  0.2329 -0.4152
   76RES   C30031950   7.494   7.098   7.060  0.1701 -0.2388 -0.6964
   76RES   C30131951   7.424   7.150   7.185 -0.0327  0.0490  0.6445
   76RES   C30231952   7.281   7.201   7.160 -0.9362 -0.2848 -0.4202
   76RES   H30331953   0.240   6.816   6.837  1.8181  2.8354  0.0634
   76RES   H30431954   0.171   6.960   6.788 -0.0108 -0.5344 -0.7025
   76RES   H30531955   0.037   6.800   7.004 -1.4029 -0.1164 -2.0883
   76RES   H30631956   0.031   7.100   6.937  0.2923  0.6376 -0.2435
   76RES   H30731957   7.631   6.977   6.883 -1.9929  1.1355  2.2811
   76RES   H30831958   7.676   7.070   7.174 -1.5336  1.3272  0.4161
   76RES   H30931959   7.591   6.922   7.124 -2.8681  0.5611 -2.4296
   76RES   H31031960   7.432   7.023   7.011  0.6833 -2.1810  1.5394
   76RES   H31131961   7.509   7.182   6.993  2.1779  0.6095  0.7568
   76RES   H31231962   7.423   7.083   7.271 -3.1316 -3.4883 -1.9326
   76RES   H31331963   7.483   7.234   7.220 -0.2236  1.3434 -2.0182
   76RES   H31431964   7.275   7.268   7.074 -1.1128  0.5470  0.2266
   76RES   H31531965   7.208   7.123   7.138  0.1601 -1.6044  0.5789
   76RES   H31631966   7.253   7.257   7.249  1.4866  2.3473 -1.2282
   76RES   C31731967   0.201   6.931   7.075  0.3286  0.1275 -0.2449
   76RES   C31831968   0.278   6.813   7.143  0.0805 -0.4610 -0.5528
   76RES   C31931969   0.402   6.857   7.220 -0.1654 -0.5953 -0.2137
   76RES   C32031970   0.384   6.969   7.323  0.4940  0.4687 -0.3202
   76RES   C32131971   0.516   7.015   7.386 -0.0694 -0.2377  0.3133
   76RES   C32231972   0.496   7.153   7.453 -0.3056 -0.1828  0.5740
   76RES   C32331973   0.625   7.210   7.516  0.4581 -0.4938  0.3207
   76RES   H32431974   0.162   6.991   7.157  1.5677  0.6977 -0.0640
   76RES   H32531975   0.284   6.977   7.022 -0.0512 -1.7695 -2.5886
   76RES   H32631976   0.320   6.745   7.069  1.2023  0.2938 -0.6190
   76RES   H32731977   0.479   6.900   7.155 -0.8048  3.4026  1.5162
   76RES   H32831978   0.450   6.775   7.274 -1.0156 -1.7130 -1.1339
   76RES   H32931979   0.301   6.938   7.386  1.1384 -0.5688  0.0172
   76RES   H33031980   0.351   7.059   7.270 -0.7111 -0.7380 -1.6500
   76RES   H33131981   0.589   7.027   7.306  0.3851  0.0208  0.7677
   76RES   H33231982   0.553   6.941   7.456  1.8479 -0.1556 -0.5836
   76RES   H33331983   0.409   7.153   7.519 -1.3485 -0.2767 -0.7815
   76RES   H33431984   0.470   7.228   7.379  2.0319  1.7726  1.6625
   76RES   H33531985   0.694   7.248   7.440  0.1233  2.9115  1.6200
   76RES   H33631986   0.655   7.138   7.592  0.3421  0.1732  1.0016
   76RES   H33731987   0.619   7.290   7.590  0.7295 -0.9016  0.7883
   76RES   C33831988   0.189   6.722   7.234  0.1501 -0.0080  0.1371
   76RES   C33931989   0.140   6.593   7.163 -0.0050  0.7270 -0.5076
   76RES   C34031990   7.726   6.541   7.202  0.0795  0.6170  0.2810
   76RES   C34131991   7.707   6.524   7.356  0.1905  0.0452 -0.2549
   76RES   C34231992   7.558   6.480   7.397  0.2884 -0.8346  0.5252
   76RES   C34331993   7.539   6.473   7.552 -0.2450  0.1238  0.6624
   76RES   C34431994   7.396   6.461   7.606  0.2149  0.2737  0.1498
   76RES   H34531995   0.111   6.784   7.278 -1.2330 -0.5433 -1.5028
   76RES   H34631996   0.246   6.700   7.324  1.3730 -1.1881 -0.9060
   76RES   H34731997   0.131   6.615   7.057  1.5843  1.3361 -0.5297
   76RES   H34831998   7.661   6.620   7.164 -1.7398 -1.5656 -1.2557
   76RES   H34931999   7.702   6.450   7.146  1.6880 -0.8000  1.8405
   76RES   H35032000   0.017   6.607   7.415 -1.6452  1.0283 -0.4495
   76RES   H35132001   0.037   6.438   7.391  0.6707  0.6063  0.3584
   76RES   H35232002   7.490   6.562   7.373 -0.2204 -1.1193  0.9728
   76RES   H35332003   7.530   6.388   7.345 -1.0923  0.4378 -1.0602
   76RES   H35432004   7.593   6.386   7.590 -1.1287  0.0546  1.7530
   76RES   H35532005   7.595   6.554   7.600  1.2209 -0.1778 -0.4773
   76RES   H35632006   7.346   6.552   7.575  0.8114 -0.9281 -4.8601
   76RES   H35732007   7.397   6.441   7.713  2.5749  0.9215  0.2857
   76RES   H35832008   7.350   6.368   7.570 -0.6210  0.3338  1.0535
   76RES   C35932009   0.240   6.473   7.189  0.2584 -0.7515 -0.6759
   76RES   C36032010   0.232   6.354   7.091 -0.5576  0.2424  0.5781
   76RES   C36132011   0.302   6.404   6.958 -0.0266 -0.4682 -0.3350
   76RES   C36232012   0.245   6.351   6.825  0.3082  0.3841 -0.6208
   76RES   C36332013   0.324   6.417   6.709  0.6277  0.4660 -0.3732
   76RES   C36432014   0.275   6.348   6.579  0.2664  0.3964 -0.0273
   76RES   C36532015   0.352   6.394   6.456  0.9474 -0.5450  0.0496
   76RES   H36632016   0.228   6.436   7.290  2.8465  1.9893  0.7348
   76RES   H36732017   0.342   6.513   7.191 -1.3974  3.7462  0.1562
   76RES   H36832018   0.127   6.343   7.064 -0.3074 -1.4835  0.2085
   76RES   H36932019   0.286   6.511   6.958  1.0705 -0.2975 -1.5575
   76RES   H37032020   0.411   6.404   6.958 -0.0129 -0.1934  1.1233
   76RES   H37132021   0.264   6.244   6.818  0.0066  0.3547 -1.0331
   76RES   H37232022   0.137   6.365   6.817  0.7122  5.0989  0.5669
   76RES   H37332023   0.300   6.524   6.706 -1.3125  0.0186 -2.0771
   76RES   H37432024   0.432   6.408   6.720  0.1446 -3.0226  2.3186
   76RES   H37532025   0.289   6.242   6.603  1.7484  0.8513  1.2087
   76RES   H37632026   0.168   6.371   6.577  0.3349  0.6678 -0.8764
   76RES   H37732027   0.452   6.352   6.443  1.3119  0.3036  0.1438
   76RES   H37832028   0.287   6.367   6.373  0.5332  2.6316 -0.6996
   76RES   H37932029   0.368   6.501   6.449 -0.8989 -0.2759 -0.3392
   76RES   C38032030   0.265   6.204   7.130  0.2606  0.6660 -0.4946
   76RES   C38132031   0.182   6.092   7.067  0.2839 -0.7812 -0.2927
   76RES   C38232032   0.254   5.959   7.097 -0.0941 -0.6438 -0.1380
   76RES   C38332033   0.193   5.834   7.029 -0.3611 -0.2319  0.0227
   76RES   C38432034   0.285   5.716   7.038  0.8239 -0.0780  0.3639
   76RES   C38532035   0.405   5.712   6.941  0.1206 -0.4484  0.0394
   76RES   C38632036   0.502   5.591   6.976  0.1929 -0.3022  0.3522
   76RES   H38732037   0.365   6.172   7.101  0.2417 -0.9233  1.1267
   76RES   H38832038   0.269   6.188   7.238 -1.8617 -0.2614 -0.5338
   76RES   H38932039   0.189   6.109   6.959 -1.6341  0.5293 -0.2410
   76RES   H39032040   0.264   5.959   7.206  0.7497  3.3898 -0.1333
   76RES   H39132041   0.359   5.970   7.068 -0.6334  3.7009 -0.7857
   76RES   H39232042   0.102   5.817   7.086 -1.5449 -1.7953 -2.2660
   76RES   H39332043   0.159   5.858   6.929 -0.7785  0.2103  0.2704
   76RES   H39432044   0.321   5.704   7.140 -1.6349  2.0510  1.5297
   76RES   H39532045   0.228   5.626   7.013  0.3614  0.6531 -1.2721
   76RES   H39632046   0.457   5.808   6.933 -1.1300  0.3656  1.3822
   76RES   H39732047   0.371   5.686   6.841  2.2860  1.4143 -1.2508
   76RES   H39832048   0.496   5.557   7.079  0.9191  1.2896  0.9391
   76RES   H39932049   0.606   5.616   6.952  0.2588 -0.3617  0.5673
   76RES   H40032050   0.465   5.505   6.919  2.1133 -1.9971  1.5586
   76RES   C40132051   0.035   6.084   7.106 -0.5031 -0.0365 -0.9149
   76RES   C40232052   7.722   6.087   7.256  0.6601 -0.2690 -0.4568
   76RES   C40332053   7.572   6.085   7.283 -0.1676 -0.2053  0.3988
   76RES   C40432054   7.551   6.089   7.434  0.5666  0.0657  0.0852
   76RES   C40532055   7.401   6.090   7.462  0.1969  1.2441  0.1585
   76RES   C40632056   7.365   6.069   7.617 -0.6207 -1.0387 -0.5795
   76RES   C40732057   7.215   6.107   7.636 -0.4876 -0.2811  0.6566
   76RES   H40832058   7.715   6.004   7.048  0.1903 -0.8259 -0.3976
   76RES   H40932059   7.712   6.168   7.057  1.2448  1.7077  0.2499
   76RES   H41032060   0.028   6.182   7.298  0.2984 -0.4668  0.2807
   76RES   H41132061   7.542   5.988   7.242  2.6226 -1.4256  1.1159
   76RES   H41232062   7.512   6.159   7.231  1.1210  1.0268  0.6428
   76RES   H41332063   7.595   6.178   7.478  3.6262 -0.9699 -0.7629
   76RES   H41432064   7.588   5.998   7.482  0.4391  0.5891  1.1751
   76RES   H41532065   7.355   6.181   7.422  0.1547  0.2929 -2.0163
   76RES   H41632066   7.361   6.012   7.397  2.2649 -2.1382  2.7840
   76RES   H41732067   7.394   5.967   7.641  1.0554 -0.9128 -1.9884
   76RES   H41832068   7.429   6.134   7.676  0.0453 -0.0907 -2.3200
   76RES   H41932069   7.155   6.048   7.567  0.5212 -0.3101 -0.2205
   76RES   H42032070   7.195   6.209   7.605 -1.0898 -0.3174  0.9266
   76RES   H42132071   7.170   6.093   0.007  0.9089 -0.0497  1.3469
   76RES   H42232072   0.049   6.007   7.308  0.7719 -0.6985 -1.2326
   77RES     C132073   4.070   1.513   0.465  0.0370  0.0441 -0.0165
   77RES     C232074   4.220   1.525   0.505 -0.1002  0.1938  0.3619
   77RES     C332075   4.243   1.626   0.622  0.5992  0.0898  0.0557
   77RES     C432076   4.176   1.584   0.751 -0.0669  0.4469 -0.0808
   77RES     C532077   4.223   1.673   0.872  0.2664 -0.2586  0.0075
   77RES     C632078   4.133   1.653   0.992  0.3318  1.0225 -0.0926
   77RES     C732079   4.193   1.747   1.103 -0.4594  0.3514  0.0661
   77RES     H832080   4.016   1.605   0.443 -0.4568 -0.3951 -0.6580
   77RES     H932081   4.018   1.466   0.549  0.1512  1.2709  0.7620
   77RES    H1032082   4.259   1.433   0.550 -1.7437 -0.3194  0.7839
   77RES    H1132083   4.349   1.623   0.647  0.1425 -2.0977  1.8215
   77RES    H1232084   4.215   1.726   0.588 -2.3589 -0.9443 -0.6715
   77RES    H1332085   4.068   1.594   0.746 -0.5589 -2.8284  2.3359
   77RES    H1432086   4.197   1.483   0.787 -1.0833  0.5341  0.7936
   77RES    H1532087   4.214   1.777   0.840 -1.8194  0.2475  2.1154
   77RES    H1632088   4.330   1.668   0.893  0.9346  1.9452 -2.5607
   77RES    H1732089   4.114   1.548   1.013 -0.4035  1.1300 -0.1965
   77RES    H1832090   4.034   1.699   0.983  0.2160  1.5672  3.1814
   77RES    H1932091   4.143   1.712   1.194  0.7707 -1.2246  0.1501
   77RES    H2032092   4.175   1.852   1.079  1.5711  0.4256 -1.1820
   77RES    H2132093   4.300   1.734   1.114 -0.4581  0.2289 -0.0925
   77RES    H2232094   4.056   1.455   0.374 -0.1589 -0.2784  0.2182
   77RES    C2332095   4.310   1.564   0.380  0.0528  0.1113 -0.8575
   77RES    C2432096   4.456   1.574   0.400  0.1778 -1.0471  0.4541
   77RES    C2532097   4.517   1.632   0.266 -0.1485  0.7204  0.5390
   77RES    C2632098   4.667   1.658   0.279 -0.7767  0.4903 -0.5546
   77RES    C2732099   4.725   1.746   0.167  0.1611  0.2014  0.5591
   77RES    C2832100   4.858   1.815   0.204  0.9445  0.4656 -0.0357
   77RES    C2932101   4.909   1.900   0.084  0.8520 -0.5097 -0.0030
   77RES    H3032102   4.277   1.503   0.296 -3.6365  0.1263  0.4749
   77RES    H3132103   4.275   1.662   0.347  0.6407  0.7747  0.4379
   77RES    H3232104   4.478   1.657   0.468  0.8914  0.0676 -1.1057
   77RES    H3332105   4.464   1.722   0.235 -1.3982  0.3048  1.4251
   77RES    H3432106   4.507   1.567   0.179  3.5061  0.3723  0.2959
   77RES    H3532107   4.728   1.568   0.293 -0.4446  0.9990  1.3655
   77RES    H3632108   4.688   1.711   0.372 -0.3257  0.4742 -0.6457
   77RES    H3732109   4.650   1.816   0.130  0.8043  0.2214 -0.7252
   77RES    H3832110   4.747   1.677   0.086 -0.6278  0.9077 -0.2618
   77RES    H3932111   4.936   1.750   0.243  1.9228  2.1945  0.9520
   77RES    H4032112   4.841   1.893   0.278  0.4328 -0.6690  1.0592
   77RES    H4132113   4.997   1.963   0.096 -0.2138  0.7872  1.0492
   77RES    H4232114   4.929   1.840   7.721 -0.7692  0.2144 -0.8567
   77RES    H4332115   4.833   1.963   0.038  0.3577  0.6891  2.3977
   77RES    C4432116   4.529   1.450   0.455 -0.1565  0.1547  0.2743
   77RES    C4532117   4.553   1.333   0.355  0.0435  0.0541  0.0458
   77RES    C4632118   4.666   1.240   0.411 -0.4601 -0.0361 -0.7038
   77RES    C4732119   4.805   1.296   0.411  0.2054  0.5436  0.0283
   77RES    C4832120   4.902   1.187   0.470  0.3058  0.7039 -0.4047
   77RES    C4932121   5.046   1.234   0.463 -0.5309 -0.5017  0.1488
   77RES    C5032122   5.078   1.376   0.510  0.3397 -0.2975 -0.2381
   77RES    H5132123   4.467   1.412   0.536  0.7086 -2.1176 -0.0925
   77RES    H5232124   4.617   1.480   0.512  1.5789 -0.9006 -1.7799
   77RES    H5332125   4.572   1.374   0.256 -0.6656 -0.0924 -0.1527
   77RES    H5432126   4.658   1.141   0.367 -0.1415  0.4748 -1.9354
   77RES    H5532127   4.644   1.229   0.517 -1.2103  1.9748 -0.6379
   77RES    H5632128   4.842   1.333   0.315  0.3789 -0.8481 -0.4433
   77RES    H5732129   4.809   1.382   0.477 -0.0208  1.3389 -0.9673
   77RES    H5832130   4.877   1.108   0.399 -1.5087 -1.4585  2.5467
   77RES    H5932131   4.879   1.153   0.571  1.7215 -3.2230 -1.3451
   77RES    H6032132   5.075   1.224   0.359  2.0971  3.5651  0.3730
   77RES    H6132133   5.112   1.169   0.521  1.8005  2.6597  1.2300
   77RES    H6232134   5.027   1.447   0.445  0.6091 -0.4898 -0.6633
   77RES    H6332135   5.184   1.398   0.497  0.3626  0.3894  1.0265
   77RES    H6432136   5.053   1.385   0.615  0.1016  0.8094 -0.3819
   77RES    C6532137   4.425   1.254   0.342  0.3080  0.1800  1.1405
   77RES    C6632138   4.411   1.166   0.218 -0.2561 -0.1898  0.1549
   77RES    C6732139   4.389   1.240   0.086 -0.1268  0.6755 -0.1689
   77RES    C6832140   4.513   1.233   7.719  0.3262  0.0233 -0.6603
   77RES    C6932141   4.486   1.292   7.587  0.3653 -0.5202 -0.9505
   77RES    C7032142   4.611   1.322   7.504 -0.0611  0.0139  0.1277
   77RES    C7132143   4.662   1.189   7.440  0.2385 -0.3966 -0.2055
   77RES    H7232144   4.419   1.186   0.427 -1.5755 -1.2220 -0.0435
   77RES    H7332145   4.333   1.312   0.347 -0.2116 -0.4443 -0.6023
   77RES    H7432146   4.507   1.115   0.208 -0.8955 -1.5144  0.6071
   77RES    H7532147   4.299   1.201   0.038  0.0151 -1.0549  0.9429
   77RES    H7632148   4.372   1.343   0.117  0.5563  0.2260  1.7820
   77RES    H7732149   4.594   1.286   0.043  0.2211 -0.7335  0.3167
   77RES    H7832150   4.548   1.130   7.711  0.8977  0.1244  0.3676
   77RES    H7932151   4.422   1.230   7.524 -0.4702  0.5550 -1.1780
   77RES    H8032152   4.437   1.389   7.589 -1.3157 -1.3872  2.4159
   77RES    H8132153   4.686   1.371   7.566  0.8035 -2.1370  0.8454
   77RES    H8232154   4.581   1.389   7.423 -2.7735 -0.8127  0.4148
   77RES    H8332155   4.664   1.108   7.513  2.4516 -0.2534 -0.0809
   77RES    H8432156   4.594   1.152   7.363  0.7252 -0.5571 -0.5589
   77RES    H8532157   4.763   1.199   7.401  0.3219  3.6518  0.8345
   77RES    C8632158   4.298   1.062   0.242  0.3150 -0.3966  0.5792
   77RES    C8732159   4.293   0.946   0.141  0.0796  0.3015 -0.3189
   77RES    C8832160   4.403   0.849   0.172  0.3333 -0.0387 -0.7635
   77RES    C8932161   4.449   0.756   0.054  0.0205  0.2856 -0.2848
   77RES    C9032162   4.521   0.628   0.107  0.3748 -0.5808  0.1718
   77RES    C9132163   4.555   0.524   7.725  0.4083  0.2036 -0.1460
   77RES    C9232164   4.633   0.407   0.046 -0.3919  0.2091  0.2986
   77RES    H9332165   4.301   1.019   0.342  0.4745  0.6919  1.0443
   77RES    H9432166   4.201   1.111   0.233  0.2669 -0.6526 -0.3275
   77RES    H9532167   4.294   0.990   0.042  1.6131  0.9756 -0.0298
   77RES    H9632168   4.494   0.891   0.215 -0.2406  0.2903  0.1654
   77RES    H9732169   4.373   0.781   0.252  1.4100 -0.1496 -0.4492
   77RES    H9832170   4.358   0.742   7.722  0.0309 -0.1342 -0.1994
   77RES    H9932171   4.518   0.798   7.707 -0.1325  0.0978 -0.5388
   77RES   H10032172   4.456   0.570   0.173 -0.0363  0.9049  1.0880
   77RES   H10132173   4.615   0.653   0.156  0.6807 -1.4567  0.0477
   77RES   H10232174   4.465   0.492   7.674  0.8131  1.3585 -1.6585
   77RES   H10332175   4.610   0.573   7.644  1.0092  0.5571  0.4555
   77RES   H10432176   4.660   0.343   7.689  0.0282  0.9203 -0.1137
   77RES   H10532177   4.572   0.350   0.116 -1.5533 -0.2278 -1.0522
   77RES   H10632178   4.729   0.439   0.087  0.0776 -1.2464  0.3586
   77RES   C10732179   4.160   0.866   0.151 -0.1950 -0.1915 -0.9638
   77RES   C10832180   4.028   0.947   0.103 -0.2386  0.6732 -1.2857
   77RES   C10932181   4.030   0.979   7.677 -1.1324 -0.3267 -0.4538
   77RES   C11032182   3.897   1.035   7.629  0.0461  1.2313  0.3639
   77RES   C11132183   3.912   1.115   7.507 -0.2742 -0.5500  0.0327
   77RES   C11232184   3.958   1.022   7.395  0.5433 -0.1462  0.5381
   77RES   C11332185   3.972   1.105   7.272  0.6499  0.3124  0.4096
   77RES   H11432186   4.157   0.832   0.255  3.0847 -0.7032 -0.9832
   77RES   H11532187   4.177   0.774   0.095  0.4642 -0.8213  0.2301
   77RES   H11632188   4.024   1.044   0.151  0.2191 -0.2925  0.7702
   77RES   H11732189   4.047   0.887   7.620  0.1822  0.7201 -1.7928
   77RES   H11832190   4.117   1.039   7.650  0.8084 -2.2817  1.2579
   77RES   H11932191   3.823   0.959   7.604  0.1932  1.1928  0.0477
   77RES   H12032192   3.852   1.093   7.710  0.5951  1.1691  0.7202
   77RES   H12132193   3.976   1.203   7.512 -2.4075  1.0298  0.2014
   77RES   H12232194   3.814   1.163   7.502 -0.2917 -0.4402  1.1468
   77RES   H12332195   4.055   0.976   7.416  0.0745 -0.5345  1.9134
   77RES   H12432196   3.889   0.938   7.389 -1.4837  1.5514 -0.7912
   77RES   H12532197   3.878   1.158   7.254  0.2000 -0.3704  0.7425
   77RES   H12632198   4.054   1.177   7.264 -1.0939  2.4758  1.2636
   77RES   H12732199   3.995   1.034   7.193 -1.6005 -0.0425  0.0414
   77RES   C12832200   3.898   0.869   0.144  0.0918  0.0177 -0.1880
   77RES   C12932201   3.803   0.929   0.251 -0.1043  0.3299  0.1546
   77RES   C13032202   3.851   0.928   0.393  0.0391  0.3529  0.0039
   77RES   C13132203   3.961   1.027   0.420 -0.4331 -0.1283  0.2132
   77RES   C13232204   4.002   1.029   0.564  0.1204 -0.5668 -0.4807
   77RES   C13332205   4.124   1.128   0.586 -0.4425 -0.2867 -0.1857
   77RES   C13432206   4.184   1.144   0.732  0.2147 -0.1081  0.0807
   77RES   H13532207   3.849   0.837   0.052 -0.2092 -1.0190  0.3264
   77RES   H13632208   3.927   0.772   0.184  1.0563  1.1641  1.9886
   77RES   H13732209   3.789   1.032   0.218 -0.4785  0.8121  1.7538
   77RES   H13832210   3.880   0.827   0.421 -3.9659 -0.7940  0.2277
   77RES   H13932211   3.771   0.963   0.458  1.4888  0.9910  1.5196
   77RES   H14032212   3.932   1.128   0.392  0.2186  1.1876  4.0907
   77RES   H14132213   4.052   0.993   0.369  0.3766  0.7738  1.0456
   77RES   H14232214   4.012   0.928   0.603  0.3494  0.6263  2.7148
   77RES   H14332215   3.929   1.074   0.633  1.2835 -0.2413  0.5615
   77RES   H14432216   4.092   1.228   0.556 -2.7062 -0.9985 -0.2362
   77RES   H14532217   4.206   1.089   0.527  0.0976 -0.5823  0.7494
   77RES   H14632218   4.117   1.166   0.816 -2.5497 -2.0872 -1.5239
   77RES   H14732219   4.262   1.220   0.741  1.7480 -1.5668 -0.6508
   77RES   H14832220   4.226   1.049   0.765 -0.6140 -0.2514  0.7363
   77RES   C14932221   3.665   0.867   0.238 -0.7121  0.3093  0.2246
   77RES   C15032222   3.544   0.940   0.299  0.5691 -0.1042  0.6321
   77RES   C15132223   3.422   0.844   0.264 -0.3678 -0.1018 -0.2042
   77RES   C15232224   3.300   0.861   0.359  0.7258  0.4741  0.1652
   77RES   C15332225   3.181   0.764   0.338  0.0045 -0.2823  0.1041
   77RES   C15432226   3.076   0.779   0.451  0.2199 -0.3522 -0.1802
   77RES   C15532227   2.958   0.695   0.431 -0.7825 -0.0329 -0.0373
   77RES   H15632228   3.643   0.843   0.134 -0.5729  1.1809 -0.0123
   77RES   H15732229   3.677   0.769   0.284  2.8370  0.1679 -0.8433
   77RES   H15832230   3.542   0.937   0.408  1.9862 -2.4831  0.6348
   77RES   H15932231   3.391   0.853   0.160  0.6744 -0.5641 -0.5645
   77RES   H16032232   3.446   0.739   0.278  0.2745 -0.2420 -2.1902
   77RES   H16132233   3.261   0.962   0.356  1.0044  0.5499 -1.5883
   77RES   H16232234   3.341   0.845   0.459  1.4630  0.6686 -0.1014
   77RES   H16332235   3.217   0.663   0.321  0.4048 -0.2880  0.9762
   77RES   H16432236   3.128   0.801   0.250  0.9829  0.5001 -0.1715
   77RES   H16532237   3.046   0.883   0.460  0.9394 -0.1453 -0.1735
   77RES   H16632238   3.115   0.756   0.550  1.2421 -0.9003 -0.7020
   77RES   H16732239   2.884   0.705   0.510 -1.0715 -2.3772 -0.0033
   77RES   H16832240   2.985   0.591   0.448 -0.6874 -0.1222 -0.7105
   77RES   H16932241   2.921   0.699   0.328 -1.1214 -0.9635  0.0506
   77RES   C17032242   3.515   1.082   0.236 -0.3808 -0.6904  0.4921
   77RES   C17132243   3.567   1.195   0.328  0.6310 -0.1531 -0.2534
   77RES   C17232244   3.595   1.322   0.251 -0.2677 -0.1420  0.2921
   77RES   C17332245   3.712   1.320   0.150  0.1030  0.8953 -0.8093
   77RES   C17432246   3.745   1.457   0.091 -0.2787 -0.3947  0.2492
   77RES   C17532247   3.844   1.447   7.699  0.2556  0.2493  0.4016
   77RES   C17632248   3.991   1.403   0.029  0.0470  0.0155 -0.0085
   77RES   H17732249   3.408   1.103   0.237 -0.4122 -0.6639 -1.3987
   77RES   H17832250   3.562   1.087   0.138 -0.7986  0.1584  0.3328
   77RES   H17932251   3.667   1.162   0.358  0.0587 -1.2806  0.4506
   77RES   H18032252   3.626   1.396   0.324 -0.7418  1.7089 -1.3358
   77RES   H18132253   3.502   1.368   0.215 -0.0157  0.5753  0.5532
   77RES   H18232254   3.676   1.251   0.074 -0.1989  0.1298  0.0230
   77RES   H18332255   3.803   1.275   0.192  0.7473  3.6629  0.9432
   77RES   H18432256   3.782   1.527   0.165 -0.4387  1.3357 -1.2682
   77RES   H18532257   3.651   1.504   0.060  0.1890  0.6552  0.3956
   77RES   H18632258   3.844   1.546   7.654 -1.4459 -0.2743 -0.8317
   77RES   H18732259   3.816   1.383   7.615 -1.3799 -1.0223  1.8637
   77RES   H18832260   4.002   1.295   0.036 -0.5649 -0.1373 -1.3837
   77RES   H18932261   4.019   1.446   0.126  3.1421 -0.1462 -0.7891
   77RES   H19032262   4.066   1.451   7.693 -0.8077  0.5791 -0.6128
   77RES   C19132263   3.471   1.219   0.445  0.1784  0.3091  0.0897
   77RES   C19232264   3.506   1.328   0.551 -0.2449  0.4504 -0.0649
   77RES   C19332265   3.392   1.361   0.656 -0.0319  0.1490 -0.4801
   77RES   C19432266   3.251   1.368   0.599  0.0869 -0.1590  0.7581
   77RES   C19532267   3.235   1.484   0.504  0.5164  0.1349  0.5863
   77RES   C19632268   3.092   1.492   0.438 -0.2538 -0.4370 -0.1065
   77RES   C19732269   2.998   1.560   0.537 -0.3390 -0.0047  0.3699
   77RES   H19832270   3.435   1.127   0.492  0.6343 -0.1457 -0.4454
   77RES   H19932271   3.383   1.255   0.393 -1.9304 -1.2440  2.4526
   77RES   H20032272   3.520   1.418   0.491 -0.4808 -0.7799 -2.0034
   77RES   H20132273   3.421   1.460   0.689 -0.6047  0.1178  0.1182
   77RES   H20232274   3.413   1.307   0.748  3.4293  1.9862 -0.1171
   77RES   H20332275   3.183   1.377   0.684  0.0476  0.9568  0.6194
   77RES   H20432276   3.210   1.278   0.553  1.1997  0.1094 -0.7876
   77RES   H20532277   3.255   1.577   0.556  0.7635 -0.0150  0.7585
   77RES   H20632278   3.297   1.473   0.415  0.0262 -0.2916  0.2950
   77RES   H20732279   3.063   1.390   0.415  0.6104 -0.6244 -0.3935
   77RES   H20832280   3.100   1.541   0.341 -1.5637 -1.8058 -0.9162
   77RES   H20932281   2.896   1.546   0.500 -0.1727  1.7632 -0.7794
   77RES   H21032282   3.017   1.667   0.537  0.7715 -0.1988 -0.1164
   77RES   H21132283   3.001   1.515   0.636  0.7872 -1.1679 -0.1819
   77RES   C21232284   3.636   1.309   0.628  0.2797  0.3546 -0.5502
   77RES   C21332285   3.675   1.417   0.730  0.1392 -0.6647  0.1139
   77RES   C21432286   3.799   1.353   0.804 -0.1862  0.0460  0.4724
   77RES   C21532287   3.763   1.282   0.930 -0.1683 -0.1275 -0.1749
   77RES   C21632288   3.733   1.362   1.055 -0.0629 -0.4230  0.0643
   77RES   C21732289   3.690   1.289   1.184  0.1994 -0.3663  0.9160
   77RES   C21832290   3.589   1.385   1.250 -0.2502 -0.1883 -0.5607
   77RES   H21932291   3.713   1.301   0.552 -0.9916  1.4181 -1.9752
   77RES   H22032292   3.630   1.213   0.679  0.9937  0.9940  0.7859
   77RES   H22132293   3.598   1.439   0.804 -0.2714  1.9127 -1.0575
   77RES   H22232294   3.841   1.277   0.738 -0.2760  1.8104 -1.7152
   77RES   H22332295   3.877   1.427   0.822 -1.1809  0.9252  1.2086
   77RES   H22432296   3.850   1.218   0.944  1.2940  1.1456 -3.0574
   77RES   H22532297   3.685   1.208   0.917  0.5983 -1.1458  0.9356
   77RES   H22632298   3.819   1.428   1.072 -0.2674 -0.2092  0.2730
   77RES   H22732299   3.653   1.427   1.020 -0.8964  0.6272  3.6984
   77RES   H22832300   3.643   1.193   1.160 -0.2988 -0.4489  2.1846
   77RES   H22932301   3.768   1.273   1.258 -0.2667  0.3646  1.5682
   77RES   H23032302   3.644   1.445   1.323 -0.4095 -2.3791  1.4071
   77RES   H23132303   3.526   1.316   1.306  3.3101 -2.2848  1.0149
   77RES   H23232304   3.538   1.450   1.178  0.0845  1.9566  1.0748
   77RES   C23332305   3.708   1.563   0.665 -0.6530  0.1175  0.0753
   77RES   C23432306   3.751   1.674   0.772 -0.2667 -0.5279 -0.3038
   77RES   C23532307   3.829   1.788   0.697 -0.5081  1.6596  0.7949
   77RES   C23632308   3.757   1.874   0.586  0.1321  0.8882 -0.8047
   77RES   C23732309   3.843   1.982   0.528  0.2257 -0.8682  1.4150
   77RES   C23832310   3.764   2.072   0.439  0.6938 -0.3354 -0.0294
   77RES   C23932311   3.671   2.005   0.340 -0.2692  0.8662  0.0979
   77RES   H24032312   3.616   1.597   0.618  0.0686  1.0110 -0.7082
   77RES   H24132313   3.776   1.551   0.580 -1.0737  0.2437 -0.2838
   77RES   H24232314   3.810   1.631   0.853 -1.4369 -0.5607  0.5461
   77RES   H24332315   3.924   1.745   0.665 -0.8526 -1.1867  3.3417
   77RES   H24432316   3.862   1.860   0.772  1.9883  2.0792 -0.6637
   77RES   H24532317   3.687   1.937   0.641 -0.2438  1.3587 -1.8031
   77RES   H24632318   3.714   1.810   0.510  0.5897 -2.4022  1.6114
   77RES   H24732319   3.923   1.938   0.468 -1.1611  2.1870 -2.9723
   77RES   H24832320   3.883   2.037   0.613 -2.3437  3.6055 -0.1067
   77RES   H24932321   3.708   2.145   0.497 -1.7638 -0.5219 -2.0851
   77RES   H25032322   3.833   2.140   0.388 -0.1224 -0.6597 -1.5914
   77RES   H25132323   3.592   1.947   0.387 -0.6273 -0.7969 -2.4531
   77RES   H25232324   3.616   2.072   0.273  0.4796 -0.6782 -2.1151
   77RES   H25332325   3.727   1.937   0.275  0.0061  0.4835  0.7328
   77RES   C25432326   3.628   1.738   0.847  0.3559 -0.3573  0.3638
   77RES   C25532327   3.647   1.815   0.973  0.7924  0.0941 -0.6581
   77RES   C25632328   3.712   1.743   1.098  0.0465 -0.3048  0.8012
   77RES   C25732329   3.778   1.843   1.197 -0.5029  0.2505  0.1106
   77RES   C25832330   3.847   1.759   1.305 -0.3242  0.6731 -0.0589
   77RES   C25932331   3.885   1.830   1.434  0.4171 -0.6076 -0.3473
   77RES   C26032332   3.994   1.937   1.421 -0.0146  0.1487 -0.1003
   77RES   H26132333   3.560   1.659   0.880 -0.9772  0.3158 -0.7055
   77RES   H26232334   3.574   1.797   0.772  0.5070 -0.2831  0.3127
   77RES   H26332335   3.722   1.886   0.938  0.1342  0.0177 -2.2276
   77RES   H26432336   3.800   1.688   1.064 -1.9291 -2.7736 -0.4670
   77RES   H26532337   3.646   1.672   1.148 -0.1498 -0.0470  0.9138
   77RES   H26632338   3.858   1.899   1.149  0.3551  0.7142  2.0490
   77RES   H26732339   3.701   1.915   1.225  1.8258  3.2483 -0.9303
   77RES   H26832340   3.943   1.724   1.267 -1.2976 -1.7574 -0.3412
   77RES   H26932341   3.792   1.667   1.324  1.6082 -0.7600 -1.1329
   77RES   H27032342   3.792   1.874   1.470 -1.1246 -3.4894 -0.6091
   77RES   H27132343   3.922   1.766   1.514  0.5626 -0.9238 -0.6629
   77RES   H27232344   4.084   1.883   1.392  1.1497  1.6783  0.6018
   77RES   H27332345   3.973   2.019   1.352 -1.0158  0.2814  0.3463
   77RES   H27432346   4.002   1.993   1.514  1.6941  1.6468 -1.1066
   77RES   C27532347   3.514   1.875   1.021  0.4100  0.9804 -0.4802
   77RES   C27632348   3.485   2.015   0.954 -0.1890  0.3275  0.3022
   77RES   C27732349   3.574   2.125   1.010  0.3010 -0.2302  0.4361
   77RES   C27832350   3.579   2.248   0.921  0.6182 -0.6529 -0.6235
   77RES   C27932351   3.693   2.342   0.953 -0.5033 -0.9913  1.6412
   77RES   C28032352   3.702   2.461   0.853  0.6704 -0.2098  0.1205
   77RES   C28132353   3.744   2.597   0.899  0.0745  0.1401  0.1787
   77RES   H28232354   3.507   1.883   1.129  1.3559  2.2288 -0.4991
   77RES   H28332355   3.430   1.807   1.009  2.1880 -0.9907 -2.1051
   77RES   H28432356   3.513   2.014   0.849 -0.6887  0.9351  0.1661
   77RES   H28532357   3.528   2.153   1.105 -0.4202  1.8901 -0.5020
   77RES   H28632358   3.673   2.090   1.039  0.5581 -0.3299 -0.5481
   77RES   H28732359   3.479   2.290   0.923  0.8128 -0.1418 -1.4895
   77RES   H28832360   3.592   2.223   0.815 -0.2172  0.0126 -0.8803
   77RES   H28932361   3.788   2.288   0.947 -0.2538 -0.4240  0.2079
   77RES   H29032362   3.678   2.379   1.054 -1.0255  0.0281  1.1873
   77RES   H29132363   3.780   2.423   0.787 -0.6402 -0.2541 -1.4187
   77RES   H29232364   3.610   2.473   0.796  0.9028  0.7740 -0.0490
   77RES   H29332365   3.772   2.651   0.809  0.1863 -0.8205 -0.3687
   77RES   H29432366   3.826   2.588   0.971  0.5649  0.0673 -0.3836
   77RES   H29532367   3.667   2.655   0.950  0.9214  0.6131  0.9568
   77RES   C29632368   3.339   2.060   0.956  0.6326  0.0868 -0.6192
   77RES   C29732369   3.245   1.982   0.864 -0.7360  0.1493  0.0396
   77RES   C29832370   3.278   1.999   0.716 -0.2731  0.7336  0.1086
   77RES   C29932371   3.279   2.145   0.654  0.1305  0.0570  0.2354
   77RES   C30032372   3.318   2.152   0.506  0.0663  0.0298 -0.3292
   77RES   C30132373   3.353   2.291   0.455  0.1876  0.4600  0.2073
   77RES   C30232374   3.389   2.289   0.311  0.1660 -0.1535  0.1656
   77RES   H30332375   3.307   2.052   1.060  0.3026 -1.8521 -0.8549
   77RES   H30432376   3.321   2.167   0.944  1.4064  0.4856  1.4806
   77RES   H30532377   3.258   1.877   0.889 -1.7881  0.0840  0.3430
   77RES   H30632378   3.376   1.953   0.700 -0.7781 -0.2591 -0.1468
   77RES   H30732379   3.220   1.927   0.659  0.2728 -1.1573  1.9060
   77RES   H30832380   3.351   2.206   0.709 -2.4309  3.1558  0.3352
   77RES   H30932381   3.179   2.186   0.668  1.3706  3.1126  0.5501
   77RES   H31032382   3.239   2.115   0.441  1.0167  0.5273 -1.7906
   77RES   H31132383   3.403   2.085   0.496 -2.0156 -2.5130 -1.7465
   77RES   H31232384   3.280   2.368   0.475  0.8477  1.4652 -1.1393
   77RES   H31332385   3.437   2.324   0.516 -1.6743  1.6830  2.1797
   77RES   H31432386   3.441   2.378   0.276  1.3542 -1.0496 -0.3522
   77RES   H31532387   3.459   2.213   0.276  1.1151  0.5642  0.4849
   77RES   H31632388   3.307   2.270   0.242 -1.2445  1.8930  1.2007
   77RES   C31732389   3.091   1.997   0.899 -0.4057 -0.0296  0.9687
   77RES   C31832390   2.993   1.910   0.817  0.2920 -0.3983  0.8786
   77RES   C31932391   3.017   1.760   0.828  0.2484 -0.1328  0.0334
   77RES   C32032392   3.043   1.703   0.978 -0.2066 -0.3263 -0.8142
   77RES   C32132393   3.040   1.548   0.988 -0.2212  0.0749  0.0411
   77RES   C32232394   2.900   1.484   0.970  0.6706 -0.3795 -0.2149
   77RES   C32332395   2.904   1.326   0.966  0.1181  0.5157 -0.0591
   77RES   H32432396   3.062   2.100   0.881 -0.6589 -0.2656 -0.0220
   77RES   H32532397   3.076   1.980   1.006 -0.9207 -0.1877  0.8755
   77RES   H32632398   3.003   1.941   0.713  0.1696 -0.8206  0.7380
   77RES   H32732399   3.100   1.731   0.763  1.3225 -0.6538  1.5932
   77RES   H32832400   2.944   1.705   0.769  1.0063 -0.3561 -0.7146
   77RES   H32932401   2.956   1.738   1.035  0.6969  1.1191 -0.3104
   77RES   H33032402   3.133   1.749   1.019 -1.7664  1.3190  0.8984
   77RES   H33132403   3.079   1.515   1.085 -1.3384 -4.3558 -0.8774
   77RES   H33232404   3.102   1.509   0.907 -1.7057 -0.9002 -0.6439
   77RES   H33332405   2.863   1.512   0.872  0.7206 -0.8163 -0.3542
   77RES   H33432406   2.837   1.539   1.040  2.3862  0.6961  0.5313
   77RES   H33532407   2.984   1.303   0.896  0.6783 -2.6183  1.5132
   77RES   H33632408   2.805   1.282   0.953  0.7878 -0.6456 -1.3576
   77RES   H33732409   2.936   1.288   1.063 -0.8281 -3.1517 -1.1289
   77RES   C33832410   2.843   1.933   0.852 -0.1176  0.3416 -0.1385
   77RES   C33932411   2.731   1.856   0.777  0.2450  0.1839  0.4386
   77RES   C34032412   2.731   1.903   0.628 -0.5545  0.0838  0.2272
   77RES   C34132413   2.636   1.848   0.522  0.6717  0.0175  0.2440
   77RES   C34232414   2.660   1.703   0.474 -0.3634 -0.4125  0.5315
   77RES   C34332415   2.556   1.652   0.372  0.4155 -0.7265  0.3512
   77RES   C34432416   2.563   1.499   0.346 -0.1599 -0.1668 -0.9925
   77RES   H34532417   2.825   2.041   0.854  1.4848  0.6207  1.1251
   77RES   H34632418   2.825   1.907   0.957  0.2962 -0.1596 -0.1891
   77RES   H34732419   2.758   1.751   0.775 -0.9775 -0.1238 -0.9370
   77RES   H34832420   2.701   2.008   0.635 -1.8265 -0.3189  1.0025
   77RES   H34932421   2.827   1.917   0.579 -2.0274 -1.0938 -3.1212
   77RES   H35032422   2.643   1.913   0.435 -1.9787 -0.3944 -0.3039
   77RES   H35132423   2.533   1.870   0.549 -0.6993 -2.8581 -2.3610
   77RES   H35232424   2.763   1.688   0.441 -1.2294  0.2219 -2.6288
   77RES   H35332425   2.651   1.649   0.568 -1.0015  0.7211  1.1351
   77RES   H35432426   2.458   1.676   0.413 -0.8808 -2.2402 -1.6960
   77RES   H35532427   2.558   1.700   0.274  2.1389 -1.5930 -0.0563
   77RES   H35632428   2.521   1.437   0.426  0.0217 -0.3995 -1.0785
   77RES   H35732429   2.667   1.468   0.338 -0.7578 -2.3653 -0.5504
   77RES   H35832430   2.510   1.470   0.255 -0.7947 -0.1410 -0.6355
   77RES   C35932431   2.591   1.874   0.854 -0.9862  0.5174 -0.1589
   77RES   C36032432   2.491   1.763   0.812 -0.6745 -0.4158  0.2697
   77RES   C36132433   2.540   1.615   0.838 -0.3194 -0.6452  0.2041
   77RES   C36232434   2.457   1.496   0.791  0.0898 -0.2724 -0.6943
   77RES   C36332435   2.515   1.365   0.816  0.1046 -0.5536  0.7189
   77RES   C36432436   2.428   1.248   0.757 -0.5914 -0.0051  0.4399
   77RES   C36532437   2.483   1.115   0.808 -0.1007 -0.4142 -0.0751
   77RES   H36632438   2.556   1.975   0.831 -1.6022  0.1255 -0.9813
   77RES   H36732439   2.604   1.861   0.961  2.8421  2.2129 -0.3044
   77RES   H36832440   2.470   1.791   0.708 -2.3553 -1.0564  0.4268
   77RES   H36932441   2.627   1.606   0.773  0.4831  0.0405  1.1580
   77RES   H37032442   2.585   1.603   0.937  1.9121 -0.7505 -0.7924
   77RES   H37132443   2.372   1.487   0.859  0.6681 -1.0114 -0.0560
   77RES   H37232444   2.429   1.501   0.686  0.2296 -0.3192 -0.7329
   77RES   H37332445   2.619   1.349   0.788 -0.5598 -1.8645 -1.0916
   77RES   H37432446   2.532   1.347   0.922 -0.0719 -1.8720  0.5364
   77RES   H37532447   2.322   1.259   0.782 -0.6628 -0.8271  0.4960
   77RES   H37632448   2.425   1.269   0.650  1.6355  2.5385  0.8417
   77RES   H37732449   2.590   1.119   0.823 -0.1853 -0.4503  0.5609
   77RES   H37832450   2.448   1.097   0.910  0.4518  2.6572  0.7261
   77RES   H37932451   2.450   1.041   0.735  0.9551  0.1008 -1.0790
   77RES   C38032452   2.357   1.783   0.877  0.2037  0.6679 -0.5079
   77RES   C38132453   2.280   1.919   0.868 -0.3872 -0.3337  0.3161
   77RES   C38232454   2.252   1.958   0.721  0.2985 -0.4189  0.0966
   77RES   C38332455   2.184   2.096   0.706 -0.0596  0.2591  0.3769
   77RES   C38432456   2.177   2.145   0.557 -0.5542 -0.1080  0.4788
   77RES   C38532457   2.119   2.283   0.543 -0.1125  0.5709  0.0772
   77RES   C38632458   1.977   2.314   0.586  0.5824 -0.2970  0.3328
   77RES   H38732459   2.294   1.704   0.838 -0.6836  0.3821  1.4522
   77RES   H38832460   2.364   1.755   0.982 -0.8717 -1.2428 -0.9425
   77RES   H38932461   2.352   1.990   0.908 -1.1281 -0.3020  1.6167
   77RES   H39032462   2.186   1.884   0.674  0.6823 -1.3568  1.0121
   77RES   H39132463   2.344   1.953   0.663 -0.0613 -1.3706 -0.3992
   77RES   H39232464   2.084   2.094   0.750  0.1340 -0.7005  0.7877
   77RES   H39332465   2.233   2.168   0.771 -0.1107  1.8178 -1.2617
   77RES   H39432466   2.271   2.136   0.502  0.1283 -0.6806  1.7320
   77RES   H39532467   2.114   2.078   0.498  1.2023 -1.1824 -0.2212
   77RES   H39632468   2.125   2.317   0.439 -1.2418  0.7763  0.0777
   77RES   H39732469   2.189   2.349   0.594 -0.8425  0.5717  1.0763
   77RES   H39832470   1.898   2.250   0.546 -2.2348  0.9318  3.6249
   77RES   H39932471   1.941   2.415   0.562 -3.4197 -1.5387  0.6756
   77RES   H40032472   1.957   2.303   0.693 -2.0457  2.4147  0.2002
   77RES   C40132473   2.153   1.915   0.948  0.5165  0.3333 -0.1446
   77RES   C40232474   2.165   1.919   1.102  0.3065  0.8841  1.0249
   77RES   C40332475   2.029   1.920   1.177  0.2849  0.6442  0.5083
   77RES   C40432476   1.936   1.800   1.135 -0.3418  0.8138 -0.0445
   77RES   C40532477   1.805   1.804   1.210 -0.1171  0.0639 -0.4660
   77RES   C40632478   1.706   1.702   1.151  0.7053  0.5159 -0.4475
   77RES   C40732479   1.582   1.669   1.238 -0.5050 -0.6338 -0.1474
   77RES   H40832480   2.097   1.830   0.908 -0.8284  2.0739 -2.0321
   77RES   H40932481   2.086   1.998   0.930  1.6469  1.6499  1.4854
   77RES   H41032482   2.234   2.000   1.127  1.5967 -0.3674  1.6348
   77RES   H41132483   1.973   2.013   1.171  0.4437  0.7745  1.0126
   77RES   H41232484   2.055   1.918   1.282  1.7303 -0.8114  0.1453
   77RES   H41332485   1.990   1.706   1.142 -1.8241 -0.0653 -0.1751
   77RES   H41432486   1.902   1.800   1.031 -1.5874 -0.5949  0.3449
   77RES   H41532487   1.815   1.789   1.318 -0.9346  2.0546 -0.0959
   77RES   H41632488   1.772   1.907   1.207  3.3273  1.2329 -0.7621
   77RES   H41732489   1.653   1.730   1.060  1.2681  1.0909 -0.6016
   77RES   H41832490   1.755   1.606   1.135 -2.7934 -1.6909  1.3328
   77RES   H41932491   1.615   1.616   1.327  0.4929  2.5594  1.4470
   77RES   H42032492   1.512   1.595   1.199  0.1708 -1.4204  0.0992
   77RES   H42132493   1.526   1.756   1.274 -2.1102 -1.1191 -1.4135
   77RES   H42232494   2.224   1.834   1.137  0.9528  1.9454  2.5617
   78RES     C132495   0.065   5.798   4.817 -0.5155  0.1513 -0.4649
   78RES     C232496   0.197   5.721   4.843 -0.0316  0.2634 -0.5149
   78RES     C332497   0.268   5.667   4.717  0.8041 -0.5495  0.7168
   78RES     C432498   0.309   5.777   4.615  0.7465  0.0504  0.1715
   78RES     C532499   0.386   5.902   4.665 -0.1239 -0.0464 -0.2347
   78RES     C632500   0.452   5.958   4.544  0.3404 -0.2440  0.0638
   78RES     C732501   0.512   6.093   4.571 -0.0240  0.2124  0.5804
   78RES     H832502   0.028   5.822   4.916 -0.0681 -0.0797 -0.2426
   78RES     H932503   7.717   5.730   4.775  1.5300 -1.8377 -0.9752
   78RES    H1032504   0.262   5.796   4.889  0.8793 -2.0090  2.0299
   78RES    H1132505   0.350   5.605   4.754 -0.6866 -2.9561  0.1107
   78RES    H1232506   0.203   5.604   4.656  0.3487 -0.0012  0.6326
   78RES    H1332507   0.373   5.725   4.544 -0.6114  0.4294 -1.3364
   78RES    H1432508   0.220   5.810   4.563 -2.3938 -1.8879  4.0155
   78RES    H1532509   0.452   5.871   4.746 -0.8471  0.0314  0.3778
   78RES    H1632510   0.317   5.977   4.702  1.9223  1.2377  1.0484
   78RES    H1732511   0.375   5.973   4.469 -1.7013  1.0929  2.3560
   78RES    H1832512   0.521   5.883   4.504 -0.6887 -0.5035 -1.2425
   78RES    H1932513   0.547   6.141   4.479 -2.5542 -3.0912 -2.2612
   78RES    H2032514   0.592   6.088   4.644  1.3398  2.9848 -0.6564
   78RES    H2132515   0.437   6.165   4.605  1.6856  0.1410  4.8305
   78RES    H2232516   0.077   5.878   4.745  0.3460 -0.9516 -1.5827
   78RES    C2332517   0.184   5.621   4.958 -0.5101 -0.3540 -0.0197
   78RES    C2432518   0.091   5.496   4.942 -0.5117  0.3463  0.4892
   78RES    C2532519   7.683   5.517   5.019  0.4373 -0.0019 -0.5316
   78RES    C2632520   7.676   5.493   5.173  0.1816  0.0081  0.4981
   78RES    C2732521   7.539   5.534   5.226 -0.0283 -0.3518  0.1940
   78RES    C2832522   7.523   5.495   5.376  0.5928 -0.0886 -0.0691
   78RES    C2932523   7.393   5.552   5.432  0.2322  0.3651 -0.3031
   78RES    H3032524   0.279   5.584   4.997 -0.0220 -0.4205 -1.2195
   78RES    H3132525   0.144   5.677   5.042 -2.3241  1.6716 -2.1599
   78RES    H3232526   0.075   5.495   4.834  0.0263 -0.7167  0.4113
   78RES    H3332527   7.612   5.456   4.964  2.6341 -3.4829  0.3141
   78RES    H3432528   7.651   5.620   5.000 -1.9877 -0.5761  0.3371
   78RES    H3532529   0.035   5.537   5.223  0.2489 -1.3576  1.6066
   78RES    H3632530   7.704   5.389   5.190 -0.8326 -0.7903 -2.3974
   78RES    H3732531   7.454   5.491   5.173  0.0191  0.9041 -0.9290
   78RES    H3832532   7.528   5.642   5.209  1.3554 -0.0188  1.3537
   78RES    H3932533   7.602   5.545   5.432 -0.3745  1.0991  0.2658
   78RES    H4032534   7.529   5.388   5.395 -0.5539  0.3346  2.9298
   78RES    H4132535   7.382   5.539   5.539  1.0189 -0.3825 -0.3040
   78RES    H4232536   7.385   5.660   5.418  0.3498  0.4587  0.3493
   78RES    H4332537   7.315   5.500   5.376  0.0792 -0.2268  0.4526
   78RES    C4432538   0.156   5.363   4.976 -0.3638  0.6252 -0.3143
   78RES    C4532539   0.076   5.236   4.930 -0.3442  0.3232 -0.1832
   78RES    C4632540   0.091   5.217   4.782 -0.1156  0.0651 -0.7491
   78RES    C4732541   0.023   5.091   4.712  0.0215  1.5439 -0.1377
   78RES    C4832542   0.067   5.074   4.564  0.0686 -0.2469  0.1031
   78RES    C4932543   0.028   5.183   4.473 -0.8232 -0.1335 -0.0492
   78RES    C5032544   0.004   5.138   4.327 -0.7836  0.0784  0.1493
   78RES    H5132545   0.177   5.353   5.082 -1.7729  0.1907 -0.0617
   78RES    H5232546   0.253   5.370   4.928 -0.9658  2.3812 -1.3340
   78RES    H5332547   7.696   5.253   4.946 -0.5778  0.5280 -1.8041
   78RES    H5432548   0.198   5.204   4.767 -0.2147  1.4400 -2.7867
   78RES    H5532549   0.066   5.309   4.730  0.6716  0.6550 -0.0860
   78RES    H5632550   0.033   5.001   4.772  2.5743  0.9517 -1.3577
   78RES    H5732551   7.643   5.108   4.699 -0.1212  1.6031  1.0614
   78RES    H5832552   0.019   4.985   4.523 -2.0470  0.1352  1.7088
   78RES    H5932553   0.173   5.055   4.548  0.4391  1.0220  1.0136
   78RES    H6032554   0.104   5.261   4.478 -1.3049  0.6204 -3.5236
   78RES    H6132555   7.667   5.235   4.513 -0.2025  1.0165 -0.1624
   78RES    H6232556   7.719   5.231   4.272  1.6249  0.8675  0.8919
   78RES    H6332557   7.643   5.076   4.313 -2.4075  1.8204  2.3409
   78RES    H6432558   0.085   5.085   4.275  0.4658  1.1311  0.9808
   78RES    C6532559   0.097   5.108   5.015 -0.5462  0.7938  0.5667
   78RES    C6632560   0.219   5.012   4.987 -0.5644 -0.2656 -0.0731
   78RES    C6732561   0.193   4.874   5.049  0.0459  0.4420  0.1131
   78RES    C6832562   0.092   4.777   4.976  0.2215  0.1473 -0.2019
   78RES    C6932563   0.015   4.680   5.065 -0.4300 -0.1146 -0.2319
   78RES    C7032564   0.123   4.592   5.142  0.0172  0.3495  0.6172
   78RES    C7132565   0.060   4.463   5.201  0.1288  0.5675 -0.1831
   78RES    H7232566   0.091   5.129   5.122  0.2095 -0.7222  0.9154
   78RES    H7332567   0.008   5.049   4.995  1.0690 -1.0398 -1.5071
   78RES    H7432568   0.231   5.002   4.879  0.2480  1.6513 -0.1881
   78RES    H7532569   0.294   4.833   5.044  0.0369  0.6934 -2.4549
   78RES    H7632570   0.156   4.901   5.148  0.8030  1.0923  0.2274
   78RES    H7732571   0.014   4.828   4.920  1.9744  0.5795 -2.3674
   78RES    H7832572   0.146   4.726   4.895  1.5300  0.2279  0.5996
   78RES    H7932573   7.669   4.731   5.129 -0.9219 -0.8832 -0.1805
   78RES    H8032574   7.682   4.623   4.994 -2.9537  2.4244 -0.2180
   78RES    H8132575   0.157   4.648   5.229  2.6165  0.3394 -0.3513
   78RES    H8232576   0.211   4.574   5.081 -0.9569 -0.6050 -0.5422
   78RES    H8332577   0.134   4.401   5.252 -0.6360 -0.6565 -0.5345
   78RES    H8432578   7.704   4.493   5.265 -1.2083 -0.1379 -1.5342
   78RES    H8532579   0.027   4.399   5.119 -0.8748 -0.3468  0.9330
   78RES    C8632580   0.358   5.070   5.038 -0.3054  0.4075  0.8046
   78RES    C8732581   0.485   5.032   4.956  0.0828 -0.1787 -0.7335
   78RES    C8832582   0.497   5.127   4.834  0.5267  0.0241  1.1520
   78RES    C8932583   0.562   5.265   4.861  0.5179  0.9347 -0.4761
   78RES    C9032584   0.578   5.354   4.742 -1.3661  0.1167  0.8206
   78RES    C9132585   0.607   5.496   4.777 -0.0804 -0.1766  0.2257
   78RES    C9232586   0.627   5.582   4.653  0.0419  0.4295 -0.6711
   78RES    H9332587   0.351   5.179   5.037  1.2847  0.5261  0.8952
   78RES    H9432588   0.365   5.044   5.144  1.0151  3.5181  1.5428
   78RES    H9532589   0.462   4.931   4.924 -0.6316 -0.0950 -0.4940
   78RES    H9632590   0.554   5.071   4.760 -1.3587 -1.8459  1.0635
   78RES    H9732591   0.398   5.134   4.789  0.5601 -0.2703  1.0303
   78RES    H9832592   0.507   5.317   4.940  0.8096 -0.2163  0.5013
   78RES    H9932593   0.659   5.243   4.906 -0.9818 -0.1264  2.3945
   78RES   H10032594   0.493   5.345   4.675 -0.6452 -1.7666  0.1113
   78RES   H10132595   0.657   5.323   4.674 -0.7073  0.8087  1.2605
   78RES   H10232596   0.523   5.536   4.833 -0.5050  0.5978 -0.9481
   78RES   H10332597   0.692   5.514   4.842 -0.9157 -3.3597  2.3578
   78RES   H10432598   0.704   5.552   4.582  0.0052  0.2738 -0.6468
   78RES   H10532599   0.647   5.686   4.678  3.3367 -0.5217  0.9744
   78RES   H10632600   0.539   5.579   4.590  1.7433 -0.0571 -3.0691
   78RES   C10732601   0.608   5.005   5.049 -0.0355  0.4643  0.1191
   78RES   C10832602   0.736   4.941   4.984 -0.1309  0.2827 -0.7930
   78RES   C10932603   0.845   4.938   5.091 -0.7936  0.1711  0.0830
   78RES   C11032604   0.892   5.071   5.163  0.3812  0.1591  0.4405
   78RES   C11132605   0.960   5.170   5.069 -0.1854  0.0582  0.2392
   78RES   C11232606   0.993   5.299   5.139  0.2239  0.6461 -0.1218
   78RES   C11332607   1.081   5.388   5.060  0.1044  0.2312  0.7748
   78RES   H11432608   0.571   4.927   5.116 -3.3601  2.2915  0.5012
   78RES   H11532609   0.638   5.094   5.103 -0.2633  1.1527 -0.8779
   78RES   H11632610   0.753   5.005   4.898 -1.1102 -1.7479 -2.5412
   78RES   H11732611   0.929   4.900   5.033 -0.2950  2.1980 -0.5641
   78RES   H11832612   0.816   4.866   5.168  1.0498  0.9058  1.5318
   78RES   H11932613   0.809   5.125   5.209  1.8305  0.8074  2.3332
   78RES   H12032614   0.953   5.037   5.246 -1.9064 -0.4408  1.9363
   78RES   H12132615   0.891   5.204   4.992 -1.7061 -2.6638  0.3501
   78RES   H12232616   1.044   5.131   5.012  1.9569 -0.8293  3.8489
   78RES   H12332617   0.904   5.352   5.174  0.9653  0.0991  2.7173
   78RES   H12432618   1.057   5.289   5.227 -1.1813  2.8312  1.2203
   78RES   H12532619   1.172   5.329   5.055  0.3283  0.6353 -0.0530
   78RES   H12632620   1.041   5.398   4.959  0.7317  0.7670  0.5777
   78RES   H12732621   1.099   5.489   5.098 -1.4871  0.3785  1.1604
   78RES   C12832622   0.715   4.798   4.922  0.4886  0.2381 -0.6273
   78RES   C12932623   0.834   4.737   4.838 -0.0934 -0.7842 -0.1278
   78RES   C13032624   0.878   4.841   4.730  0.5137 -0.7347  0.3972
   78RES   C13132625   0.777   4.887   4.632  0.0345 -0.0721 -0.5211
   78RES   C13232626   0.825   4.991   4.533 -0.4243 -0.0760  0.1133
   78RES   C13332627   0.946   4.954   4.444  0.2066  1.3555  0.5638
   78RES   C13432628   0.902   4.852   4.342 -0.2465  0.5815  0.1799
   78RES   H13532629   0.691   4.726   4.999 -0.8531  1.2573 -0.0722
   78RES   H13632630   0.625   4.798   4.861 -0.2866  1.4766  0.5102
   78RES   H13732631   0.914   4.727   4.911 -0.0078  0.5472 -0.0283
   78RES   H13832632   0.964   4.806   4.673  1.3096  1.5465  0.1196
   78RES   H13932633   0.918   4.928   4.782 -0.2368 -1.1747  1.7211
   78RES   H14032634   0.690   4.929   4.682  0.8657  0.4707  0.4947
   78RES   H14132635   0.751   4.806   4.563  1.0215 -0.6454 -0.2245
   78RES   H14232636   0.843   5.074   4.601 -0.7166 -0.2241  0.3749
   78RES   H14332637   0.745   5.034   4.474 -1.4595 -1.0038  0.8195
   78RES   H14432638   1.031   4.916   4.502 -1.7235  0.0584  2.6418
   78RES   H14532639   0.983   5.046   4.400 -3.9322  2.6216 -0.3854
   78RES   H14632640   0.983   4.823   4.275 -1.4741 -1.1049 -0.6339
   78RES   H14732641   0.817   4.893   4.287 -0.3099 -1.1720 -1.0824
   78RES   H14832642   0.872   4.757   4.387  0.9701  0.3248  0.4737
   78RES   C14932643   0.793   4.600   4.785  0.1630 -0.0533  0.3648
   78RES   C15032644   0.911   4.495   4.763  0.1023 -0.2247 -0.1320
   78RES   C15132645   0.871   4.399   4.652  0.1376 -0.2209  0.3590
   78RES   C15232646   0.861   4.471   4.512  0.1172 -0.7311  0.3317
   78RES   C15332647   0.747   4.416   4.428  0.1038  0.0233 -0.3055
   78RES   C15432648   0.718   4.491   4.297  0.1255  0.4875 -0.0270
   78RES   C15532649   0.845   4.503   4.212  0.3595 -0.4756 -0.1376
   78RES   H15632650   0.731   4.564   4.867 -0.8901 -2.3205 -1.3576
   78RES   H15732651   0.719   4.614   4.707 -1.4817  1.1095  2.0843
   78RES   H15832652   0.986   4.568   4.734  0.9514 -1.0626 -0.0834
   78RES   H15932653   0.940   4.314   4.642 -1.1060 -1.3357  1.0833
   78RES   H16032654   0.779   4.353   4.689 -1.8731  2.2940 -1.3692
   78RES   H16132655   0.952   4.463   4.453 -0.1407 -0.9750 -0.0391
   78RES   H16232656   0.835   4.576   4.524 -0.1534 -0.9136  1.4758
   78RES   H16332657   0.658   4.412   4.491  0.6803  1.4615  0.6301
   78RES   H16432658   0.766   4.310   4.409  1.0676 -0.1357  1.3664
   78RES   H16532659   0.658   4.577   4.329 -0.2696 -0.2344  1.2002
   78RES   H16632660   0.638   4.433   4.252  1.2492  0.8445 -2.5486
   78RES   H16732661   0.827   4.514   4.105 -0.3953 -1.9130 -0.1663
   78RES   H16832662   0.893   4.405   4.213 -0.3165 -0.8167 -0.7895
   78RES   H16932663   0.920   4.581   4.225 -0.3072  0.2598 -0.6766
   78RES   C17032664   0.940   4.423   4.903 -0.3835 -0.0409  0.1946
   78RES   C17132665   1.072   4.347   4.914  0.3293  0.3123  0.5625
   78RES   C17232666   1.192   4.438   4.903  0.5113  0.2963  0.0302
   78RES   C17332667   1.180   4.567   4.979  0.0028  0.3079 -0.0094
   78RES   C17432668   1.318   4.629   5.011  0.4565 -0.6891 -0.0988
   78RES   C17532669   1.315   4.763   5.084  0.4118 -0.4308  0.4287
   78RES   C17632670   1.277   4.884   4.997 -0.5615  0.4793  0.0540
   78RES   H17732671   0.868   4.342   4.906  0.9070 -1.1730  1.2144
   78RES   H17832672   0.931   4.497   4.983  1.5214  1.7363 -1.1848
   78RES   H17932673   1.090   4.273   4.837 -1.2544  0.7372 -0.2372
   78RES   H18032674   1.221   4.446   4.798  0.8160 -0.4639  0.0566
   78RES   H18132675   1.274   4.385   4.951  1.0059 -0.6196 -1.7516
   78RES   H18232676   1.134   4.560   5.078 -0.0563 -2.2804 -0.1963
   78RES   H18332677   1.116   4.644   4.936 -3.0073 -1.1625  1.6488
   78RES   H18432678   1.375   4.649   4.920  0.4379  0.2669  0.1024
   78RES   H18532679   1.375   4.563   5.077  2.1132 -0.2601 -1.0633
   78RES   H18632680   1.408   4.789   5.135 -0.5957  1.6691  1.2737
   78RES   H18732681   1.251   4.756   5.172 -0.0090 -1.8221  0.0161
   78RES   H18832682   1.284   4.978   5.051  3.0438  0.1856  0.2312
   78RES   H18932683   1.177   4.876   4.955  1.3488 -1.2722 -4.5817
   78RES   H19032684   1.346   4.892   4.912 -2.3198  2.7673 -1.2257
   78RES   C19132685   1.086   4.273   5.053 -0.6271  1.0477  0.2249
   78RES   C19232686   0.980   4.174   5.095  0.0905  0.7096  1.0674
   78RES   C19332687   0.946   4.066   4.988  0.1520  0.1398  0.3538
   78RES   C19432688   0.837   3.960   5.002 -0.5403 -0.0232  0.3160
   78RES   C19532689   0.824   3.856   4.891 -0.5435 -0.1459  0.5528
   78RES   C19632690   0.758   3.726   4.932 -1.6589  0.0329  0.3669
   78RES   C19732691   0.609   3.724   4.954  0.2247  0.1213  0.0806
   78RES   H19832692   1.079   4.348   5.132 -0.3969 -0.4940  1.7344
   78RES   H19932693   1.184   4.224   5.061 -0.8731  0.2270 -1.4857
   78RES   H20032694   0.899   4.238   5.129  2.7785  3.3847  2.7034
   78RES   H20132695   1.043   4.024   4.960  1.6643  2.8594  1.2110
   78RES   H20232696   0.913   4.127   4.904  2.0035  0.4388 -0.1869
   78RES   H20332697   0.740   4.009   5.014 -1.8332 -2.8556  2.0482
   78RES   H20432698   0.838   3.905   5.096 -2.7546  0.5799  0.7284
   78RES   H20532699   0.770   3.895   4.804 -0.8405  2.6297  1.9403
   78RES   H20632700   0.925   3.829   4.861 -0.3224  1.4777 -0.2421
   78RES   H20732701   0.806   3.681   5.019 -1.3692  1.3260  0.8811
   78RES   H20832702   0.783   3.658   4.851 -3.0937 -0.1807  0.0741
   78RES   H20932703   0.569   3.787   4.875  2.9894  1.1400 -0.5634
   78RES   H21032704   0.577   3.774   5.046  1.3169  1.1902 -0.1104
   78RES   H21132705   0.568   3.623   4.946  2.3811 -0.8360  0.8133
   78RES   C21232706   1.033   4.108   5.228 -0.1065 -1.4511  0.3167
   78RES   C21332707   1.031   4.188   5.361 -0.1352 -0.2184 -0.9191
   78RES   C21432708   0.880   4.212   5.405  0.4047  0.5684  0.6995
   78RES   C21532709   0.842   4.316   5.512 -0.3536  0.4117 -0.1187
   78RES   C21632710   0.707   4.276   5.574  0.7118  0.4498 -0.1710
   78RES   C21732711   0.673   4.375   5.687 -0.1246  0.5648  0.9652
   78RES   C21832712   0.540   4.356   5.760 -0.3635  0.5643  0.4351
   78RES   H21932713   1.136   4.077   5.209 -0.5057 -0.6292 -3.5561
   78RES   H22032714   0.980   4.016   5.254  0.9355 -2.7751 -2.0581
   78RES   H22132715   1.090   4.278   5.341 -0.3017 -0.1474 -1.0939
   78RES   H22232716   0.816   4.230   5.319 -0.8528 -0.0429  1.4988
   78RES   H22332717   0.847   4.115   5.442  0.1450 -0.3560 -1.8715
   78RES   H22432718   0.840   4.420   5.480 -1.9194  0.2215 -0.6810
   78RES   H22532719   0.922   4.306   5.586 -0.3416  0.4490 -0.1261
   78RES   H22632720   0.637   4.288   5.491  0.7803  2.7993  0.0769
   78RES   H22732721   0.717   4.178   5.621 -0.3022  0.0374 -0.8005
   78RES   H22832722   0.750   4.380   5.765 -0.9392  1.2552  1.7361
   78RES   H22932723   0.669   4.476   5.646  1.4517  0.9526  1.6917
   78RES   H23032724   0.522   4.444   5.822  2.1911  0.4867  1.3519
   78RES   H23132725   0.536   4.265   5.820  0.2835  0.2345 -0.0180
   78RES   H23232726   0.468   4.342   5.680  0.6885 -0.7596 -0.3036
   78RES   C23332727   1.107   4.108   5.472  0.3949  0.6396  0.9423
   78RES   C23432728   1.258   4.088   5.455 -0.0711 -0.1792 -0.0240
   78RES   C23532729   1.330   4.210   5.395  0.0126  0.7967  0.3116
   78RES   C23632730   1.317   4.331   5.478 -0.2568  0.2718  0.6491
   78RES   C23732731   1.385   4.451   5.414 -0.6731  0.9178  0.0592
   78RES   C23832732   1.398   4.573   5.503  0.3892 -0.1604  0.0768
   78RES   C23932733   1.481   4.698   5.449  0.5918  0.0233 -0.5124
   78RES   H24032734   1.057   4.013   5.491  2.7457 -0.4162  2.0340
   78RES   H24132735   1.089   4.163   5.564 -0.4447  1.2719  0.4050
   78RES   H24232736   1.276   4.009   5.383 -0.7789  1.0684 -1.5973
   78RES   H24332737   1.326   4.230   5.288 -1.3678  1.2902  0.4500
   78RES   H24432738   1.435   4.183   5.396 -0.4066 -0.9607 -0.7094
   78RES   H24532739   1.361   4.317   5.577 -2.1356 -1.3292  1.3004
   78RES   H24632740   1.214   4.364   5.490  0.8267  3.7952  0.6924
   78RES   H24732741   1.338   4.462   5.317  0.9827 -1.5365 -1.0860
   78RES   H24832742   1.484   4.409   5.393 -1.4436 -1.2311  0.5636
   78RES   H24932743   1.299   4.612   5.528  1.0686  2.0822 -0.5926
   78RES   H25032744   1.445   4.545   5.597 -0.0749  2.6778  1.2260
   78RES   H25132745   1.467   4.774   5.526  1.7379 -0.5138  0.2377
   78RES   H25232746   1.587   4.678   5.440 -0.0370 -3.0934 -1.6300
   78RES   H25332747   1.439   4.736   5.356  0.2289  1.9365  0.4087
   78RES   C25432748   1.322   4.039   5.585  0.1678  0.2319 -0.0896
   78RES   C25532749   1.445   3.936   5.568 -0.3787 -0.1319 -0.0711
   78RES   C25632750   1.422   3.789   5.519 -0.3276  0.0351 -0.3682
   78RES   C25732751   1.356   3.695   5.620  0.3691  0.3183  0.4046
   78RES   C25832752   1.369   3.549   5.564  1.1692 -0.4502  0.3446
   78RES   C25932753   1.296   3.456   5.657  0.6739  0.0207 -0.2357
   78RES   C26032754   1.279   3.314   5.603 -0.2358  0.1501 -0.1659
   78RES   H26132755   1.244   4.005   5.653  2.0507  2.7612  3.4516
   78RES   H26232756   1.349   4.124   5.647 -0.3067 -0.1827  0.7002
   78RES   H26332757   1.511   3.974   5.490 -2.8972  1.3003 -1.5720
   78RES   H26432758   1.519   3.753   5.485 -0.4598 -1.0470  0.3918
   78RES   H26532759   1.360   3.786   5.430 -1.8568 -0.4182  0.6850
   78RES   H26632760   1.389   3.698   5.724 -0.8607 -0.4497  0.8349
   78RES   H26732761   1.254   3.733   5.620  0.3845  0.3715 -1.6847
   78RES   H26832762   1.476   3.529   5.557  1.0731 -1.1431  0.7654
   78RES   H26932763   1.328   3.532   5.464  0.8696 -0.5626  0.4879
   78RES   H27032764   1.362   3.443   5.742  1.7384 -1.1622 -1.2340
   78RES   H27132765   1.199   3.500   5.680  0.7744 -0.4502  1.1032
   78RES   H27232766   1.226   3.250   5.674  2.2014 -1.8422 -0.0912
   78RES   H27332767   1.222   3.308   5.510 -1.7590  0.1656  0.7451
   78RES   H27432768   1.378   3.270   5.595 -0.3664 -0.2094  0.1543
   78RES   C27532769   1.531   3.936   5.699  0.3998  0.6782 -0.0074
   78RES   C27632770   1.638   4.050   5.700  0.2369  0.0463 -0.2445
   78RES   C27732771   1.760   4.001   5.606  0.8536 -0.3850  0.1010
   78RES   C27832772   1.841   4.112   5.549 -0.6070 -0.1635  0.2891
   78RES   C27932773   1.947   4.072   5.442 -0.0618 -0.1556  0.8319
   78RES   C28032774   2.032   4.197   5.401  0.4276 -0.6405 -0.3263
   78RES   C28132775   2.122   4.168   5.284  0.1359 -0.5677 -0.5898
   78RES   H28232776   1.591   3.845   5.704 -1.4486 -0.4186  4.1187
   78RES   H28332777   1.479   3.923   5.794  0.4171 -1.1432 -0.2270
   78RES   H28432778   1.593   4.139   5.656 -1.8975 -1.0945 -0.4365
   78RES   H28532779   1.823   3.927   5.655  0.2720 -1.4115 -0.6761
   78RES   H28632780   1.716   3.941   5.526 -0.3367  0.0536  0.4033
   78RES   H28732781   1.884   4.177   5.625 -1.3928  0.2205  0.4112
   78RES   H28832782   1.769   4.177   5.498  0.2710  0.3855 -0.2545
   78RES   H28932783   1.902   4.037   5.349  1.7430 -0.9834  0.2431
   78RES   H29032784   2.010   3.991   5.478 -0.0308 -0.8238 -0.7081
   78RES   H29132785   1.971   4.285   5.381 -1.6344 -2.2342 -1.2232
   78RES   H29232786   2.100   4.237   5.477  0.9709  0.9624 -1.6104
   78RES   H29332787   2.229   4.167   5.305  0.1611 -0.8734 -0.7264
   78RES   H29432788   2.099   4.252   5.218 -2.6578 -0.5409  0.3665
   78RES   H29532789   2.108   4.073   5.231  1.9050 -0.1243 -1.9015
   78RES   C29632790   1.674   4.096   5.850 -0.4379 -0.4409  0.0572
   78RES   C29732791   1.552   4.172   5.917 -0.2194  0.8654 -0.3226
   78RES   C29832792   1.565   4.318   5.872 -0.7588 -0.1032 -0.3263
   78RES   C29932793   1.668   4.408   5.947  0.1715  0.3009  0.3050
   78RES   C30032794   1.665   4.553   5.896 -0.3114 -0.2597  0.3774
   78RES   C30132795   1.766   4.659   5.942 -0.1323 -0.4397 -0.1330
   78RES   C30232796   1.728   4.801   5.889 -0.2558 -0.3435 -0.1696
   78RES   H30332797   1.692   4.001   5.899 -0.4794 -0.3514  0.2441
   78RES   H30432798   1.764   4.156   5.860  0.2472 -1.3989 -0.3168
   78RES   H30532799   1.461   4.125   5.880  0.6349 -1.1196  0.0341
   78RES   H30632800   1.597   4.331   5.769  1.7497 -0.3322  0.3901
   78RES   H30732801   1.471   4.371   5.888 -2.0947 -1.7232 -2.5967
   78RES   H30832802   1.766   4.363   5.932 -1.0363 -1.8035 -1.5080
   78RES   H30932803   1.661   4.403   6.055  2.1878  0.7322  0.4660
   78RES   H31032804   1.566   4.595   5.914  0.2495  0.8281  0.9268
   78RES   H31132805   1.676   4.555   5.787  0.3900 -0.4011  0.4474
   78RES   H31232806   1.776   4.664   6.050  0.3812 -0.9857 -0.1516
   78RES   H31332807   1.864   4.643   5.897  0.3979  1.1759  0.4025
   78RES   H31432808   1.629   4.843   5.907  0.4641  0.8043  1.2402
   78RES   H31532809   1.797   4.858   5.951 -0.9673  1.6062 -1.0949
   78RES   H31632810   1.759   4.815   5.785 -0.3460  0.3843 -0.1064
   78RES   C31732811   1.537   4.149   6.070  0.0294 -0.2272 -0.2652
   78RES   C31832812   1.410   4.211   6.144 -0.5197  0.6089 -0.4973
   78RES   C31932813   1.278   4.132   6.101  0.1560 -0.0677  0.6713
   78RES   C32032814   1.154   4.212   6.062  0.4793  0.6458  0.1024
   78RES   C32132815   1.068   4.158   5.950 -0.1697  0.2687 -0.5943
   78RES   C32232816   0.957   4.257   5.905 -0.5942 -0.1799 -0.7386
   78RES   C32332817   0.874   4.324   6.017 -0.0524  0.4978 -0.3323
   78RES   H32432818   1.625   4.197   6.112  0.8505 -2.3673  0.5378
   78RES   H32532819   1.558   4.045   6.096  0.9277 -0.5258 -2.1106
   78RES   H32632820   1.402   4.315   6.113 -1.1149  0.5703 -0.4854
   78RES   H32732821   1.246   4.060   6.177  1.0770  0.1660  1.2829
   78RES   H32832822   1.303   4.062   6.021 -0.0719 -0.2191  0.7320
   78RES   H32932823   1.180   4.314   6.035 -1.3764  1.8442  2.6346
   78RES   H33032824   1.096   4.227   6.153  1.1615  1.5200  0.4042
   78RES   H33132825   1.016   4.066   5.976 -1.7926  0.7509 -2.0459
   78RES   H33232826   1.124   4.132   5.860  0.9970  0.2567  0.1300
   78RES   H33332827   0.892   4.194   5.844 -1.8066  0.4794 -0.1328
   78RES   H33432828   1.004   4.333   5.842 -3.7358  1.7204 -0.8708
   78RES   H33532829   0.809   4.405   5.984 -1.6746 -1.0603 -1.0211
   78RES   H33632830   0.940   4.374   6.088 -0.2327  1.6053 -0.9431
   78RES   H33732831   0.816   4.245   6.065  1.2713  0.4322  1.2106
   78RES   C33832832   1.424   4.203   6.298 -0.6668 -0.2539 -0.2560
   78RES   C33932833   1.301   4.242   6.382  0.8829  0.3893  0.0328
   78RES   C34032834   1.260   4.390   6.343 -0.1000 -0.3507  0.0199
   78RES   C34132835   1.128   4.453   6.389 -0.3611  0.9846  0.4925
   78RES   C34232836   1.132   4.606   6.355 -0.3850  0.4399 -0.1105
   78RES   C34332837   1.071   4.634   6.216  0.1891  0.4385 -0.1417
   78RES   C34432838   1.080   4.775   6.184  0.7678 -1.0063  0.4407
   78RES   H34532839   1.515   4.260   6.316 -0.0817 -0.4406 -2.5353
   78RES   H34632840   1.461   4.102   6.316 -0.4192 -0.5286 -2.2186
   78RES   H34732841   1.217   4.181   6.351 -0.0709  0.7530  1.7922
   78RES   H34832842   1.343   4.458   6.362 -1.7046  1.1899  1.7269
   78RES   H34932843   1.247   4.398   6.235  0.5911  1.1661  0.0326
   78RES   H35032844   1.133   4.438   6.497  1.6608  1.0174  0.4167
   78RES   H35132845   1.038   4.406   6.350 -1.0361 -0.1956  3.3467
   78RES   H35232846   1.078   4.653   6.436 -0.1460  2.1423 -0.9132
   78RES   H35332847   1.236   4.639   6.359 -0.4099  0.4164  0.7848
   78RES   H35432848   1.125   4.578   6.141 -0.4637 -0.4522  0.0497
   78RES   H35532849   0.967   4.602   6.229 -0.0022  1.3158  0.6059
   78RES   H35632850   0.997   4.793   6.117 -0.3216 -1.9572  1.5178
   78RES   H35732851   1.175   4.796   6.135  0.3005 -0.0183 -0.0439
   78RES   H35832852   1.062   4.839   6.270  0.0621 -2.1892  1.1839
   78RES   C35932853   1.324   4.238   6.532  0.5477 -0.6614 -0.2363
   78RES   C36032854   1.372   4.110   6.593 -0.0816 -0.2075 -0.6869
   78RES   C36132855   1.427   4.121   6.741 -0.2527 -0.0946  0.1502
   78RES   C36232856   1.557   4.209   6.757  0.3653  0.1332  0.2638
   78RES   C36332857   1.602   4.208   6.905  0.1608 -0.8456  0.2092
   78RES   C36432858   1.750   4.254   6.920 -0.3854  0.0471 -0.1552
   78RES   C36532859   1.758   4.411   6.901  0.5120 -0.0743 -0.3334
   78RES   H36632860   1.235   4.279   6.580 -0.2216 -2.1276 -0.3949
   78RES   H36732861   1.406   4.305   6.559  0.3526  0.1848 -1.6795
   78RES   H36832862   1.456   4.070   6.537  0.1590 -1.4162  0.5021
   78RES   H36932863   1.352   4.172   6.801 -0.5798 -0.4254  0.0202
   78RES   H37032864   1.434   4.020   6.781 -1.8093 -0.2399  0.0974
   78RES   H37132865   1.634   4.166   6.692 -0.6897 -0.8885 -0.3237
   78RES   H37232866   1.545   4.312   6.725 -2.6642 -0.6120 -1.0705
   78RES   H37332867   1.552   4.281   6.969  1.7223  0.0151  0.4773
   78RES   H37432868   1.589   4.105   6.939 -0.3664 -1.2025 -1.0187
   78RES   H37532869   1.799   4.232   7.015  2.4989  0.1359 -1.5554
   78RES   H37632870   1.812   4.203   6.846 -2.2588  0.1021 -1.8143
   78RES   H37732871   1.740   4.443   6.799 -2.1331 -1.1357 -0.2257
   78RES   H37832872   1.681   4.457   6.963  1.0799 -1.7196  1.6397
   78RES   H37932873   1.855   4.455   6.925  1.4846 -2.8087  0.9831
   78RES   C38032874   1.251   4.013   6.588  0.2323 -0.6383  0.2472
   78RES   C38132875   1.287   3.862   6.613  0.5688 -0.3254 -0.2138
   78RES   C38232876   1.162   3.770   6.597  0.2368  0.4577 -0.0457
   78RES   C38332877   1.053   3.802   6.699 -0.6524 -0.8330  0.2536
   78RES   C38432878   0.945   3.692   6.713  0.1577 -0.7342  0.1015
   78RES   C38532879   0.815   3.729   6.789  0.0462 -0.0477  0.1295
   78RES   C38632880   0.697   3.638   6.769 -0.1581  0.1898 -0.0385
   78RES   H38732881   1.180   4.051   6.662 -0.0437 -1.2003  0.2764
   78RES   H38832882   1.205   4.016   6.490  0.8967 -1.7173 -0.1110
   78RES   H38932883   1.316   3.857   6.718  0.5243 -0.3596 -0.2030
   78RES   H39032884   1.191   3.667   6.613 -0.4886  0.4071  1.0319
   78RES   H39132885   1.122   3.790   6.497 -0.1305 -0.9584 -0.1868
   78RES   H39232886   1.091   3.822   6.799  0.0209 -1.4527  0.1298
   78RES   H39332887   1.007   3.894   6.665  0.1359 -0.4274  0.2669
   78RES   H39432888   0.921   3.674   6.609  0.5298  0.9211 -0.2932
   78RES   H39532889   0.996   3.601   6.745 -3.3002 -2.3524  1.2503
   78RES   H39632890   0.795   3.832   6.761 -0.2111 -0.2991 -0.6384
   78RES   H39732891   0.834   3.742   6.895 -0.8932  0.9002  0.1889
   78RES   H39832892   0.676   3.663   6.665  1.5429 -1.1923 -0.7467
   78RES   H39932893   0.613   3.669   6.830 -0.1184 -0.5394  0.3822
   78RES   H40032894   0.713   3.533   6.792 -1.7348 -0.3550 -1.3552
   78RES   C40132895   1.399   3.795   6.525  0.1065 -0.2124  0.1992
   78RES   C40232896   1.376   3.782   6.377 -0.4724  0.1067  0.5306
   78RES   C40332897   1.494   3.741   6.296  0.5947  0.5194 -0.7643
   78RES   C40432898   1.468   3.659   6.169 -0.1208  0.0706  0.1841
   78RES   C40532899   1.575   3.622   6.073  0.0255 -0.8360 -0.5879
   78RES   C40632900   1.529   3.541   5.954  0.0122  0.2996 -0.5735
   78RES   C40732901   1.631   3.530   5.837 -0.0083 -0.0875  0.6113
   78RES   H40832902   1.422   3.695   6.561 -0.9229 -0.1891  0.9389
   78RES   H40932903   1.500   3.836   6.530  0.1463 -0.2537 -0.2084
   78RES   H41032904   1.356   3.876   6.326 -0.6872 -0.5395 -0.6027
   78RES   H41132905   1.570   3.689   6.355 -1.4715 -1.1902  0.4405
   78RES   H41232906   1.545   3.831   6.260  0.7518 -0.3343 -2.7429
   78RES   H41332907   1.391   3.708   6.110  1.0535  0.2645 -1.2295
   78RES   H41432908   1.429   3.558   6.186 -1.0242  0.4532  0.3648
   78RES   H41532909   1.619   3.715   6.035 -0.1410 -0.4406  0.1722
   78RES   H41632910   1.659   3.573   6.122 -0.3423 -0.4796  0.4070
   78RES   H41732911   1.492   3.443   5.980  1.2143  0.0005  0.0654
   78RES   H41832912   1.452   3.597   5.900 -1.7952 -1.2100  0.4246
   78RES   H41932913   1.586   3.494   5.744  1.7496 -3.3065  0.9355
   78RES   H42032914   1.711   3.460   5.860 -0.8877 -0.7573  1.6959
   78RES   H42132915   1.670   3.627   5.807 -0.9858 -0.9585 -3.8975
   78RES   H42232916   1.293   3.713   6.363  1.8613 -3.0563  1.8154
   79RES     C132917   4.326   2.629   3.199 -0.1934  0.6569  0.5552
   79RES     C232918   4.394   2.581   3.328  0.7611 -0.0935  0.6245
   79RES     C332919   4.410   2.430   3.322 -0.5566  0.2364  0.5678
   79RES     C432920   4.521   2.388   3.221  0.4573 -0.8350 -0.4172
   79RES     C532921   4.552   2.238   3.227 -0.3064 -0.3509  0.2245
   79RES     C632922   4.642   2.191   3.342  0.3418  0.7223  0.2394
   79RES     C732923   4.674   2.039   3.347 -0.2563  0.9108 -0.0425
   79RES     H832924   4.383   2.607   3.109 -0.5432 -2.5124  1.0320
   79RES     H932925   4.307   2.736   3.199 -2.2774  0.3093  1.4980
   79RES    H1032926   4.496   2.617   3.342  0.4500  0.8887  0.4424
   79RES    H1132927   4.433   2.397   3.424  2.7512 -0.0092 -0.2244
   79RES    H1232928   4.315   2.382   3.295  0.5610 -1.3876 -0.5669
   79RES    H1332929   4.502   2.395   3.114  2.1957 -1.7855 -0.8192
   79RES    H1432930   4.609   2.448   3.245  0.1478 -0.6219  0.1818
   79RES    H1532931   4.590   2.216   3.127 -0.5815 -0.3833  0.1261
   79RES    H1632932   4.461   2.179   3.225 -1.2921  1.1274  0.8510
   79RES    H1732933   4.599   2.205   3.442 -1.9754 -1.9164 -0.3191
   79RES    H1832934   4.738   2.243   3.335  0.1356  1.0377 -0.2544
   79RES    H1932935   4.752   2.016   3.419 -0.4907  0.8428  0.1900
   79RES    H2032936   4.707   1.999   3.251  0.8767  0.2787  0.6023
   79RES    H2132937   4.579   1.992   3.372  0.5102 -1.8660 -2.1131
   79RES    H2232938   4.229   2.582   3.183  0.5908 -0.7229 -0.2233
   79RES    C2332939   4.310   2.612   3.454 -0.0024 -0.9090  0.5268
   79RES    C2432940   4.371   2.596   3.601  0.6189  0.0469 -0.1688
   79RES    C2532941   4.516   2.643   3.611 -0.0906  0.2499  0.1580
   79RES    C2632942   4.574   2.692   3.743  0.0452  0.0799 -1.3074
   79RES    C2732943   4.727   2.708   3.725 -0.4063  0.1946 -0.9186
   79RES    C2832944   4.795   2.732   3.858  0.5646 -0.1914 -0.1021
   79RES    C2932945   4.945   2.757   3.828 -0.6010  0.6366  0.8711
   79RES    H3032946   4.286   2.718   3.450  1.4394 -0.6346 -3.2273
   79RES    H3132947   4.213   2.563   3.444 -0.2228 -0.1718 -1.2052
   79RES    H3232948   4.307   2.664   3.657 -2.2086 -0.9050 -2.1295
   79RES    H3332949   4.528   2.728   3.542 -1.7333  1.4742  1.3325
   79RES    H3432950   4.584   2.574   3.562  0.0976  0.0085  0.7689
   79RES    H3532951   4.553   2.640   3.836  1.0912  1.2741 -0.3708
   79RES    H3632952   4.541   2.790   3.777 -1.3918 -1.1535  0.9894
   79RES    H3732953   4.740   2.792   3.657  0.7999 -0.5438 -1.6313
   79RES    H3832954   4.783   2.626   3.680  0.8025  0.7044 -0.3519
   79RES    H3932955   4.785   2.637   3.911  0.5439  0.1680  0.5481
   79RES    H4032956   4.748   2.801   3.928  0.3836 -0.9725  0.5542
   79RES    H4132957   4.989   2.700   3.746  0.2200  0.1220  1.6762
   79RES    H4232958   4.963   2.860   3.797 -3.2876  0.9082  0.0874
   79RES    H4332959   5.002   2.729   3.916 -2.5876 -0.2680  1.9201
   79RES    C4432960   4.340   2.457   3.661  0.1051 -0.2424  0.0086
   79RES    C4532961   4.268   2.454   3.793 -0.0056 -0.0596 -0.6180
   79RES    C4632962   4.116   2.456   3.765  0.8784 -0.3270 -0.5266
   79RES    C4732963   4.064   2.595   3.749 -0.1043  0.3214  0.5467
   79RES    C4832964   3.907   2.607   3.771  0.3974  0.0672  0.2594
   79RES    C4932965   3.858   2.754   3.799 -0.0770 -0.6431  0.1716
   79RES    C5032966   3.927   2.859   3.706  0.1442  0.4692 -0.2121
   79RES    H5132967   4.441   2.425   3.683  0.5365  2.0764  1.5520
   79RES    H5232968   4.292   2.388   3.591  2.5761 -1.0597 -0.9233
   79RES    H5332969   4.297   2.543   3.849 -1.6162 -0.0783  0.2846
   79RES    H5432970   4.067   2.424   3.857  1.3098  3.2476  1.0420
   79RES    H5532971   4.087   2.378   3.695  2.4928 -1.1338 -0.3159
   79RES    H5632972   4.116   2.660   3.819 -1.2461  1.9888 -0.1380
   79RES    H5732973   4.091   2.625   3.648 -0.9698  1.8221  0.7559
   79RES    H5832974   3.866   2.545   3.851  0.4439  0.9946  1.0119
   79RES    H5932975   3.854   2.582   3.679  0.7268 -2.8324  0.8144
   79RES    H6032976   3.876   2.787   3.901  0.3146  0.1845 -0.1579
   79RES    H6132977   3.751   2.763   3.782 -0.0772  0.7820  0.8311
   79RES    H6232978   3.876   2.955   3.715  1.1295  1.0776 -1.0333
   79RES    H6332979   3.918   2.824   3.603 -0.4021 -1.7807  0.5565
   79RES    H6432980   4.034   2.865   3.726 -0.1709 -0.0158  1.7134
   79RES    C6532981   4.305   2.328   3.882 -0.1360 -0.0560 -0.0711
   79RES    C6632982   4.451   2.322   3.940  0.0530  0.5257  1.7434
   79RES    C6732983   4.518   2.196   3.883  0.0788  1.6597 -0.0822
   79RES    C6832984   4.674   2.206   3.878  0.4660  0.1616 -0.3338
   79RES    C6932985   4.721   2.284   3.759 -0.2574  0.2166 -1.1249
   79RES    C7032986   4.878   2.302   3.749  0.8317 -0.7929 -0.1704
   79RES    C7132987   4.904   2.363   3.612  0.1116  0.1568  0.0757
   79RES    H7232988   4.234   2.332   3.964 -1.4174 -0.6030 -1.1444
   79RES    H7332989   4.277   2.237   3.830  1.6337 -1.1079  0.7723
   79RES    H7432990   4.506   2.413   3.919  1.4440 -0.2186  2.0600
   79RES    H7532991   4.495   2.104   3.936 -1.4903  2.4879  0.7349
   79RES    H7632992   4.495   2.169   3.780  1.7179 -0.6132  0.1004
   79RES    H7732993   4.715   2.246   3.971  0.6222 -0.2196 -0.2400
   79RES    H7832994   4.705   2.103   3.861 -0.0250  0.2667 -1.9407
   79RES    H7932995   4.675   2.251   3.665  0.1529  0.4575 -1.4113
   79RES    H8032996   4.686   2.386   3.779 -0.3919 -0.3676  1.8384
   79RES    H8132997   4.938   2.212   3.760  0.4637 -1.3858 -2.7299
   79RES    H8232998   4.911   2.374   3.824 -0.5623  0.8702 -1.1080
   79RES    H8332999   5.010   2.386   3.601 -0.0687  0.3516 -1.3564
   79RES    H8433000   4.891   2.279   3.543  2.8373  0.5620 -0.9833
   79RES    H8533001   4.841   2.446   3.580  2.3313  0.9852 -2.2973
   79RES    C8633002   4.445   2.298   4.093  0.5938 -0.0954 -0.3566
   79RES    C8733003   4.475   2.428   4.178 -1.1878  0.0276 -0.3455
   79RES    C8833004   4.624   2.457   4.193 -0.0421 -0.2108  0.4230
   79RES    C8933005   4.695   2.369   4.307  0.3231  0.0843 -0.4512
   79RES    C9033006   4.848   2.402   4.322 -0.2196  0.2861 -0.4711
   79RES    C9133007   4.910   2.303   4.432 -0.2034  0.2091  0.1926
   79RES    C9233008   5.046   2.352   4.469 -0.5159  0.2801 -0.3151
   79RES    H9333009   4.349   2.253   4.118 -0.1526  2.6664  2.0456
   79RES    H9433010   4.520   2.229   4.131  1.5813  2.5406  2.7267
   79RES    H9533011   4.442   2.391   4.276  0.4282  0.3572  0.3434
   79RES    H9633012   4.678   2.441   4.099 -2.5849 -0.2078 -1.0776
   79RES    H9733013   4.635   2.563   4.217  3.7801 -0.7300  1.2667
   79RES    H9833014   4.657   2.373   4.409 -0.8591  0.0720 -0.8899
   79RES    H9933015   4.667   2.266   4.283  1.1092  0.1117 -1.5305
   79RES   H10033016   4.873   2.505   4.346  1.7373 -0.5016  1.0411
   79RES   H10133017   4.901   2.378   4.230  0.4256  2.3329 -0.6460
   79RES   H10233018   4.853   2.317   4.524  3.4292  0.9835  2.4330
   79RES   H10333019   4.915   2.198   4.402 -0.2896  0.8507 -2.1593
   79RES   H10433020   5.061   2.458   4.489 -0.0217 -0.0356  0.9906
   79RES   H10533021   5.119   2.329   4.391 -0.1654 -1.7340  0.5678
   79RES   H10633022   5.092   2.301   4.554 -1.5448  1.4733  0.9753
   79RES   C10733023   4.383   2.553   4.148  0.0604  0.7034 -0.0384
   79RES   C10833024   4.386   2.679   4.232  0.2289 -0.0682 -0.9780
   79RES   C10933025   4.287   2.782   4.185  0.4004 -0.7951 -0.0974
   79RES   C11033026   4.300   2.815   4.034  0.0260  0.3955  0.4866
   79RES   C11133027   4.217   2.944   3.994  0.1726  0.7249 -0.1834
   79RES   C11233028   4.246   3.006   3.854 -0.0476 -0.0420 -0.1674
   79RES   C11333029   4.147   3.119   3.819  0.3268  0.0102 -0.3184
   79RES   H11433030   4.284   2.507   4.153  0.8690 -1.1795 -1.0132
   79RES   H11533031   4.396   2.578   4.043  2.1639  0.9304  0.2598
   79RES   H11633032   4.485   2.722   4.223  0.0634  0.1251 -1.9540
   79RES   H11733033   4.295   2.874   4.243 -1.1895  1.2057 -2.8997
   79RES   H11833034   4.187   2.743   4.206  0.0191  0.9431  1.3941
   79RES   H11933035   4.405   2.815   4.004 -0.8082 -0.7299 -2.6012
   79RES   H12033036   4.248   2.734   3.984 -0.2941 -0.3274  1.9479
   79RES   H12133037   4.238   3.014   4.075  2.2522 -1.8393  1.5855
   79RES   H12233038   4.112   2.915   4.005  0.7567 -0.8817  1.5073
   79RES   H12333039   4.348   3.043   3.837 -0.3451  1.2038  0.6616
   79RES   H12433040   4.234   2.928   3.779  3.2812 -0.8392  0.0709
   79RES   H12533041   4.194   3.170   3.735  0.7468  1.2898  0.6682
   79RES   H12633042   4.057   3.069   3.785 -0.6502  0.8093  1.0392
   79RES   H12733043   4.123   3.180   3.906 -1.6389 -0.4396 -0.5218
   79RES   C12833044   4.376   2.644   4.388 -0.5038 -0.4085 -0.0507
   79RES   C12933045   4.421   2.762   4.486 -0.4882  0.6258 -0.3337
   79RES   C13033046   4.550   2.741   4.563  0.1546  0.5673 -1.0024
   79RES   C13133047   4.668   2.764   4.463 -0.2538  0.5930 -0.6085
   79RES   C13233048   4.810   2.743   4.526 -0.6711  0.4673  0.3480
   79RES   C13333049   4.926   2.826   4.456  0.0281 -0.3856  0.0289
   79RES   C13433050   4.983   2.768   4.327 -0.1383 -0.4257  0.5148
   79RES   H13533051   4.272   2.618   4.407 -0.3745  0.9755  2.9389
   79RES   H13633052   4.440   2.557   4.405  1.1844  1.1678  2.1444
   79RES   H13733053   4.442   2.853   4.430  3.6377  1.2789  1.9770
   79RES   H13833054   4.551   2.642   4.607  1.6086  0.1197 -2.0157
   79RES   H13933055   4.567   2.811   4.646 -1.0429 -0.2170 -0.0721
   79RES   H14033056   4.669   2.869   4.433 -2.5043  0.3766 -1.4800
   79RES   H14133057   4.664   2.705   4.372  0.3103 -0.0063 -0.2492
   79RES   H14233058   4.839   2.638   4.526 -0.9747  0.3757  1.6497
   79RES   H14333059   4.802   2.758   4.634  0.1583  0.1348  0.4630
   79RES   H14433060   5.003   2.835   4.531 -0.0042 -0.7034  0.1024
   79RES   H14533061   4.890   2.928   4.451  0.6384 -0.1725 -0.0152
   79RES   H14633062   5.038   2.677   4.347 -0.6290 -0.7768  0.2616
   79RES   H14733063   5.052   2.837   4.278 -0.1048 -1.0122 -0.2628
   79RES   H14833064   4.920   2.735   4.244 -0.8826  0.2414  0.8102
   79RES   C14933065   4.307   2.792   4.585 -0.1297  0.0631 -0.0538
   79RES   C15033066   4.171   2.846   4.526 -0.0079  0.2556  0.1527
   79RES   C15133067   4.177   2.997   4.485  0.4795 -0.8969  0.1420
   79RES   C15233068   4.057   3.038   4.401 -1.0689 -0.3447  0.4635
   79RES   C15333069   4.036   3.194   4.394 -0.2689 -0.0725 -0.5936
   79RES   C15433070   4.157   3.269   4.324 -0.4769  0.0858  0.4285
   79RES   C15533071   4.139   3.419   4.310  0.7169  0.1897  0.0030
   79RES   H15633072   4.300   2.698   4.640  0.5084  0.4192  0.6549
   79RES   H15733073   4.344   2.864   4.658 -0.3549  2.4502 -2.2029
   79RES   H15833074   4.149   2.809   4.426 -1.8816  0.5410  0.4473
   79RES   H15933075   4.183   3.062   4.572 -2.1342 -1.7880  1.0605
   79RES   H16033076   4.265   3.026   4.428 -0.5374  0.8604 -0.6096
   79RES   H16133077   3.961   3.001   4.438  0.0970 -1.8318  2.0147
   79RES   H16233078   4.064   2.990   4.304 -2.1137 -0.5381  0.4776
   79RES   H16333079   4.024   3.232   4.495  2.3756 -1.0860  0.1629
   79RES   H16433080   3.950   3.230   4.337  1.7611  2.0551 -2.4479
   79RES   H16533081   4.180   3.224   4.227  0.8573 -0.8159  1.1344
   79RES   H16633082   4.248   3.263   4.384 -0.4793 -0.5039  0.3779
   79RES   H16733083   4.157   3.480   4.398  0.6180 -0.1110  0.2330
   79RES   H16833084   4.055   3.458   4.253  0.6865  0.2523  0.0916
   79RES   H16933085   4.220   3.432   4.238 -0.3644  1.5262 -1.0074
   79RES   C17033086   4.050   2.816   4.620 -0.5245  0.3942  0.2293
   79RES   C17133087   3.946   2.703   4.592 -0.0649 -0.0639  0.0069
   79RES   C17233088   4.005   2.565   4.638 -0.1679 -0.5997 -0.2725
   79RES   C17333089   4.021   2.544   4.798 -0.4903  0.7956  0.0607
   79RES   C17433090   4.026   2.394   4.840  0.4460 -0.0058 -0.2003
   79RES   C17533091   4.033   2.372   4.989  0.4829 -0.3616 -0.5021
   79RES   C17633092   4.017   2.226   5.027  0.5846 -0.3680  0.4391
   79RES   H17733093   3.992   2.908   4.621  0.9358  1.3337  1.7702
   79RES   H17833094   4.083   2.814   4.724 -0.7256 -1.0984  0.2792
   79RES   H17933095   3.932   2.695   4.485 -1.6603  1.7282  0.0541
   79RES   H18033096   4.102   2.552   4.591 -0.2784 -0.0992 -0.6387
   79RES   H18133097   3.942   2.487   4.595 -1.6878  0.8138 -0.6695
   79RES   H18233098   3.935   2.595   4.842 -0.8678  0.9477 -0.8377
   79RES   H18333099   4.107   2.602   4.830 -0.0904  0.6690 -0.7575
   79RES   H18433100   4.113   2.350   4.792  2.7468  2.1180  1.9257
   79RES   H18533101   3.939   2.340   4.804 -0.0774  0.6509  0.0530
   79RES   H18633102   3.960   2.431   5.044  2.0271  1.7669 -0.6746
   79RES   H18733103   4.133   2.402   5.021 -0.7408  1.2728  1.9158
   79RES   H18833104   3.928   2.174   4.992  0.8417 -0.9508  0.6410
   79RES   H18933105   4.029   2.222   5.135  0.2433  0.5002  0.5125
   79RES   H19033106   4.099   2.176   4.975 -1.5201  0.1407 -3.6120
   79RES   C19133107   3.804   2.726   4.651  0.0646  0.4640 -0.5930
   79RES   C19233108   3.717   2.805   4.546 -0.1163 -0.2714  0.1933
   79RES   C19333109   3.679   2.714   4.435  0.0589 -0.1112 -0.5387
   79RES   C19433110   3.598   2.781   4.329  0.0837  0.6320 -0.4298
   79RES   C19533111   3.576   2.694   4.204 -0.5170  0.3626  0.2814
   79RES   C19633112   3.468   2.748   4.099 -0.0308 -0.6277 -0.4971
   79RES   C19733113   3.428   2.641   3.988 -0.9455  0.4589  0.6964
   79RES   H19833114   3.823   2.769   4.750 -1.0122 -1.9482  0.7035
   79RES   H19933115   3.757   2.631   4.677  0.3994  0.2500 -0.7693
   79RES   H20033116   3.787   2.869   4.494  2.3007 -3.5754 -0.8005
   79RES   H20133117   3.620   2.625   4.459  0.5596  0.1025  1.5490
   79RES   H20233118   3.760   2.666   4.381 -0.2142  1.4893 -2.4389
   79RES   H20333119   3.648   2.873   4.297 -1.1993  1.0098 -1.3832
   79RES   H20433120   3.499   2.814   4.358  0.0610  0.4117 -0.2599
   79RES   H20533121   3.672   2.688   4.152 -0.0706 -0.5332  1.1788
   79RES   H20633122   3.547   2.594   4.236  0.8660  0.3530  1.5739
   79RES   H20733123   3.497   2.839   4.047  0.2631  0.2772  1.1971
   79RES   H20833124   3.378   2.788   4.146  0.1526 -0.4262 -0.3164
   79RES   H20933125   3.371   2.695   3.912  0.5366 -2.3883 -2.6028
   79RES   H21033126   3.377   2.547   4.008  0.7650 -0.0573  2.8663
   79RES   H21133127   3.514   2.603   3.933 -0.6957  2.7834 -0.6005
   79RES   C21233128   3.598   2.881   4.608 -0.1246  0.2888 -0.1393
   79RES   C21333129   3.631   2.980   4.721 -0.5236  0.5173 -0.1979
   79RES   C21433130   3.575   3.115   4.688 -0.4065 -0.3056  0.6002
   79RES   C21533131   3.645   3.180   4.566 -0.8779 -0.1027 -0.7223
   79RES   C21633132   3.575   3.316   4.535  0.9132  0.0915 -0.2658
   79RES   C21733133   3.650   3.404   4.430 -0.3186  0.4501 -0.0673
   79RES   C21833134   3.596   3.546   4.406  0.3153  0.2483 -1.1853
   79RES   H21933135   3.539   2.804   4.657 -0.3698 -0.1839 -1.1598
   79RES   H22033136   3.526   2.917   4.534  0.9812  0.3272 -1.2173
   79RES   H22133137   3.739   2.992   4.733 -0.9559  4.5108  0.4172
   79RES   H22233138   3.473   3.107   4.649 -0.3519 -1.6475  0.7014
   79RES   H22333139   3.572   3.186   4.771  1.4481  0.7805 -0.2359
   79RES   H22433140   3.639   3.113   4.480 -1.5896  0.5308 -1.1755
   79RES   H22533141   3.751   3.174   4.587 -1.4603 -1.0897  2.1873
   79RES   H22633142   3.468   3.304   4.519  1.1598 -1.2695 -0.9070
   79RES   H22733143   3.571   3.376   4.626  1.1826  1.0065 -0.8509
   79RES   H22833144   3.752   3.423   4.463 -0.6464  1.1374  0.5701
   79RES   H22933145   3.655   3.353   4.334 -2.0348 -1.2088  0.6757
   79RES   H23033146   3.664   3.592   4.334  0.0133 -1.4602 -2.6179
   79RES   H23133147   3.597   3.601   4.500  2.2607 -0.3496 -0.8185
   79RES   H23233148   3.494   3.542   4.369 -1.4073 -0.1201  3.3739
   79RES   C23333149   3.577   2.939   4.865 -0.1853  0.2589 -0.3162
   79RES   C23433150   3.638   3.007   4.984  0.2627  0.3425  0.2140
   79RES   C23533151   3.543   3.016   5.107 -0.2180  0.1208 -0.5992
   79RES   C23633152   3.431   3.125   5.098  0.5231 -0.2895  0.0994
   79RES   C23733153   3.349   3.139   5.232 -0.0886  0.4860  0.2223
   79RES   C23833154   3.424   3.212   5.347 -0.3979  0.0248 -0.4802
   79RES   C23933155   3.327   3.233   5.461 -0.3712  1.2523 -0.3540
   79RES   H24033156   3.594   2.834   4.887 -0.3171 -0.1510 -2.1436
   79RES   H24133157   3.470   2.959   4.856 -0.3264 -1.2752 -2.2984
   79RES   H24233158   3.659   3.110   4.957 -0.1464  0.6619  1.0946
   79RES   H24333159   3.600   3.033   5.198 -2.7285  0.6845  0.9154
   79RES   H24433160   3.481   2.929   5.131  0.7634 -0.4950 -0.2730
   79RES   H24533161   3.367   3.109   5.012  0.8473 -0.5763 -0.0903
   79RES   H24633162   3.466   3.226   5.079  1.9794 -1.0262 -1.2133
   79RES   H24733163   3.321   3.040   5.270  1.1691 -0.4285 -1.1669
   79RES   H24833164   3.252   3.181   5.207  1.2560  1.9684 -2.7245
   79RES   H24933165   3.505   3.144   5.375 -0.0503  0.5126 -0.2865
   79RES   H25033166   3.481   3.300   5.315  0.9191 -0.0630  1.5069
   79RES   H25133167   3.245   3.297   5.431 -2.2268  0.2091  2.3209
   79RES   H25233168   3.288   3.141   5.502 -1.7062  0.6000 -2.9739
   79RES   H25333169   3.367   3.299   5.538 -0.1402  0.1467  0.4780
   79RES   C25433170   3.781   2.959   5.037 -0.2174  0.1510  0.4875
   79RES   C25533171   3.866   3.074   5.082  0.0153 -1.2048 -0.2424
   79RES   C25633172   3.949   3.124   4.964  0.5562 -0.7212  0.3585
   79RES   C25733173   4.017   3.259   4.996  0.3633  0.8737 -0.3330
   79RES   C25833174   4.073   3.333   4.873 -0.0570 -0.4616 -0.0313
   79RES   C25933175   4.159   3.247   4.784 -0.0968 -0.0062  0.1893
   79RES   C26033176   4.224   3.331   4.680 -0.0828  0.0968 -0.0362
   79RES   H26133177   3.836   2.906   4.959  0.7385  0.8414  0.6813
   79RES   H26233178   3.767   2.888   5.119 -1.2176 -2.0419 -1.5540
   79RES   H26333179   3.800   3.153   5.119  1.6627 -0.3050  0.7894
   79RES   H26433180   3.885   3.144   4.878 -0.2022 -0.4678  0.9741
   79RES   H26533181   4.024   3.047   4.945  1.7972  0.6226 -0.2428
   79RES   H26633182   3.944   3.322   5.048  1.1978  0.0024  1.9629
   79RES   H26733183   4.099   3.232   5.063  0.9508 -0.4324 -1.5544
   79RES   H26833184   4.122   3.421   4.916 -2.4079  0.9230 -0.1293
   79RES   H26933185   3.991   3.372   4.814 -0.1153  0.0112  0.3585
   79RES   H27033186   4.240   3.206   4.844 -0.2494 -2.0792 -0.9683
   79RES   H27133187   4.102   3.165   4.738 -0.5314 -0.0060  0.7154
   79RES   H27233188   4.150   3.366   4.608 -2.1727 -0.9204  1.5550
   79RES   H27333189   4.270   3.414   4.733  0.7188 -0.6118  0.4104
   79RES   H27433190   4.299   3.279   4.619  1.5430 -1.2451  2.9831
   79RES   C27533191   3.958   3.037   5.201  0.3265  0.0658 -0.1284
   79RES   C27633192   3.896   3.019   5.339 -0.1412 -0.4369  0.4431
   79RES   C27733193   3.845   3.153   5.400 -0.0405 -0.6377 -0.1184
   79RES   C27833194   3.750   3.132   5.524  0.7925  0.2351  0.4667
   79RES   C27933195   3.688   3.263   5.574  0.1159  0.6719  0.1641
   79RES   C28033196   3.581   3.243   5.689 -0.2301 -0.0297  0.2727
   79RES   C28133197   3.507   3.375   5.724 -0.1207  0.3084 -0.1770
   79RES   H28233198   4.041   3.104   5.221 -0.9295  0.5161  4.1618
   79RES   H28333199   4.005   2.944   5.168  1.4146  0.4572  0.3303
   79RES   H28433200   3.805   2.962   5.323 -0.8996  0.8042  0.2172
   79RES   H28533201   3.924   3.223   5.426  1.6651 -1.4174 -3.0079
   79RES   H28633202   3.797   3.210   5.320  1.0017  0.1926 -0.1560
   79RES   H28733203   3.808   3.103   5.611  2.5453  2.1878 -0.0083
   79RES   H28833204   3.671   3.058   5.513 -0.5405  1.7969 -0.7153
   79RES   H28933205   3.646   3.325   5.495 -0.7665  1.2379  1.0470
   79RES   H29033206   3.767   3.320   5.623  2.3562 -2.1066 -0.1472
   79RES   H29133207   3.511   3.166   5.657 -0.5691  0.5273 -0.3361
   79RES   H29233208   3.629   3.201   5.777 -0.6188 -0.4706  0.2748
   79RES   H29333209   3.482   3.439   5.639 -0.2283  2.9378  1.7819
   79RES   H29433210   3.579   3.429   5.784  2.0528 -1.9347 -0.6904
   79RES   H29533211   3.420   3.353   5.786 -0.0638 -1.0173 -0.5489
   79RES   C29633212   3.986   2.946   5.434 -0.1667 -0.4110 -0.2213
   79RES   C29733213   3.997   2.795   5.416 -0.1280 -0.3472  0.0826
   79RES   C29833214   3.863   2.724   5.411 -0.8377  0.4141 -0.2145
   79RES   C29933215   3.767   2.738   5.521 -0.0154  0.7716  0.1618
   79RES   C30033216   3.626   2.683   5.488  0.3551 -1.0760  0.7145
   79RES   C30133217   3.538   2.793   5.418 -0.5178 -0.1388 -0.2182
   79RES   C30233218   3.403   2.733   5.372 -0.6885 -0.1560 -0.0241
   79RES   H30333219   4.085   2.992   5.423 -1.0259  1.3529 -0.7122
   79RES   H30433220   3.962   2.964   5.538  1.5395 -1.3970  0.3764
   79RES   H30533221   4.020   2.780   5.310  0.3283  0.6911  0.0189
   79RES   H30633222   3.810   2.754   5.320 -1.4183  1.8298  0.5639
   79RES   H30733223   3.887   2.618   5.406 -0.8410  0.4194 -0.3605
   79RES   H30833224   3.743   2.843   5.542  0.5101  0.8601  0.3334
   79RES   H30933225   3.805   2.701   5.616 -0.1045  0.0899 -0.0693
   79RES   H31033226   3.578   2.638   5.574 -1.1535  1.4579  1.2492
   79RES   H31133227   3.639   2.597   5.421  0.0620  1.4023 -2.6881
   79RES   H31233228   3.525   2.881   5.481 -0.9920  1.0449 -1.9295
   79RES   H31333229   3.586   2.833   5.328  0.7734 -1.0136  0.0683
   79RES   H31433230   3.328   2.803   5.335 -1.1285  0.3186  1.7143
   79RES   H31533231   3.420   2.652   5.301  2.3672  1.2229 -0.9449
   79RES   H31633232   3.366   2.679   5.459 -2.4393  0.6381 -0.2423
   79RES   C31733233   4.095   2.729   5.521 -0.5748 -0.2023 -0.1940
   79RES   C31833234   4.251   2.729   5.520 -0.1202  0.6413  0.4629
   79RES   C31933235   4.313   2.855   5.561 -0.5798 -0.2906  0.5796
   79RES   C32033236   4.270   2.893   5.706 -0.0198 -0.3171  0.0354
   79RES   C32133237   4.371   2.992   5.772 -0.2027  0.1627  0.3735
   79RES   C32233238   4.357   2.995   5.922  0.8251  0.8914  0.2880
   79RES   C32333239   4.461   3.093   5.973  0.2548  0.5055  0.8188
   79RES   H32433240   4.066   2.624   5.528  2.2762 -0.9686  0.7288
   79RES   H32533241   4.070   2.757   5.623  1.0480 -2.6410  0.9229
   79RES   H32633242   4.279   2.720   5.415  0.0857  0.0159  0.5718
   79RES   H32733243   4.295   2.932   5.487 -1.5141  0.4688  1.5972
   79RES   H32833244   4.421   2.840   5.555 -0.7217 -1.0083 -0.3224
   79RES   H32933245   4.267   2.809   5.774  1.2007 -1.0504 -0.7993
   79RES   H33033246   4.172   2.942   5.703  0.3490  0.4678  0.4989
   79RES   H33133247   4.357   3.095   5.738 -0.1322  0.3647  0.9524
   79RES   H33233248   4.473   2.964   5.743  0.0996 -0.7076  2.2016
   79RES   H33333249   4.386   2.900   5.968  0.3509  0.9831  0.7900
   79RES   H33433250   4.260   3.023   5.965  0.5031 -1.6603  1.3519
   79RES   H33533251   4.563   3.058   5.955 -0.0514  0.0685 -0.0980
   79RES   H33633252   4.446   3.114   6.079  0.5578  1.6584  0.6493
   79RES   H33733253   4.443   3.187   5.920 -1.6263 -0.4093 -0.2150
   79RES   C33833254   4.305   2.605   5.598  0.1036  0.0539  0.2975
   79RES   C33933255   4.327   2.486   5.504 -0.4405 -0.8839  0.2655
   79RES   C34033256   4.316   2.343   5.563 -0.0447  0.3011  0.2748
   79RES   C34133257   4.187   2.297   5.629 -0.2195 -1.1012 -0.2346
   79RES   C34233258   4.065   2.290   5.531 -0.8390 -0.9028 -0.0293
   79RES   C34333259   3.943   2.203   5.576  0.3765 -0.0437 -0.2548
   79RES   C34433260   3.811   2.229   5.496 -0.1575  0.5939  0.2666
   79RES   H34533261   4.236   2.581   5.679  1.9434 -0.3331  1.7956
   79RES   H34633262   4.399   2.626   5.649  0.2580  1.3615 -0.5031
   79RES   H34733263   4.252   2.487   5.425 -1.4276 -0.6120  1.1941
   79RES   H34833264   4.326   2.271   5.482 -0.4260 -0.2426  0.7007
   79RES   H34933265   4.407   2.322   5.621  1.3452 -0.8067 -2.2252
   79RES   H35033266   4.154   2.362   5.711 -1.9190  2.1554 -3.3473
   79RES   H35133267   4.207   2.205   5.683  1.0751 -1.8279 -1.9138
   79RES   H35233268   4.028   2.391   5.512 -0.3257 -0.7603 -0.2644
   79RES   H35333269   4.108   2.261   5.435  1.2270  0.9019  0.3174
   79RES   H35433270   3.962   2.100   5.546  2.0532  0.8740 -2.4554
   79RES   H35533271   3.931   2.211   5.684 -2.1607 -1.8236 -0.3559
   79RES   H35633272   3.779   2.333   5.484 -2.0474 -0.4374 -5.0844
   79RES   H35733273   3.728   2.170   5.534 -0.4649  0.3747 -0.7121
   79RES   H35833274   3.827   2.204   5.391  0.2419  1.9128  0.0029
   79RES   C35933275   4.452   2.504   5.415 -0.1397  0.1492  0.3233
   79RES   C36033276   4.455   2.444   5.274  0.2032 -0.7117  0.5042
   79RES   C36133277   4.364   2.522   5.169  0.2467  0.1469 -0.2180
   79RES   C36233278   4.413   2.668   5.124 -0.4241 -1.0108 -0.1151
   79RES   C36333279   4.308   2.738   5.037 -0.0576  0.8457  0.1488
   79RES   C36433280   4.352   2.860   4.963 -0.6898  0.7858 -0.1857
   79RES   C36533281   4.397   2.968   5.063  0.0241  0.3394  0.1400
   79RES   H36633282   4.521   2.456   5.484 -2.5697 -1.8709  1.4246
   79RES   H36733283   4.488   2.606   5.418 -1.7159  0.6960  1.2201
   79RES   H36833284   4.408   2.346   5.282  0.6614 -1.1208 -1.5484
   79RES   H36933285   4.360   2.460   5.080  0.9862  0.9823 -0.8432
   79RES   H37033286   4.262   2.535   5.206 -0.2143  0.6593 -1.6252
   79RES   H37133287   4.433   2.725   5.215  0.3309  2.2566 -2.2432
   79RES   H37233288   4.511   2.660   5.076 -0.0029  2.0599  0.1489
   79RES   H37333289   4.270   2.670   4.961 -0.6731  2.7629 -1.3050
   79RES   H37433290   4.220   2.758   5.098 -0.9126 -2.5272  0.1535
   79RES   H37533291   4.440   2.842   4.901 -0.9615 -2.0205  0.2092
   79RES   H37633292   4.260   2.886   4.910 -1.3740  1.1769  1.1834
   79RES   H37733293   4.355   2.973   5.164  0.3199  0.8034  0.2407
   79RES   H37833294   4.503   2.945   5.071 -0.1375 -0.7456 -0.7507
   79RES   H37933295   4.407   3.072   5.034  0.7113  0.4447  0.7313
   79RES   C38033296   4.598   2.424   5.224 -0.6235  0.4451 -0.4232
   79RES   C38133297   4.608   2.329   5.105  0.7883  0.1348 -0.0676
   79RES   C38233298   4.751   2.336   5.053  0.3232 -0.1218 -0.2543
   79RES   C38333299   4.793   2.477   4.988 -0.3685  0.0147 -0.2346
   79RES   C38433300   4.934   2.477   4.923  0.5378  0.4292  0.1707
   79RES   C38533301   5.058   2.433   5.010  0.2280 -0.2011  0.0341
   79RES   C38633302   5.192   2.460   4.940 -0.0006 -0.0361  0.4441
   79RES   H38733303   4.640   2.525   5.218 -0.7202  0.6542  1.7756
   79RES   H38833304   4.661   2.383   5.303  1.5732  0.8515 -1.9177
   79RES   H38933305   4.536   2.373   5.036  0.2989  1.1180  1.0616
   79RES   H39033306   4.768   2.260   4.978 -0.4680  1.3512 -1.9571
   79RES   H39133307   4.822   2.316   5.133 -0.5537  0.7456  0.7606
   79RES   H39233308   4.726   2.507   4.907  0.6171  0.0420 -1.0451
   79RES   H39333309   4.780   2.557   5.060 -0.0221 -0.3190  0.1993
   79RES   H39433310   4.932   2.411   4.836  2.5018  2.8332 -1.7803
   79RES   H39533311   4.950   2.580   4.891  1.3908 -0.1760 -1.3994
   79RES   H39633312   5.042   2.329   5.037 -3.0901  1.0027  3.0509
   79RES   H39733313   5.044   2.482   5.106 -1.4014 -0.4477 -0.0676
   79RES   H39833314   5.188   2.447   4.832 -2.4477 -1.5196  0.6785
   79RES   H39933315   5.265   2.395   4.989 -0.9975  0.6039  2.8704
   79RES   H40033316   5.234   2.560   4.949  1.2482 -0.0537 -3.8967
   79RES   C40133317   4.568   2.183   5.128  0.8018  0.1535  0.2563
   79RES   C40233318   4.512   2.114   5.007 -0.0045 -0.6518 -0.1847
   79RES   C40333319   4.456   1.972   5.028  0.3270 -0.5562 -0.0844
   79RES   C40433320   4.395   1.922   4.900  0.3340 -0.4806 -0.8398
   79RES   C40533321   4.302   1.803   4.920  0.2119  0.0284 -0.2711
   79RES   C40633322   4.376   1.676   4.956 -0.0434  0.6173 -0.0973
   79RES   C40733323   4.281   1.557   4.987  0.6011 -0.0543 -0.2589
   79RES   H40833324   4.492   2.179   5.206  0.1799 -0.7757 -0.3871
   79RES   H40933325   4.652   2.128   5.172  1.1231 -0.0299 -0.5795
   79RES   H41033326   4.585   2.114   4.925 -0.1218  0.8551 -0.2895
   79RES   H41133327   4.383   1.988   5.108 -0.1999  3.0647 -1.1977
   79RES   H41233328   4.544   1.915   5.058  1.6008  1.2901 -0.2127
   79RES   H41333329   4.474   1.896   4.830  0.0957 -0.2133 -1.2083
   79RES   H41433330   4.331   2.004   4.869 -0.6277 -1.8321 -2.4584
   79RES   H41533331   4.230   1.836   4.996  0.6711  3.6773 -1.3134
   79RES   H41633332   4.236   1.790   4.835 -1.4740 -2.8256  1.3837
   79RES   H41733333   4.454   1.642   4.887 -0.3945 -0.4245  0.0140
   79RES   H41833334   4.435   1.692   5.046  1.2720 -0.6023 -0.7131
   79RES   H41933335   4.334   1.471   5.029  1.4819  0.7886  0.3565
   79RES   H42033336   4.237   1.534   4.890 -2.0903  0.2918  0.8363
   79RES   H42133337   4.210   1.600   5.057 -0.4871 -2.3297  0.0984
   79RES   H42233338   4.431   2.176   4.970 -0.5119 -0.0396  1.9114
   80RES     C133339   3.063   6.603   6.537  0.1299 -0.3953 -0.1916
   80RES     C233340   3.117   6.712   6.642  0.4388  0.1711  0.4331
   80RES     C333341   3.097   6.670   6.786  0.5591 -0.0637 -0.8478
   80RES     C433342   3.169   6.537   6.822  0.8925 -0.2514 -0.9791
   80RES     C533343   3.127   6.497   6.958 -0.0463 -0.3527 -0.7085
   80RES     C633344   3.167   6.590   7.071  0.2935 -0.4587  0.9026
   80RES     C733345   3.123   6.525   7.203  0.0362 -0.0303  0.3208
   80RES     H833346   3.102   6.501   6.549  1.4150  0.3390  2.1943
   80RES     H933347   3.086   6.643   6.438 -0.9065  1.4351  0.2968
   80RES    H1033348   3.222   6.713   6.614  0.0761  1.5644 -0.9680
   80RES    H1133349   3.142   6.744   6.852 -1.4865  1.7172 -1.4098
   80RES    H1233350   2.991   6.659   6.807  0.6981  1.8493  1.0288
   80RES    H1333351   3.151   6.450   6.759 -0.8307 -1.3032  0.9102
   80RES    H1433352   3.276   6.560   6.826  0.6647  0.6662 -0.0114
   80RES    H1533353   3.178   6.404   6.983  0.1331  0.2096  1.1041
   80RES    H1633354   3.019   6.486   6.968 -0.4867  2.6531 -1.6368
   80RES    H1733355   3.117   6.686   7.057 -2.2003 -2.0778 -2.0418
   80RES    H1833356   3.272   6.610   7.055  0.3394  0.0603  1.8299
   80RES    H1933357   3.022   6.483   7.209  0.4729 -1.3519 -1.1086
   80RES    H2033358   3.125   6.601   7.281 -0.2351  0.1712  0.1298
   80RES    H2133359   3.190   6.444   7.233 -1.8575 -1.9261 -0.3788
   80RES    H2233360   2.955   6.589   6.544  0.1616 -1.2922 -1.2853
   80RES    C2333361   3.062   6.851   6.598  0.4989 -0.0530 -0.3675
   80RES    C2433362   3.156   6.975   6.625 -0.2853  0.3438 -0.0308
   80RES    C2533363   3.077   7.109   6.650 -0.0194  0.0892  0.3911
   80RES    C2633364   2.991   7.114   6.778  0.1897 -0.4685  0.7142
   80RES    C2733365   2.894   7.234   6.777  0.8626 -0.5892  0.5322
   80RES    C2833366   2.767   7.209   6.691 -0.4456 -0.1597 -0.4760
   80RES    C2933367   2.662   7.324   6.685 -0.2861  0.0630  1.1608
   80RES    H3033368   3.016   6.850   6.499 -0.7840  0.2033  0.2096
   80RES    H3133369   2.973   6.841   6.660  0.1323  0.8243 -0.7428
   80RES    H3233370   3.205   6.946   6.718 -1.2105 -2.0162 -0.2497
   80RES    H3333371   3.007   7.117   6.567  2.4906 -0.5645 -1.8508
   80RES    H3433372   3.145   7.194   6.644  0.5331 -0.3548  0.3050
   80RES    H3533373   3.064   7.134   6.857 -0.0439  0.3685  0.7178
   80RES    H3633374   2.940   7.020   6.797 -0.5064 -0.2615 -0.1072
   80RES    H3733375   2.934   7.330   6.744  0.8056 -1.3298 -1.7803
   80RES    H3833376   2.871   7.259   6.880  1.7738  0.0167  0.5916
   80RES    H3933377   2.716   7.128   6.742  1.6512 -1.5898 -0.5839
   80RES    H4033378   2.788   7.162   6.595  0.4097 -2.0486  0.6170
   80RES    H4133379   2.614   7.354   6.779  0.0991  0.3671  1.2648
   80RES    H4233380   2.708   7.413   6.641  0.6761  0.4681  2.9285
   80RES    H4333381   2.581   7.297   6.618  0.2277  1.1493  0.0813
   80RES    C4433382   3.263   6.998   6.518 -0.7637 -0.0796 -0.6785
   80RES    C4533383   3.399   6.933   6.542  0.5021 -0.7045  0.0232
   80RES    C4633384   3.474   6.891   6.411 -0.0258 -0.4809  0.0651
   80RES    C4733385   3.432   6.758   6.346 -0.6012 -0.5395  0.1466
   80RES    C4833386   3.508   6.723   6.223  0.0158 -0.7799 -0.4077
   80RES    C4933387   3.444   6.603   6.153  0.2918  0.3577  0.2561
   80RES    C5033388   3.501   6.579   6.013 -0.4983 -0.4808 -0.4481
   80RES    H5133389   3.280   7.098   6.479 -1.6949  0.5424  0.4758
   80RES    H5233390   3.220   6.952   6.429  2.1695 -1.1278 -1.6275
   80RES    H5333391   3.385   6.836   6.589 -3.0064 -0.4144 -0.2730
   80RES    H5433392   3.581   6.880   6.428  0.0563  0.9145  0.4984
   80RES    H5533393   3.482   6.980   6.349  0.7440  0.1237  1.0049
   80RES    H5633394   3.446   6.679   6.420  3.2213 -0.6586 -0.5996
   80RES    H5733395   3.326   6.762   6.321 -0.5416  1.6430  0.1578
   80RES    H5833396   3.611   6.696   6.245  0.2164  1.3794  1.3732
   80RES    H5933397   3.512   6.801   6.147 -1.4583 -1.4509 -1.2067
   80RES    H6033398   3.335   6.615   6.154  0.2186 -0.1461 -0.5981
   80RES    H6133399   3.479   6.516   6.209  0.9819  0.1753 -0.4392
   80RES    H6233400   3.486   6.658   5.939  3.9595  0.0659 -0.9458
   80RES    H6333401   3.465   6.483   5.976  0.4579 -0.7114 -0.8107
   80RES    H6433402   3.610   6.566   6.013 -0.4762 -0.5420  2.1056
   80RES    C6533403   3.475   7.029   6.632 -0.3365 -0.1951  0.2780
   80RES    C6633404   3.599   6.973   6.704 -0.1097  0.0128  0.6137
   80RES    C6733405   3.558   6.866   6.815 -0.2960 -1.0236  0.1023
   80RES    C6833406   3.630   6.735   6.801  0.2247 -0.5194 -0.1616
   80RES    C6933407   3.569   6.629   6.899  0.1472  0.1417 -0.1644
   80RES    C7033408   3.598   6.656   7.050  0.1453 -0.1977  0.2529
   80RES    C7133409   3.750   6.640   7.098  0.2550  0.4180  0.7163
   80RES    H7233410   3.504   7.118   6.577  1.4476  0.3638  2.0863
   80RES    H7333411   3.411   7.060   6.714  0.9100 -3.0917  2.4404
   80RES    H7433412   3.661   6.923   6.630  0.4233 -0.2242  1.2132
   80RES    H7533413   3.572   6.912   6.913 -0.1184 -1.7025  0.3950
   80RES    H7633414   3.451   6.855   6.799 -0.3326  0.8175 -1.0304
   80RES    H7733415   3.627   6.689   6.703 -0.3161  0.3209 -0.5446
   80RES    H7833416   3.732   6.755   6.833  0.4929 -1.6866 -0.2672
   80RES    H7933417   3.460   6.628   6.896  0.1227  0.8481  0.4712
   80RES    H8033418   3.599   6.529   6.866 -2.9907 -0.3127 -1.9246
   80RES    H8133419   3.531   6.600   7.115  0.4734  2.4827  3.0044
   80RES    H8233420   3.576   6.760   7.072 -2.3942 -0.6147 -0.2048
   80RES    H8333421   3.816   6.713   7.050 -0.1501 -0.4137 -1.1660
   80RES    H8433422   3.752   6.661   7.205  0.6586  2.5225  0.3101
   80RES    H8533423   3.793   6.541   7.078 -0.5340 -0.0880  1.5035
   80RES    C8633424   3.689   7.092   6.757 -0.0762 -0.2218  0.2155
   80RES    C8733425   3.817   7.048   6.835 -0.6818 -0.2841  0.4081
   80RES    C8833426   3.914   6.957   6.742 -0.2694  0.2193 -0.5316
   80RES    C8933427   4.034   6.902   6.823  0.3473  0.2081  0.0184
   80RES    C9033428   4.130   6.821   6.742  0.0498 -0.3038  0.4492
   80RES    C9133429   4.270   6.809   6.810  0.5639 -0.0521  0.5422
   80RES    C9233430   4.355   6.934   6.780 -0.3288 -0.3573  0.0058
   80RES    H9333431   3.734   7.145   6.673  2.1981  1.2042  2.2505
   80RES    H9433432   3.626   7.154   6.820  0.5541 -1.0666  1.7078
   80RES    H9533433   3.786   6.973   6.908  1.7220 -1.2524  0.4658
   80RES    H9633434   3.867   6.873   6.690  0.0033 -0.3078  0.0602
   80RES    H9733435   3.952   7.023   6.665  1.4754 -1.3823 -1.0936
   80RES    H9833436   4.084   6.985   6.874 -0.3376 -0.2642  1.5013
   80RES    H9933437   3.996   6.835   6.901 -0.3168  1.6407  0.9471
   80RES   H10033438   4.148   6.868   6.645 -1.9778  1.9618  1.1239
   80RES   H10133439   4.081   6.730   6.709 -2.4362  0.9581  0.5319
   80RES   H10233440   4.270   6.776   6.913 -0.5457  0.9954  0.8929
   80RES   H10333441   4.326   6.729   6.762  2.3514  1.5978 -0.2155
   80RES   H10433442   4.459   6.905   6.794 -0.1039 -1.2649 -3.1503
   80RES   H10533443   4.330   7.015   6.848  1.7427 -1.7669  2.5289
   80RES   H10633444   4.343   6.971   6.679 -1.9063  2.1807  1.0861
   80RES   C10733445   3.894   7.171   6.897  0.4118 -0.4412 -0.6119
   80RES   C10833446   3.815   7.271   6.989 -0.7167 -0.0950  0.3593
   80RES   C10933447   3.716   7.211   7.084  0.0414 -0.2295 -0.3029
   80RES   C11033448   3.770   7.139   7.203 -0.6077  0.1769 -0.3244
   80RES   C11133449   3.673   7.047   7.273  0.7957 -0.0306 -0.6884
   80RES   C11233450   3.734   6.970   7.393 -1.2082  0.7337  0.3495
   80RES   C11333451   3.640   6.849   7.436  0.1291 -0.3908 -0.1969
   80RES   H11433452   3.958   7.218   6.822  0.8874  0.4376  0.3342
   80RES   H11533453   3.966   7.136   6.971 -0.1008  0.0290  0.1106
   80RES   H11633454   3.761   7.336   6.920  2.4063  0.3931 -1.7516
   80RES   H11733455   3.642   7.154   7.028  2.5342 -1.5614 -2.3501
   80RES   H11833456   3.662   7.298   7.123  0.2307 -0.3368  0.1959
   80RES   H11933457   3.854   7.078   7.169  0.1584  0.6163  0.7449
   80RES   H12033458   3.824   7.202   7.273 -0.6909  1.4003 -1.3373
   80RES   H12133459   3.630   6.976   7.202 -1.1664  0.1926  0.2604
   80RES   H12233460   3.581   7.086   7.316 -1.3147 -2.9868 -2.3459
   80RES   H12333461   3.832   6.933   7.366 -1.3863 -0.1606  0.9220
   80RES   H12433462   3.754   7.050   7.464  0.9070  0.4033  0.1548
   80RES   H12533463   3.537   6.885   7.432 -0.0474 -0.9482 -1.0663
   80RES   H12633464   3.642   6.767   7.364 -1.3775  2.2514 -3.3798
   80RES   H12733465   3.662   6.816   7.537  0.0869  1.7753  0.5311
   80RES   C12833466   3.921   7.361   7.063  0.3822 -0.2322  0.2015
   80RES   C12933467   3.866   7.495   7.120 -0.2407  0.4906 -0.4515
   80RES   C13033468   3.807   7.596   7.018  0.6530  0.4391 -0.2159
   80RES   C13133469   3.751   7.726   7.075  0.2545  0.6939 -0.0295
   80RES   C13233470   3.619   7.720   7.151 -0.3903 -0.4320 -0.9816
   80RES   C13333471   3.585   0.137   7.206  0.8214  1.0656  0.4277
   80RES   C13433472   3.652   0.178   7.330 -0.4764  0.5889  0.3600
   80RES   H13533473   3.964   7.307   7.147 -3.3625  0.1468  2.5066
   80RES   H13633474   4.000   7.375   6.989  0.1772 -2.0243 -0.3864
   80RES   H13733475   3.792   7.458   7.190  2.1561 -1.9868  0.8726
   80RES   H13833476   3.739   7.543   6.951  1.4326 -0.4513 -0.3161
   80RES   H13933477   3.894   7.635   6.967  0.4765  2.1647  0.7807
   80RES   H14033478   3.745   0.077   6.998 -0.1457  1.8052  1.0962
   80RES   H14133479   3.825   0.056   7.133  1.0128 -1.5512  1.2541
   80RES   H14233480   3.626   7.650   7.234 -0.2485 -0.9785 -1.4544
   80RES   H14333481   3.541   7.678   7.088 -3.0749  0.7597  1.4301
   80RES   H14433482   3.479   0.135   7.231  0.5724 -1.0648 -0.6423
   80RES   H14533483   3.591   0.221   7.137  2.3519 -0.7008 -1.6474
   80RES   H14633484   3.654   0.103   7.410 -0.3324  1.8130  1.5275
   80RES   H14733485   3.610   0.268   7.375 -0.2052  2.6963 -3.4113
   80RES   H14833486   3.756   0.198   7.301 -0.0329 -1.8685  0.1567
   80RES   C14933487   3.988   7.561   7.202  0.2852  0.3267  0.4207
   80RES   C15033488   3.951   7.614   7.342 -0.8026  0.0422 -0.1371
   80RES   C15133489   4.062   7.710   7.401 -0.4018  0.0073 -0.7386
   80RES   C15233490   4.012   0.124   7.443  0.2145 -0.1060 -0.2769
   80RES   C15333491   4.127   0.216   7.498  0.0266  0.9173 -0.4290
   80RES   C15433492   4.080   0.353   7.545 -0.0026  0.4149 -0.3034
   80RES   C15533493   4.195   0.448   7.572 -0.3621 -0.4328  0.1573
   80RES   H15633494   4.079   7.503   7.210 -0.3085 -0.7517 -0.4924
   80RES   H15733495   4.010   7.649   7.141 -1.5640  0.8157  0.4273
   80RES   H15833496   3.861   7.675   7.328 -0.7845  0.2117  0.4510
   80RES   H15933497   4.106   7.651   7.481 -1.3401  0.4768  0.1286
   80RES   H16033498   4.145   7.714   7.330  0.1888 -0.5754 -0.0825
   80RES   H16133499   3.929   0.128   7.513  0.6015  0.9936  0.1277
   80RES   H16233500   3.971   0.166   7.351  1.8189 -2.3300 -2.0692
   80RES   H16333501   4.196   0.221   7.414 -0.5386 -1.2300 -1.0412
   80RES   H16433502   4.178   0.166   7.580 -1.3196 -0.7031 -0.5515
   80RES   H16533503   4.007   0.342   7.626  0.0283 -1.8444 -0.5647
   80RES   H16633504   4.028   0.395   7.459 -1.0684  0.0658  0.1608
   80RES   H16733505   4.255   0.463   7.482  0.6131  1.6678  1.1241
   80RES   H16833506   4.246   0.418   7.664  4.6078  1.4708 -1.8229
   80RES   H16933507   4.167   0.553   7.581 -1.2831 -0.5358 -1.3200
   80RES   C17033508   3.916   7.500   7.444  0.0694  0.2558 -0.1916
   80RES   C17133509   3.863   7.545   7.580  0.2459  0.7178  0.3753
   80RES   C17233510   3.732   7.479   7.599  1.0440 -0.2488  0.8324
   80RES   C17333511   3.614   7.561   7.531  0.8733 -0.3186  0.3233
   80RES   C17433512   3.478   7.492   7.538  0.1590 -0.0109  0.2205
   80RES   C17533513   3.466   7.376   7.436  0.4867  0.2739 -0.3410
   80RES   C17633514   3.405   7.419   7.303 -0.3326  0.1488 -0.2217
   80RES   H17733515   4.008   7.442   7.456  1.3311  1.5966 -3.0241
   80RES   H17833516   3.847   7.433   7.393  0.0580  1.7022 -2.1224
   80RES   H17933517   3.834   7.649   7.567  0.7875  0.8948  0.5688
   80RES   H18033518   3.702   7.473   7.703 -0.3295  1.9355  0.5800
   80RES   H18133519   3.743   7.376   7.565  0.8733  0.2866 -0.9107
   80RES   H18233520   3.626   7.573   7.424  0.9351 -1.6571  0.1741
   80RES   H18333521   3.614   7.653   7.589 -0.9367 -1.2826  1.9139
   80RES   H18433522   3.398   7.566   7.525 -1.8357 -2.0447  0.7210
   80RES   H18533523   3.447   7.455   7.635  1.4586 -2.1943 -0.1662
   80RES   H18633524   3.401   7.308   7.491  0.3374 -0.3942 -1.3331
   80RES   H18733525   3.551   7.308   7.436  0.3792  0.1396 -0.7423
   80RES   H18833526   3.491   7.461   7.252 -0.8176  1.3282 -0.0829
   80RES   H18933527   3.337   7.504   7.305 -0.9622 -0.3622  1.0740
   80RES   H19033528   3.367   7.340   7.238  1.5345 -0.8788 -0.0968
   80RES   C19133529   3.963   7.523   7.700  0.0892  0.2854  0.2615
   80RES   C19233530   3.938   7.599   0.110  0.0324 -0.1542 -0.1256
   80RES   C19333531   4.022   7.538   0.234  0.3566  0.5815  0.4950
   80RES   C19433532   3.998   7.393   0.271  0.6685 -0.1125  0.3593
   80RES   C19533533   4.080   7.355   0.391  0.2478 -0.1257 -0.6087
   80RES   C19633534   4.063   7.213   0.431 -0.7990 -0.4170  0.0195
   80RES   C19733535   4.123   7.185   0.569 -0.2921  0.1770 -0.2808
   80RES   H19833536   4.063   7.551   7.665 -0.8189  2.6479 -0.5981
   80RES   H19933537   3.978   7.420   0.005 -0.1111  0.4846  1.0130
   80RES   H20033538   3.836   7.587   0.148  0.0569 -1.4872 -0.4751
   80RES   H20133539   4.018   7.609   0.316  0.5461  0.3014  0.7433
   80RES   H20233540   4.124   7.539   0.196 -0.0912  0.5384 -0.7508
   80RES   H20333541   4.033   7.330   0.190 -1.9245 -0.1458 -0.8024
   80RES   H20433542   3.894   7.369   0.292  0.6504 -1.3542 -1.0855
   80RES   H20533543   4.183   7.389   0.383  0.8538 -1.1050  2.3687
   80RES   H20633544   4.045   7.407   0.480  2.2292 -3.2856  2.1344
   80RES   H20733545   4.111   7.151   0.357 -2.2896 -1.2775 -0.2572
   80RES   H20833546   3.963   7.173   0.412  0.4237 -2.4911 -2.1965
   80RES   H20933547   4.227   7.218   0.564 -0.0231 -0.5657  0.2407
   80RES   H21033548   4.126   7.078   0.587 -1.8063  0.4525  1.7556
   80RES   H21133549   4.081   7.221   0.663  1.0981  1.0600  0.0304
   80RES   C21233550   3.967   0.024   0.092  0.0552  0.2703  0.1826
   80RES   C21333551   3.947   0.129   0.207 -0.0521 -0.2647  0.2249
   80RES   C21433552   3.996   0.268   0.164  0.0312  0.0078  0.7368
   80RES   C21533553   4.049   0.342   0.290  0.4506  0.0722  0.1557
   80RES   C21633554   4.123   0.468   0.254 -0.3276 -0.0010 -0.1846
   80RES   C21733555   4.137   0.569   0.371 -0.5177  0.3114  0.5023
   80RES   C21833556   4.185   0.498   0.500 -0.1817 -0.1287 -0.1814
   80RES   H21933557   3.918   0.051   7.725  1.2901 -0.3762 -0.6602
   80RES   H22033558   4.071   0.033   0.063 -0.4786 -1.0268 -2.2165
   80RES   H22133559   3.998   0.085   0.293 -2.1712 -0.2889  1.5209
   80RES   H22233560   4.084   0.266   0.099 -1.5116  0.1855 -1.4413
   80RES   H22333561   3.906   0.313   0.121  0.7768 -0.2191 -1.1290
   80RES   H22433562   4.107   0.274   0.352  0.9862 -1.1775 -1.6780
   80RES   H22533563   3.967   0.377   0.353 -0.3118 -0.8783 -0.2959
   80RES   H22633564   4.222   0.433   0.226 -1.2712 -1.8609 -1.3498
   80RES   H22733565   4.087   0.520   0.165 -0.3981 -0.3767 -0.3756
   80RES   H22833566   4.214   0.641   0.343 -0.8066 -0.6741 -3.0844
   80RES   H22933567   4.049   0.630   0.392  0.8597  2.3788  0.4478
   80RES   H23033568   4.194   0.571   0.580  1.6066 -0.0351 -0.4404
   80RES   H23133569   4.273   0.436   0.484  0.1459  0.2349  0.2259
   80RES   H23233570   4.105   0.432   0.532 -0.1058 -0.0656  0.1370
   80RES   C23333571   3.802   0.141   0.260 -0.0281  0.1267  0.3889
   80RES   C23433572   3.755   0.043   0.361  0.5045  0.0607 -0.3440
   80RES   C23533573   3.818   0.069   0.500 -1.2455  0.4864 -0.0471
   80RES   C23633574   3.812   7.663   0.579  0.1766  0.3137 -0.2090
   80RES   C23733575   3.883   7.664   0.709 -0.0668 -0.3929 -0.1846
   80RES   C23833576   3.900   7.521   0.770 -0.3571  0.0892  0.1925
   80RES   C23933577   3.996   7.503   0.894 -0.1765 -0.0139 -0.0959
   80RES   H24033578   3.735   0.151   0.174 -0.9402 -2.0920  0.8052
   80RES   H24133579   3.786   0.236   0.311  0.0570  1.0320 -1.2285
   80RES   H24233580   3.791   7.672   0.329  2.0240  0.0873  1.2212
   80RES   H24333581   3.773   0.156   0.548  1.6317  1.9735  0.0272
   80RES   H24433582   3.920   0.105   0.493 -0.8101 -0.5256  1.0634
   80RES   H24533583   3.847   7.575   0.524  1.1988  0.9151 -0.5376
   80RES   H24633584   3.710   7.646   0.612  0.5712  0.7889  1.3119
   80RES   H24733585   3.839   7.724   0.788  1.4300 -0.5927  0.8203
   80RES   H24833586   3.984   7.704   0.693 -0.4846  0.6613 -0.2200
   80RES   H24933587   3.817   7.455   0.794 -0.8400  0.3809 -0.6239
   80RES   H25033588   3.942   7.458   0.692 -0.3171 -0.5502  0.7358
   80RES   H25133589   4.094   7.550   0.885  0.1480 -0.5178  0.7128
   80RES   H25233590   3.956   7.547   0.985 -1.1560  2.4256 -1.6472
   80RES   H25333591   4.012   7.397   0.915 -3.2392 -0.6349 -0.6807
   80RES   C25433592   3.600   0.033   0.369  0.0808 -0.4606 -0.3736
   80RES   C25533593   3.551   7.626   0.300  0.1804 -0.2422 -0.1041
   80RES   C25633594   3.404   7.665   0.240  0.4766 -0.0202 -0.8030
   80RES   C25733595   3.303   7.676   0.359 -0.3895  0.1184 -0.3939
   80RES   C25833596   3.164   0.009   0.317  0.3705  0.5521  0.4670
   80RES   C25933597   3.096   0.072   0.440  0.7837  0.1684  0.1782
   80RES   C26033598   2.974   0.161   0.412 -0.5297 -0.4698  0.3338
   80RES   H26133599   3.550   0.121   0.328 -0.6104 -0.7944 -0.2514
   80RES   H26233600   3.566   0.028   0.473  2.3286 -0.8763  0.3750
   80RES   H26333601   3.618   7.610   0.216  3.2746  0.2575  2.1822
   80RES   H26433602   3.363   7.589   0.174 -1.0278  1.5819 -1.7353
   80RES   H26533603   3.407   0.031   0.182 -0.5449 -0.0933 -0.9750
   80RES   H26633604   3.290   7.597   0.432  1.9212  0.5154  0.4985
   80RES   H26733605   3.346   0.026   0.424  2.1126 -1.2109 -0.4443
   80RES   H26833606   3.096   7.662   0.275  0.2640  1.4863 -1.0574
   80RES   H26933607   3.173   0.088   0.243  0.9006  0.2128  0.1707
   80RES   H27033608   3.062   0.015   0.527 -1.9678  0.2187 -0.8294
   80RES   H27133609   3.176   0.128   0.487 -0.2221  2.0325 -0.2961
   80RES   H27233610   2.925   0.147   0.316 -0.5968  1.7733  0.0019
   80RES   H27333611   2.886   0.153   0.475  0.3341  0.8042  1.7322
   80RES   H27433612   3.009   0.264   0.421  1.2125 -0.8409 -1.5942
   80RES   C27533613   3.558   7.503   0.399 -0.4007 -0.7588 -0.4403
   80RES   C27633614   3.499   7.367   0.351  0.3504  0.6597  0.2189
   80RES   C27733615   3.495   7.256   0.454 -0.0666 -0.2383  0.3576
   80RES   C27833616   3.625   7.222   0.531  0.1107  0.7626  0.6313
   80RES   C27933617   3.605   7.099   0.627 -0.2424  0.5732  0.1342
   80RES   C28033618   3.738   7.057   0.694  0.5058  0.0336  0.6420
   80RES   C28133619   3.724   6.936   0.798 -0.1787 -0.1149 -0.4440
   80RES   H28233620   3.511   7.521   0.496  0.4905 -1.0039  0.0462
   80RES   H28333621   3.660   7.480   0.431 -0.7861 -0.6109  0.9588
   80RES   H28433622   3.395   7.397   0.339  0.2377  0.6955  1.2573
   80RES   H28533623   3.427   7.292   0.531 -1.9084 -0.1807 -1.2718
   80RES   H28633624   3.443   7.168   0.417  1.0470 -1.0201  0.6296
   80RES   H28733625   3.645   7.312   0.590  3.9955  0.1830  0.3286
   80RES   H28833626   3.713   7.198   0.473 -0.7084  0.9580 -0.7041
   80RES   H28933627   3.564   7.012   0.576 -1.7781  1.3972 -0.0501
   80RES   H29033628   3.530   7.129   0.701 -0.9030 -1.4610  0.3138
   80RES   H29133629   3.800   7.013   0.616 -1.1039  0.0124 -0.6606
   80RES   H29233630   3.796   7.137   0.739  0.1488  0.4133  0.4313
   80RES   H29333631   3.823   6.904   0.830  0.4295  2.2775  0.1320
   80RES   H29433632   3.672   6.843   0.775  1.3649 -1.2074  0.3951
   80RES   H29533633   3.673   6.980   0.884  0.1613  3.2240 -1.8800
   80RES   C29633634   3.570   7.323   0.219  0.3945 -0.1432 -0.3012
   80RES   C29733635   3.539   7.187   0.154  0.0404 -0.2420  0.3259
   80RES   C29833636   3.639   7.143   0.051 -0.4011  0.1161  0.1690
   80RES   C29933637   3.779   7.102   0.107 -0.0420  0.3427  0.1265
   80RES   C30033638   3.879   7.055   0.005 -0.4272  0.2406 -0.3217
   80RES   C30133639   4.018   7.038   0.064  0.6450 -0.5719  0.0873
   80RES   C30233640   4.139   7.031   7.694  0.3215  0.0976 -0.4853
   80RES   H30333641   3.558   7.399   0.141  1.2457 -0.6834 -0.9713
   80RES   H30433642   3.675   7.331   0.248  0.6425  1.4346 -1.5106
   80RES   H30533643   3.538   7.116   0.237 -2.1025  0.0153  0.5452
   80RES   H30633644   3.595   7.054   0.006 -0.2681  0.5848 -0.9088
   80RES   H30733645   3.658   7.211   7.694  0.7269 -0.7228 -0.2724
   80RES   H30833646   3.766   7.021   0.178  0.7568 -1.0624 -1.3046
   80RES   H30933647   3.827   7.185   0.159  0.7849 -0.5632  0.8375
   80RES   H31033648   3.890   7.136   7.659  0.2200  1.5267  1.1685
   80RES   H31133649   3.841   6.966   7.682 -1.2011  0.3241  0.1112
   80RES   H31233650   4.039   7.122   0.130  1.8384 -0.0743 -0.9036
   80RES   H31333651   4.020   6.945   0.120  0.8702 -0.9161 -0.4876
   80RES   H31433652   4.226   7.017   0.032  0.5682  3.0048 -0.0770
   80RES   H31533653   4.135   6.953   7.618 -1.2922 -0.9567  0.6540
   80RES   H31633654   4.144   7.128   7.643  0.7690  0.9525  1.1245
   80RES   C31733655   3.392   7.190   0.108 -0.0734 -0.4666  0.4310
   80RES   C31833656   3.326   7.068   0.040 -0.3400 -0.5782 -0.7166
   80RES   C31933657   3.346   6.935   0.113 -0.6165  1.0104  0.3087
   80RES   C32033658   3.278   6.914   0.246  0.0943  0.0293  0.3082
   80RES   C32133659   3.310   6.780   0.316  0.3721  0.0896 -0.3905
   80RES   C32233660   3.188   6.730   0.400  0.1566  0.0101  0.9701
   80RES   C32333661   3.085   6.664   0.298  0.3906  0.6661  0.2400
   80RES   H32433662   3.387   7.268   0.031 -3.4339 -0.2181  0.7961
   80RES   H32533663   3.321   7.227   0.182  0.9844  0.5123  0.9634
   80RES   H32633664   3.386   7.047   7.678 -0.4236 -1.8728 -0.4708
   80RES   H32733665   3.452   6.912   0.127 -0.9731 -0.9196 -0.0745
   80RES   H32833666   3.313   6.860   0.040 -1.6551 -0.4444  2.2272
   80RES   H32933667   3.171   6.932   0.232 -0.3852 -2.4535  0.5526
   80RES   H33033668   3.308   7.003   0.302 -0.0894 -0.2859  0.9146
   80RES   H33133669   3.390   6.798   0.388 -1.0981 -1.4232  1.6838
   80RES   H33233670   3.361   6.703   0.259  2.6573  2.7507 -2.0895
   80RES   H33333671   3.140   6.809   0.456 -0.7564  0.1575 -0.0008
   80RES   H33433672   3.223   6.653   0.469  0.2811 -0.0540  0.8380
   80RES   H33533673   2.983   6.653   0.336 -0.3477  2.3094 -1.1918
   80RES   H33633674   3.124   6.566   0.270  1.8634  1.6077 -1.0501
   80RES   H33733675   3.066   6.727   0.211 -0.2408  1.2714  0.8158
   80RES   C33833676   3.182   7.093   7.720 -0.1365  0.1879 -0.2061
   80RES   C33933677   3.097   6.974   7.663 -0.3675  0.0989 -0.4925
   80RES   C34033678   3.146   6.922   7.520 -0.2826  0.3254  0.1932
   80RES   C34133679   3.142   7.018   7.395 -0.2661  0.2267  0.4588
   80RES   C34233680   3.223   6.955   7.281  0.0345 -0.7088  0.5726
   80RES   C34333681   3.221   7.032   7.145 -0.0544 -0.0061  0.3191
   80RES   C34433682   3.321   6.975   7.041 -0.0588  0.0761 -0.1038
   80RES   H34533683   3.169   7.174   7.649 -1.4265 -2.7275 -3.4214
   80RES   H34633684   3.130   7.127   0.083 -1.3712 -0.4469 -0.6624
   80RES   H34733685   3.108   6.892   0.008 -2.3205  0.9451  0.8602
   80RES   H34833686   3.248   6.884   7.528  0.0375  0.9106 -0.9129
   80RES   H34933687   3.089   6.838   7.479 -0.3332  1.4832 -2.2100
   80RES   H35033688   3.168   7.121   7.420  0.4397  0.6300 -1.8282
   80RES   H35133689   3.039   7.033   7.364 -0.2857 -0.3589  0.2314
   80RES   H35233690   3.323   6.921   7.310  0.9189  1.9682  0.7909
   80RES   H35333691   3.177   6.859   7.257 -1.3862  0.8176 -3.2276
   80RES   H35433692   3.126   7.029   7.092 -0.4950  1.0599  1.0405
   80RES   H35533693   3.244   7.139   7.156 -1.0994  0.2603 -0.0621
   80RES   H35633694   3.292   6.870   7.040 -1.2258  0.3999 -0.5126
   80RES   H35733695   3.425   7.004   7.058  0.4569 -1.3735 -0.7350
   80RES   H35833696   3.303   7.019   6.943  2.1065  3.9259  1.1189
   80RES   C35933697   2.946   6.998   7.644 -0.8086 -0.7478  1.1721
   80RES   C36033698   2.864   7.025   0.044  0.3423  0.4966 -0.0955
   80RES   C36133699   2.739   7.110   0.019  0.6127  0.2730 -0.0754
   80RES   C36233700   2.635   7.045   7.652  0.0827 -0.0510 -0.3488
   80RES   C36333701   2.506   7.120   7.620  0.1770  0.5052  0.1009
   80RES   C36433702   2.414   7.058   7.518  0.4487 -0.3718  0.1326
   80RES   C36533703   2.325   7.157   7.437 -0.4193 -0.1097 -0.6774
   80RES   H36633704   2.897   6.924   7.581  0.4490 -0.2815 -0.3792
   80RES   H36733705   2.936   7.084   7.578  0.0871 -1.0979  0.5748
   80RES   H36833706   2.932   7.083   0.106  2.6475 -2.6050  0.4332
   80RES   H36933707   2.685   7.145   0.107 -0.1954 -0.0467 -0.4411
   80RES   H37033708   2.781   7.207   7.717 -0.8263  0.6027 -1.1351
   80RES   H37133709   2.678   7.009   7.559 -0.6733 -1.2994 -0.2370
   80RES   H37233710   2.594   6.957   7.703 -0.1220 -0.6144 -1.4807
   80RES   H37333711   2.445   7.141   7.708  0.8201  0.1642  0.6323
   80RES   H37433712   2.536   7.219   7.586 -1.6271  0.9841 -0.1281
   80RES   H37533713   2.480   7.014   7.443  1.3159  0.5049  0.3671
   80RES   H37633714   2.350   6.983   7.562 -0.8753  0.7965  0.2214
   80RES   H37733715   2.234   7.110   7.400 -1.5170  1.3226  0.1568
   80RES   H37833716   2.290   7.246   7.489 -0.1576 -0.1947 -0.3576
   80RES   H37933717   2.386   7.200   7.358  1.9811  1.0354  1.7288
   80RES   C38033718   2.826   6.901   0.136  0.2441 -0.3875  0.1077
   80RES   C38133719   2.767   6.944   0.273 -0.3732  0.4373  0.0032
   80RES   C38233720   2.693   6.827   0.350 -0.4598 -0.2172  0.6137
   80RES   C38333721   2.603   6.880   0.462  0.2396 -0.7988 -0.1695
   80RES   C38433722   2.508   6.785   0.537 -0.7089 -0.1988 -0.5657
   80RES   C38533723   2.428   6.689   0.446 -0.4443 -0.1394 -0.2297
   80RES   C38633724   2.334   6.598   0.528 -0.1057 -0.4392  0.7098
   80RES   H38733725   2.771   6.816   0.095 -2.5588  0.8563  1.2094
   80RES   H38833726   2.921   6.852   0.159 -1.2243 -2.5074  1.8369
   80RES   H38933727   2.678   7.004   0.258 -1.1323 -0.5768  0.3491
   80RES   H39033728   2.768   6.756   0.385 -0.8497 -1.0531 -0.2102
   80RES   H39133729   2.623   6.772   0.288  0.9825  0.0209 -1.2483
   80RES   H39233730   2.661   6.937   0.535  0.7708  0.2667 -1.4059
   80RES   H39333731   2.532   6.950   0.419  0.1551 -1.5007 -1.1967
   80RES   H39433732   2.563   6.734   0.616  0.7176  0.1979 -1.2761
   80RES   H39533733   2.445   6.853   0.596  1.0628  1.1255 -0.1524
   80RES   H39633734   2.497   6.624   0.391 -0.5091 -0.9519  0.6408
   80RES   H39733735   2.384   6.752   0.369 -1.5559  0.2223  0.7034
   80RES   H39833736   2.373   6.571   0.626 -1.8715 -2.8612  0.7983
   80RES   H39933737   2.308   6.506   0.476 -0.6085 -0.3631  0.8167
   80RES   H40033738   2.247   6.663   0.543 -0.4286 -0.0607 -2.5280
   80RES   C40133739   2.868   7.019   0.361 -0.2321 -0.7167 -0.2748
   80RES   C40233740   2.841   7.169   0.378 -0.0542 -0.1421 -0.6599
   80RES   C40333741   2.956   7.242   0.447  0.2181  0.4260 -0.0320
   80RES   C40433742   2.965   7.228   0.594  0.3726  0.7484  0.4279
   80RES   C40533743   3.058   7.322   0.671  0.2306 -0.1889 -0.0905
   80RES   C40633744   3.004   7.466   0.694  0.2903 -0.0113 -0.8043
   80RES   C40733745   3.110   7.557   0.766  0.2914  0.3586 -0.0457
   80RES   H40833746   2.967   6.998   0.321  0.4540 -0.7331  1.3863
   80RES   H40933747   2.878   6.969   0.457  1.2427  1.4289  0.7364
   80RES   H41033748   2.754   7.165   0.444 -0.9969 -0.7143 -1.9182
   80RES   H41133749   2.951   7.345   0.411  0.1006  0.7201  0.8245
   80RES   H41233750   3.046   7.199   0.404  0.2675 -0.3958  0.8925
   80RES   H41333751   2.988   7.129   0.633  2.1218  1.9483  2.5691
   80RES   H41433752   2.865   7.248   0.634  0.3338  0.8967  0.2549
   80RES   H41533753   3.103   7.269   0.755  1.7448 -1.8841 -1.9269
   80RES   H41633754   3.148   7.329   0.609  0.9190 -0.3919  0.8829
   80RES   H41733755   2.962   7.503   0.600 -1.2147  1.0460  0.2617
   80RES   H41833756   2.915   7.468   0.757 -0.1028 -0.5998 -1.3287
   80RES   H41933757   3.076   7.657   0.791  0.2970  0.0169  1.3723
   80RES   H42033758   3.200   7.556   0.704 -1.5200  1.3333 -2.7485
   80RES   H42133759   3.134   7.511   0.862  1.7998 -0.5084 -0.8074
   80RES   H42233760   2.823   7.213   0.280  0.0960 -2.3048 -1.7068
   81RES     C133761   2.721   1.149   1.433  0.4566 -0.2171  0.1756
   81RES     C233762   2.644   1.144   1.296 -0.6967  0.6698  0.0058
   81RES     C333763   2.725   1.059   1.192 -0.3012  0.4617 -0.0241
   81RES     C433764   2.733   0.909   1.223 -0.0207 -0.1786  0.4577
   81RES     C533765   2.855   0.845   1.150  0.1524 -0.7175 -0.2611
   81RES     C633766   2.859   0.692   1.154 -0.3833  0.0719  0.2352
   81RES     C733767   2.959   0.617   1.062  0.6897 -0.0114 -0.3694
   81RES     H833768   2.708   1.056   1.487  0.7490 -0.4224 -0.1059
   81RES     H933769   2.688   1.227   1.502  2.2817  1.7319 -1.0588
   81RES    H1033770   2.547   1.095   1.300 -0.6761  0.7707  2.4853
   81RES    H1133771   2.681   1.068   1.093 -1.7611 -2.3374  0.3106
   81RES    H1233772   2.825   1.101   1.187  1.0903 -2.8034 -1.0978
   81RES    H1333773   2.741   0.886   1.330  0.3786  3.5116  1.2788
   81RES    H1433774   2.643   0.864   1.183 -1.7526  2.2386  1.4817
   81RES    H1533775   2.941   0.904   1.182 -0.6885  1.4783 -1.9622
   81RES    H1633776   2.842   0.866   1.044 -2.5612  0.9998  0.3872
   81RES    H1733777   2.758   0.654   1.135  0.5180 -1.6167 -1.4049
   81RES    H1833778   2.892   0.658   1.253 -0.6290  1.2613  0.7296
   81RES    H1933779   2.964   0.510   1.085  1.4158  0.0982 -0.0086
   81RES    H2033780   3.060   0.657   1.070  1.1961 -1.7907  3.1568
   81RES    H2133781   2.918   0.616   0.961 -1.2089 -2.8290  0.3724
   81RES    H2233782   2.829   1.159   1.425  0.1469  2.0338 -1.6354
   81RES    C2333783   2.623   1.286   1.243  0.2163  0.2592  0.0837
   81RES    C2433784   2.515   1.379   1.316  0.5166 -0.5095 -0.3458
   81RES    C2533785   2.373   1.319   1.305  0.4363 -0.1174  0.0954
   81RES    C2633786   2.332   1.289   1.163 -0.2821  0.2345 -0.3478
   81RES    C2733787   2.182   1.251   1.154 -0.4264  0.8288 -0.1139
   81RES    C2833788   2.148   1.200   1.008  0.3147  0.8203  0.6110
   81RES    C2933789   2.002   1.150   0.994 -0.3891  0.0461  0.1267
   81RES    H3033790   2.717   1.335   1.219 -0.7535  1.4205 -1.3889
   81RES    H3133791   2.588   1.281   1.140  2.1748 -0.8341 -0.5502
   81RES    H3233792   2.542   1.382   1.421  1.4687 -0.3248 -0.5888
   81RES    H3333793   2.297   1.381   1.352  0.9661  0.3604  0.3166
   81RES    H3433794   2.366   1.222   1.355 -2.3356 -0.6568 -1.2180
   81RES    H3533795   2.393   1.207   1.124  0.9587  0.9407  0.0973
   81RES    H3633796   2.350   1.375   1.098  1.4695 -1.1172 -1.7388
   81RES    H3733797   2.126   1.338   1.189  0.7349  1.1066  1.0803
   81RES    H3833798   2.158   1.168   1.220  2.5320  1.9117  2.3991
   81RES    H3933799   2.216   1.118   0.984 -1.3022  0.3146 -2.4185
   81RES    H4033800   2.166   1.283   0.939  0.7808  0.7739  0.6782
   81RES    H4133801   1.990   1.059   1.054 -3.4502  0.7963  0.7242
   81RES    H4233802   1.927   1.222   1.027 -1.5184 -1.7337  1.6217
   81RES    H4333803   1.985   1.127   0.889 -0.6732 -0.1379  0.2128
   81RES    C4433804   2.533   1.529   1.274 -0.0680 -0.3628 -0.6893
   81RES    C4533805   2.664   1.600   1.299 -0.1427  0.1785 -0.0348
   81RES    C4633806   2.652   1.742   1.246  0.1540  0.1776  0.2773
   81RES    C4733807   2.539   1.826   1.309 -0.4166  0.1071  0.3764
   81RES    C4833808   2.559   1.974   1.275 -1.0963  0.4739  0.3760
   81RES    C4933809   2.455   2.071   1.325 -0.4248  0.0455  0.3415
   81RES    C5033810   2.454   2.207   1.260  0.1335  0.1151  0.5090
   81RES    H5133811   2.454   1.582   1.326  0.8476  0.6746 -0.3367
   81RES    H5233812   2.514   1.532   1.167 -1.7070  1.5605 -0.3635
   81RES    H5333813   2.738   1.550   1.236 -0.5003  0.0008 -0.3131
   81RES    H5433814   2.640   1.743   1.138 -2.1988  1.8865  0.5118
   81RES    H5533815   2.741   1.800   1.269  0.1666  1.1267 -2.0470
   81RES    H5633816   2.440   1.792   1.280 -0.5117  0.6684  0.0362
   81RES    H5733817   2.545   1.816   1.417 -0.8715 -1.2514  0.2808
   81RES    H5833818   2.569   1.986   1.167 -1.9153  1.2831  0.3815
   81RES    H5933819   2.654   2.008   1.316 -1.1426  0.1219  0.7767
   81RES    H6033820   2.457   2.094   1.431  1.1141  1.1853  0.0913
   81RES    H6133821   2.362   2.020   1.303 -0.3299  0.6091 -1.4641
   81RES    H6233822   2.554   2.246   1.238 -0.1938  0.0157 -1.2200
   81RES    H6333823   2.403   2.283   1.319 -1.8400 -0.9106  0.1329
   81RES    H6433824   2.406   2.199   1.163 -0.6084 -1.6499  1.0023
   81RES    C6533825   2.718   1.594   1.448  0.7092 -0.2055 -0.3470
   81RES    C6633826   2.871   1.572   1.451  0.8106 -0.2555 -0.1913
   81RES    C6733827   2.919   1.427   1.449 -0.2670  0.7193 -0.1100
   81RES    C6833828   3.065   1.407   1.399  0.1492  0.0097  0.3851
   81RES    C6933829   3.088   1.271   1.339 -0.2969  0.1255  0.1765
   81RES    C7033830   3.234   1.268   1.279  0.0598 -0.3981  0.4314
   81RES    C7133831   3.249   1.141   1.194 -0.3793  0.3769 -0.2676
   81RES    H7233832   2.676   1.675   1.508  0.2761 -0.2397 -0.5957
   81RES    H7333833   2.680   1.506   1.501  2.0712  1.5918  3.8648
   81RES    H7433834   2.908   1.627   1.365  2.6397  1.3693  1.5598
   81RES    H7533835   2.920   1.385   1.549  1.1673  2.3654  0.5784
   81RES    H7633836   2.846   1.372   1.389 -1.0382  2.2191 -0.5747
   81RES    H7733837   3.090   1.481   1.322 -0.5128 -2.6905 -2.5352
   81RES    H7833838   3.136   1.423   1.480 -1.1446 -0.6540  1.6645
   81RES    H7933839   3.069   1.200   1.420 -0.7746 -1.2713 -1.1533
   81RES    H8033840   3.010   1.249   1.266 -0.5858  1.1669  0.1750
   81RES    H8133841   3.296   1.270   1.368  0.9598 -0.3873 -0.1888
   81RES    H8233842   3.259   1.358   1.223  2.4289 -1.7823 -0.8295
   81RES    H8333843   3.356   1.127   1.178 -0.3824 -2.1726  1.5471
   81RES    H8433844   3.217   1.050   1.245 -0.5629  0.2731 -0.5669
   81RES    H8533845   3.201   1.148   1.097  2.0748 -1.0115 -1.6414
   81RES    C8633846   2.931   1.638   1.577  0.1874  0.5095  0.4616
   81RES    C8733847   2.932   1.794   1.562 -0.0942  0.1293  0.0352
   81RES    C8833848   2.887   1.856   1.693  0.9526  0.3480 -0.0152
   81RES    C8933849   2.736   1.869   1.712  0.8874 -0.6423 -0.9030
   81RES    C9033850   2.707   1.953   1.846  0.3847 -0.2968  0.4018
   81RES    C9133851   2.659   1.866   1.962  0.3102 -0.4741  0.2111
   81RES    C9233852   2.767   1.783   2.028 -0.1336  0.6988  0.0694
   81RES    H9333853   2.878   1.616   1.670  0.2958  1.0339  0.6509
   81RES    H9433854   3.036   1.613   1.586  0.2712  0.7508  0.1920
   81RES    H9533855   2.849   1.823   1.497  0.5815 -1.1115 -1.4068
   81RES    H9633856   2.936   1.823   1.784  0.5919 -0.9368 -0.2750
   81RES    H9733857   2.925   1.958   1.686  3.0103 -0.1852  2.8140
   81RES    H9833858   2.695   1.923   1.626 -0.6892 -0.8998 -0.3163
   81RES    H9933859   2.685   1.773   1.710  0.9701 -0.7021 -0.0582
   81RES   H10033860   2.628   2.024   1.820  1.2938  0.1097 -1.3267
   81RES   H10133861   2.786   2.022   1.875 -1.4416  1.8149  0.4889
   81RES   H10233862   2.599   1.923   2.033 -0.3733 -0.9674  0.0299
   81RES   H10333863   2.590   1.795   1.919  0.3643  0.7782 -2.0084
   81RES   H10433864   2.815   1.704   1.970  0.7079  1.1538  0.1364
   81RES   H10533865   2.730   1.729   2.115  0.5495 -2.2608 -1.4232
   81RES   H10633866   2.848   1.848   2.059 -0.3902  0.8702  0.3833
   81RES   C10733867   3.063   1.842   1.502 -0.3969  0.0480 -0.0216
   81RES   C10833868   3.091   1.985   1.459 -0.7157  0.8955  0.5306
   81RES   C10933869   3.229   1.987   1.382  0.7507 -0.0423 -0.1501
   81RES   C11033870   3.345   2.005   1.480 -0.6692  0.2260 -0.7432
   81RES   C11133871   3.376   2.152   1.500  0.0643  0.2457  0.8386
   81RES   C11233872   3.487   2.181   1.601  0.5283 -0.2811 -0.3958
   81RES   C11333873   3.614   2.098   1.567  0.0697 -0.1055 -0.0782
   81RES   H11433874   3.070   1.779   1.413  0.5702 -0.3362  0.3201
   81RES   H11533875   3.142   1.807   1.569  0.2544 -1.2848 -1.4665
   81RES   H11633876   3.095   2.055   1.542  0.8351  1.6563 -0.1543
   81RES   H11733877   3.244   2.044   1.290 -1.2673  0.1601 -0.3760
   81RES   H11833878   3.245   1.885   1.347 -0.9196 -0.3865  0.0515
   81RES   H11933879   3.334   1.955   1.576  0.2747 -2.1178 -1.8191
   81RES   H12033880   3.433   1.961   1.432  0.9563  1.5556  0.9786
   81RES   H12133881   3.288   2.202   1.540  0.4632  0.4054  1.5241
   81RES   H12233882   3.380   2.199   1.402  3.7851  0.4743  1.0274
   81RES   H12333883   3.518   2.285   1.609  0.0676 -0.1967  0.3265
   81RES   H12433884   3.459   2.153   1.703 -2.8988  1.3100 -0.8435
   81RES   H12533885   3.608   1.995   1.600 -0.4402  0.8259  2.9255
   81RES   H12633886   3.631   2.116   1.461  2.8358  3.4730  0.8721
   81RES   H12733887   3.701   2.135   1.621 -0.9568  2.1662  0.0934
   81RES   C12833888   2.983   2.032   1.356  0.0351  0.6910 -0.3418
   81RES   C12933889   2.998   2.188   1.315  0.5653  0.3357 -0.1474
   81RES   C13033890   2.946   2.271   1.434 -0.4719  0.1953 -0.4259
   81RES   C13133891   2.795   2.258   1.479 -0.5191  0.1056  0.6733
   81RES   C13233892   2.762   2.352   1.601 -0.2229 -0.3886  0.6321
   81RES   C13333893   2.608   2.384   1.623 -0.2566 -0.2791 -0.4161
   81RES   C13433894   2.547   2.264   1.698 -0.0571  0.5320  0.0199
   81RES   H13533895   3.003   1.963   1.275 -0.7382  2.5632 -2.1644
   81RES   H13633896   2.885   2.006   1.397  1.0063 -1.2332  0.8078
   81RES   H13733897   3.103   2.219   1.310  0.6536  0.1575  0.5659
   81RES   H13833898   2.976   2.375   1.424  2.9797 -0.7144 -0.2522
   81RES   H13933899   3.008   2.239   1.518 -0.3435  0.8329 -0.2797
   81RES   H14033900   2.776   2.157   1.517  0.9718 -0.0107  1.1432
   81RES   H14133901   2.734   2.289   1.394 -1.5511  2.0924  2.0846
   81RES   H14233902   2.816   2.446   1.590  0.5629 -1.0287 -1.0909
   81RES   H14333903   2.806   2.317   1.695  2.7484 -1.9459 -1.2580
   81RES   H14433904   2.560   2.404   1.528 -2.8430 -0.0649  0.8991
   81RES   H14533905   2.598   2.478   1.678  1.2804  1.4935 -3.0572
   81RES   H14633906   2.447   2.282   1.738  0.3695  1.2970  0.7536
   81RES   H14733907   2.606   2.239   1.786 -0.0362  0.3537 -0.0458
   81RES   H14833908   2.549   2.177   1.633 -0.5486 -0.6436  1.5402
   81RES   C14933909   2.920   2.222   1.185 -0.3291 -0.0443 -0.2106
   81RES   C15033910   2.959   2.354   1.120  0.6025 -0.0811  0.3817
   81RES   C15133911   2.847   2.403   1.030  0.0018  0.2856 -0.3818
   81RES   C15233912   2.787   2.308   0.918  0.1334 -0.1949 -0.0749
   81RES   C15333913   2.672   2.368   0.840  0.6063  0.7320 -0.1440
   81RES   C15433914   2.623   2.280   0.730 -0.5317  0.0321 -0.3456
   81RES   C15533915   2.528   2.342   0.629  0.5409 -0.4637 -0.3804
   81RES   H15633916   2.954   2.138   1.123 -0.0862  0.8088 -1.2532
   81RES   H15733917   2.813   2.211   1.203  0.0550 -2.2559  0.9406
   81RES   H15833918   2.969   2.420   1.205 -0.5721 -0.2299  0.6406
   81RES   H15933919   2.764   2.416   1.100  0.0619 -0.7153 -0.1083
   81RES   H16033920   2.871   2.503   0.995  1.1822  0.1746  0.0724
   81RES   H16133921   2.762   2.216   0.972 -0.2241 -0.3815 -0.5546
   81RES   H16233922   2.876   2.285   0.858 -0.2796 -2.7781  0.2148
   81RES   H16333923   2.707   2.461   0.797 -2.2498  1.0476 -1.9592
   81RES   H16433924   2.593   2.398   0.910  0.9672  1.0005  0.1457
   81RES   H16533925   2.577   2.188   0.766  0.7447 -0.9392 -1.1862
   81RES   H16633926   2.710   2.256   0.670 -0.5018 -0.7963  0.0194
   81RES   H16733927   2.500   2.268   0.555 -3.3878 -1.4505  1.9216
   81RES   H16833928   2.575   2.424   0.574 -0.3187 -0.1997 -0.7286
   81RES   H16933929   2.435   2.380   0.671  1.2872  1.4287 -0.3988
   81RES   C17033930   3.086   2.349   1.045 -0.4222 -0.2119  0.4483
   81RES   C17133931   3.139   2.489   1.001 -0.3011 -0.4566  0.4245
   81RES   C17233932   3.271   2.528   1.073  0.4034  0.6636  0.3967
   81RES   C17333933   3.258   2.530   1.228  0.4772 -0.0745  0.4695
   81RES   C17433934   3.395   2.569   1.288  0.0607  0.6517  0.1790
   81RES   C17533935   3.389   2.596   1.445 -0.1256 -0.8177  0.5076
   81RES   C17633936   3.512   2.652   1.510 -0.4687  0.1087 -0.2286
   81RES   H17733937   3.084   2.284   0.957 -2.4141 -0.5660  0.7365
   81RES   H17833938   3.167   2.302   1.102  0.4538 -0.6013 -1.0734
   81RES   H17933939   3.073   2.566   1.042  0.0918 -0.3858  0.9365
   81RES   H18033940   3.297   2.632   1.056  0.2990  0.9684  1.9921
   81RES   H18133941   3.351   2.464   1.037 -0.2398 -0.4047  0.8366
   81RES   H18233942   3.223   2.434   1.266 -1.2562  0.9540  1.5316
   81RES   H18333943   3.180   2.594   1.268  0.8102 -0.3142  1.5024
   81RES   H18433944   3.445   2.649   1.234 -0.4424  1.0786  0.3517
   81RES   H18533945   3.466   2.486   1.277 -0.1301  0.5159 -0.0385
   81RES   H18633946   3.345   2.523   1.513 -2.4851 -2.2093 -2.3935
   81RES   H18733947   3.315   2.675   1.455  0.9121  0.0265  1.6878
   81RES   H18833948   3.575   2.726   1.459  0.0358  0.1739  0.4891
   81RES   H18933949   3.584   2.571   1.518 -0.2450  0.2415 -0.8518
   81RES   H19033950   3.491   2.702   1.604 -0.2466  0.4221 -0.3429
   81RES   C19133951   3.156   2.519   0.847 -0.0834  0.1302  0.1060
   81RES   C19233952   3.144   2.673   0.821  0.3805 -0.2375  0.1788
   81RES   C19333953   3.251   2.727   0.719 -0.1117  0.5441 -0.3025
   81RES   C19433954   3.400   2.706   0.761 -0.0029 -0.0382  0.7737
   81RES   C19533955   3.493   2.802   0.686  0.0958 -0.2687  0.0295
   81RES   C19633956   3.514   2.783   0.532  0.6800 -0.8747 -0.3184
   81RES   C19733957   3.575   2.644   0.512 -0.2613 -0.2648 -0.2587
   81RES   H19833958   3.075   2.457   0.809  2.5826 -1.4073 -3.3108
   81RES   H19933959   3.242   2.472   0.800  0.9457  1.0644  1.0434
   81RES   H20033960   3.156   2.721   0.918 -0.5398  0.5001 -0.0658
   81RES   H20133961   3.235   2.834   0.704  0.8982  1.3318  3.6150
   81RES   H20233962   3.239   2.682   0.621 -0.4005  2.1355 -1.0155
   81RES   H20333963   3.421   2.601   0.745  0.5280  0.1599  0.1235
   81RES   H20433964   3.399   2.726   0.868  0.5642 -1.1353  0.9812
   81RES   H20533965   3.457   2.902   0.710  0.7079  0.0932 -0.5696
   81RES   H20633966   3.594   2.790   0.724 -0.1487  0.5552  0.9585
   81RES   H20733967   3.583   2.863   0.505 -1.8816  1.3490 -0.5181
   81RES   H20833968   3.421   2.799   0.477  0.3699 -0.0255  0.4412
   81RES   H20933969   3.581   2.632   0.404 -0.4458  0.8044 -0.3955
   81RES   H21033970   3.509   2.564   0.543 -1.1006  0.4753 -0.1147
   81RES   H21133971   3.668   2.640   0.569 -2.1104 -0.3562  2.8316
   81RES   C21233972   2.996   2.702   0.772 -0.3357  0.2570 -0.1629
   81RES   C21333973   2.921   2.827   0.821 -0.3688 -0.0009  0.2865
   81RES   C21433974   2.792   2.838   0.736  0.4196  0.1732  0.1144
   81RES   C21533975   2.723   2.973   0.749  0.2254  0.2877 -0.0919
   81RES   C21633976   2.630   3.004   0.629  0.9529 -0.3469 -0.1903
   81RES   C21733977   2.588   3.147   0.627 -0.0622  0.6828 -0.0224
   81RES   C21833978   2.489   3.184   0.507  0.0595  0.3164 -0.5842
   81RES   H21933979   2.931   2.617   0.792  0.9523 -0.2439  2.0236
   81RES   H22033980   2.999   2.694   0.663 -1.7773 -1.8130 -0.0909
   81RES   H22133981   2.992   2.906   0.796  0.5693 -2.0221 -3.8367
   81RES   H22233982   2.808   2.820   0.630  0.7303  1.1886 -0.0185
   81RES   H22333983   2.719   2.766   0.772 -0.5628  0.8664 -0.4585
   81RES   H22433984   2.800   3.050   0.751  0.3633  0.1487 -0.0325
   81RES   H22533985   2.677   2.974   0.848 -1.6088 -1.1822 -0.8929
   81RES   H22633986   2.681   2.980   0.536  0.5580  2.0654 -1.0602
   81RES   H22733987   2.545   2.936   0.638  1.6747 -1.2412 -0.0913
   81RES   H22833988   2.542   3.176   0.722  2.0930 -2.1136  1.9310
   81RES   H22933989   2.680   3.205   0.618  2.1934 -2.6257  1.1215
   81RES   H23033990   2.455   3.287   0.508  0.9358  0.6119 -0.4047
   81RES   H23133991   2.399   3.124   0.518  0.3561  0.0094  0.2423
   81RES   H23233992   2.538   3.166   0.411 -0.0101  0.9626 -0.7388
   81RES   C23333993   2.888   2.840   0.969  0.0763  0.2751  0.4627
   81RES   C23433994   2.908   2.979   1.036 -0.2201  0.2710 -0.9747
   81RES   C23533995   2.793   3.006   1.130  1.5612 -0.3056  0.0573
   81RES   C23633996   2.772   3.149   1.169  0.3479  0.0668 -0.4751
   81RES   C23733997   2.640   3.168   1.245  0.3691  1.8186 -0.0452
   81RES   C23833998   2.629   3.295   1.339  0.1798 -0.4893  0.0094
   81RES   C23933999   2.485   3.299   1.406 -0.3167  0.0468 -0.1231
   81RES   H24034000   2.959   2.770   1.012  2.5297  0.4446 -3.1150
   81RES   H24134001   2.790   2.799   0.994  0.8991 -2.5566 -0.7546
   81RES   H24234002   2.913   3.051   0.954  0.5579 -0.1918 -1.3435
   81RES   H24334003   2.795   2.944   1.220  2.7372  0.0217  0.2706
   81RES   H24434004   2.707   2.976   1.071  0.8659  2.7228 -0.5597
   81RES   H24534005   2.764   3.216   1.083 -0.1268  0.5991 -0.0218
   81RES   H24634006   2.858   3.186   1.225 -0.5450  0.7032  0.5030
   81RES   H24734007   2.614   3.079   1.302 -0.1815  2.3063  0.4658
   81RES   H24834008   2.568   3.182   1.165  0.6631  1.4384 -0.3830
   81RES   H24934009   2.705   3.307   1.416 -0.0113  0.6481  0.0379
   81RES   H25034010   2.625   3.389   1.283 -0.5277  0.1282  1.0645
   81RES   H25134011   2.413   3.299   1.324  1.7490  0.5587 -1.9797
   81RES   H25234012   2.459   3.207   1.459  2.0421 -0.9168 -0.5660
   81RES   H25334013   2.478   3.381   1.477 -1.0382 -0.9789  1.0138
   81RES   C25434014   3.040   2.981   1.116  0.3007  0.0153 -0.1998
   81RES   C25534015   3.169   3.022   1.029 -0.4792 -0.5554  0.4386
   81RES   C25634016   3.292   2.989   1.109  0.3977  0.7120  0.8186
   81RES   C25734017   3.424   3.014   1.030 -0.1727 -0.6557  0.1056
   81RES   C25834018   3.540   2.936   1.094 -0.5156  0.0146  0.1780
   81RES   C25934019   3.575   2.981   1.237 -0.0375  0.4440  0.7029
   81RES   C26034020   3.692   2.906   1.290  0.0383 -0.0342 -0.0151
   81RES   H26134021   3.063   2.885   1.162  1.2884 -0.3100 -1.3730
   81RES   H26234022   3.036   3.047   1.203  2.6081  1.0214 -0.8382
   81RES   H26334023   3.176   2.968   0.936  0.1457 -1.8584  1.2292
   81RES   H26434024   3.302   2.882   1.127  1.6442  0.8270  0.9040
   81RES   H26534025   3.288   3.049   1.200 -1.5650  2.1523 -0.1738
   81RES   H26634026   3.417   2.980   0.926 -0.1337  0.6705 -0.3449
   81RES   H26734027   3.450   3.118   1.011  1.2485 -0.9664  0.2347
   81RES   H26834028   3.625   2.955   1.029  1.9039 -1.3252  2.8365
   81RES   H26934029   3.513   2.831   1.095  0.7736 -0.3352 -0.9539
   81RES   H27034030   3.590   3.089   1.232 -0.9682  0.4834 -2.1093
   81RES   H27134031   3.490   2.972   1.304  0.5514  0.5056  1.4611
   81RES   H27234032   3.789   2.938   1.252  0.5134  0.0880  1.2840
   81RES   H27334033   3.683   2.907   1.399  0.2892 -0.0240  0.0045
   81RES   H27434034   3.670   2.802   1.269 -0.5742  0.7318 -3.4065
   81RES   C27534035   3.173   3.178   1.015 -0.2258  1.2434 -0.6476
   81RES   C27634036   3.123   3.241   0.881 -0.1872  0.0879 -0.5426
   81RES   C27734037   3.216   3.189   0.758  0.6659 -0.2268 -0.2972
   81RES   C27834038   3.126   3.169   0.635 -0.4647  1.1717 -0.3516
   81RES   C27934039   3.210   3.091   0.528  0.6823 -0.5746 -0.4397
   81RES   C28034040   3.137   3.074   0.395 -0.3821 -0.2901 -0.5382
   81RES   C28134041   3.018   2.986   0.404 -0.9536 -0.6529 -0.8839
   81RES   H28234042   3.276   3.212   1.023  0.4900 -0.5553 -1.8402
   81RES   H28334043   3.122   3.231   1.095 -1.7270 -2.4180  0.9411
   81RES   H28434044   3.022   3.204   0.864  0.1079 -0.4368 -1.1321
   81RES   H28534045   3.294   3.262   0.736  4.0017 -3.2745  0.9745
   81RES   H28634046   3.269   3.095   0.777 -0.6425 -0.4104  2.7447
   81RES   H28734047   3.110   3.268   0.594 -0.7064  0.8842 -0.9553
   81RES   H28834048   3.040   3.109   0.664  0.3043  0.5691  0.7312
   81RES   H28934049   3.230   2.994   0.573 -2.3719 -1.3659 -0.6617
   81RES   H29034050   3.304   3.143   0.511 -0.4948  0.7944 -3.1503
   81RES   H29134051   3.105   3.169   0.351 -0.5100  2.3306  4.8041
   81RES   H29234052   3.215   3.032   0.331 -1.1967 -0.7036 -1.2798
   81RES   H29334053   2.982   2.950   0.307  1.0760  0.2515 -1.9911
   81RES   H29434054   2.941   3.050   0.447  0.3096 -0.5702  1.3359
   81RES   H29534055   3.023   2.905   0.478 -1.0099 -1.3929 -1.6793
   81RES   C29634056   3.121   3.396   0.880  0.6430  0.3356  0.5247
   81RES   C29734057   2.998   3.465   0.946  0.8832  0.4797  0.1018
   81RES   C29834058   2.876   3.460   0.845  0.7321 -0.2763 -0.6779
   81RES   C29934059   2.743   3.482   0.923  0.2125  0.6328 -0.4358
   81RES   C30034060   2.620   3.453   0.832 -0.8978  0.3664  0.2015
   81RES   C30134061   2.490   3.511   0.893  0.0672 -0.3180  0.0766
   81RES   C30234062   2.456   3.466   1.032  0.0937 -0.1821  0.5381
   81RES   H30334063   3.209   3.431   0.934  2.2163  0.7236 -2.1958
   81RES   H30434064   3.128   3.433   0.778  1.7021  0.5970  0.6846
   81RES   H30534065   2.983   3.402   1.034 -0.6783  1.1296  0.3179
   81RES   H30634066   2.878   3.530   0.761 -1.0502  2.6881  1.6115
   81RES   H30734067   2.889   3.356   0.814  1.3806  0.2645 -2.2715
   81RES   H30834068   2.742   3.585   0.958  1.3933 -0.1973  2.1290
   81RES   H30934069   2.740   3.419   1.011  0.1167  0.5307 -0.5122
   81RES   H31034070   2.605   3.345   0.829 -0.5382  0.3578 -1.6779
   81RES   H31134071   2.631   3.484   0.728 -0.8305  1.2341  0.4645
   81RES   H31234072   2.500   3.618   0.876  1.5728 -0.5247 -0.4379
   81RES   H31334073   2.413   3.483   0.821 -0.2429  0.9062 -0.0679
   81RES   H31434074   2.504   3.534   1.102  0.6221  0.6837 -0.6520
   81RES   H31534075   2.351   3.482   1.057  0.1435 -2.5942  2.4377
   81RES   H31634076   2.477   3.362   1.057  2.5928 -0.0636 -0.8439
   81RES   C31734077   3.026   3.614   0.985 -0.2201 -0.0392 -0.8627
   81RES   C31834078   3.054   3.644   1.132 -0.4997 -0.4252  0.5315
   81RES   C31934079   3.120   3.781   1.162  0.0726 -0.0515  0.6129
   81RES   C32034080   3.260   3.811   1.103 -0.5841 -0.4793  0.4562
   81RES   C32134081   3.338   3.924   1.164 -0.3074 -0.3276 -0.0000
   81RES   C32234082   3.355   3.907   1.316  0.6176 -0.2688 -0.3789
   81RES   C32334083   3.461   4.005   1.369 -0.3141  0.2808  0.8477
   81RES   H32434084   2.953   3.688   0.952  0.2246  0.7452 -0.1247
   81RES   H32534085   3.107   3.656   0.926 -0.0035  0.8563  0.0502
   81RES   H32634086   3.139   3.582   1.160  0.8003  2.4813  3.2710
   81RES   H32734087   3.132   3.798   1.269  0.9999  1.9089  0.2191
   81RES   H32834088   3.054   3.865   1.140  0.8849  0.8692  1.7042
   81RES   H32934089   3.242   3.835   0.998 -1.1215 -1.7383  0.2523
   81RES   H33034090   3.311   3.716   1.118 -0.3640 -0.3346  0.6288
   81RES   H33134091   3.275   4.009   1.136  0.0725 -0.2428 -0.6147
   81RES   H33234092   3.434   3.927   1.110  0.4439  1.4289  1.3719
   81RES   H33334093   3.377   3.809   1.360 -0.4518  0.8848  2.9189
   81RES   H33434094   3.267   3.932   1.376  1.3207 -0.2154  0.6549
   81RES   H33534095   3.552   3.995   1.309 -0.0527 -0.2708  1.3354
   81RES   H33634096   3.493   3.975   1.469 -0.6673  1.0658  1.2035
   81RES   H33734097   3.424   4.108   1.374 -1.3678  0.0010 -0.8232
   81RES   C33834098   2.931   3.616   1.222 -0.0992 -0.1215 -0.3259
   81RES   C33934099   2.965   3.562   1.360 -0.0077 -0.6407 -0.5776
   81RES   C34034100   3.000   3.413   1.353 -0.3448  0.3509  0.1131
   81RES   C34134101   3.098   3.379   1.472 -0.2263 -0.1768 -0.4607
   81RES   C34234102   3.122   3.223   1.493  0.0879 -0.0199  0.1174
   81RES   C34334103   3.232   3.191   1.595 -0.4180  0.4829 -0.1803
   81RES   C34434104   3.254   3.041   1.623  1.0181  0.4985  0.4373
   81RES   H34534105   2.881   3.534   1.171  0.2429 -1.3944  1.3111
   81RES   H34634106   2.866   3.703   1.232  1.2274  0.7598  0.8226
   81RES   H34734107   3.048   3.621   1.398 -1.2997  0.7003  0.1859
   81RES   H34834108   2.910   3.351   1.359  1.0650 -1.5801  1.9092
   81RES   H34934109   3.052   3.387   1.261  0.3613 -0.5808  0.7680
   81RES   H35034110   3.058   3.424   1.563 -2.1958  1.7937 -2.2419
   81RES   H35134111   3.188   3.428   1.434  0.7978 -1.3301  0.4381
   81RES   H35234112   3.036   3.167   1.530  2.5432 -2.3760  2.4752
   81RES   H35334113   3.141   3.181   1.394 -1.2042  0.0256 -0.1700
   81RES   H35434114   3.325   3.237   1.562  0.2063  0.0533  0.9336
   81RES   H35534115   3.215   3.252   1.684  0.1453 -0.0895  0.3224
   81RES   H35634116   3.293   2.983   1.539  0.1955 -1.2528  1.2454
   81RES   H35734117   3.158   2.994   1.641  1.8460 -1.1779  0.5591
   81RES   H35834118   3.314   3.029   1.713  1.1319  0.1103  0.3100
   81RES   C35934119   2.841   3.571   1.452  0.2466 -0.2473  0.1079
   81RES   C36034120   2.802   3.696   1.523  1.5822 -0.0775  0.2524
   81RES   C36134121   2.650   3.702   1.565  0.7120  0.6117 -0.6602
   81RES   C36234122   2.544   3.753   1.462 -0.3002  0.6644 -0.8579
   81RES   C36334123   2.407   3.788   1.530 -0.0008 -0.1566  0.6722
   81RES   C36434124   2.300   3.818   1.430 -0.4204  0.3161  0.4441
   81RES   C36534125   2.249   3.696   1.354  0.1247  0.5639  0.8958
   81RES   H36634126   2.837   3.498   1.532 -0.1977 -0.8827 -0.4822
   81RES   H36734127   2.757   3.561   1.383  0.9271  2.5952 -1.2005
   81RES   H36834128   2.829   3.776   1.454  1.3777  0.4803  0.8109
   81RES   H36934129   2.615   3.603   1.595 -0.0723  1.3946  1.0513
   81RES   H37034130   2.627   3.758   1.655 -3.0872 -2.0888  0.1785
   81RES   H37134131   2.583   3.841   1.410 -1.3341  0.4378 -2.0330
   81RES   H37234132   2.543   3.664   1.399  2.9298 -0.0329 -0.0163
   81RES   H37334133   2.386   3.705   1.597  0.7385 -2.5388 -1.9390
   81RES   H37434134   2.428   3.877   1.589  0.3910  1.0892 -1.3029
   81RES   H37534135   2.213   3.856   1.483 -0.7723 -2.5985  2.0786
   81RES   H37634136   2.348   3.894   1.369  2.6288 -1.6189  0.2854
   81RES   H37734137   2.216   3.621   1.426  0.6748  1.3636  1.9922
   81RES   H37834138   2.162   3.733   1.299 -0.0094  0.2053  0.8672
   81RES   H37934139   2.314   3.635   1.291 -1.4981  0.8695 -1.1345
   81RES   C38034140   2.891   3.713   1.651  0.1817  0.9113  0.4135
   81RES   C38134141   2.907   3.849   1.725  0.5628  0.4193 -0.3151
   81RES   C38234142   2.951   3.828   1.875  0.2682  0.6552  0.3351
   81RES   C38334143   2.859   3.737   1.958 -0.1752  0.3716 -0.0799
   81RES   C38434144   2.892   3.753   2.108 -0.0218 -0.0969  0.3068
   81RES   C38534145   2.823   3.642   2.192  0.2098 -0.2004 -0.6593
   81RES   C38634146   2.878   3.499   2.174 -0.2586 -1.1388 -0.6537
   81RES   H38734147   2.857   3.636   1.719  1.6460  0.3216  0.4991
   81RES   H38834148   2.993   3.680   1.629  0.6428  3.4855 -1.6559
   81RES   H38934149   2.807   3.891   1.736 -0.5382 -2.5159  1.4974
   81RES   H39034150   2.950   3.923   1.928  0.8887  1.0090 -0.2706
   81RES   H39134151   3.052   3.787   1.871 -0.4230 -1.2848  2.0056
   81RES   H39234152   2.754   3.757   1.937 -0.3396 -1.2889 -0.9254
   81RES   H39334153   2.873   3.636   1.920 -0.8709  0.3110 -0.1924
   81RES   H39434154   3.000   3.757   2.123  0.0142  2.3503 -0.3332
   81RES   H39534155   2.857   3.848   2.149 -2.5885  0.7354 -3.5117
   81RES   H39634156   2.716   3.645   2.174  0.3162 -1.5026 -1.5942
   81RES   H39734157   2.834   3.676   2.295  1.5886 -0.9097 -0.5654
   81RES   H39834158   2.984   3.507   2.147 -0.9380  0.2187 -3.0649
   81RES   H39934159   2.819   3.447   2.099 -0.0907 -2.6244  0.2270
   81RES   H40034160   2.866   3.438   2.264 -0.5597  0.7297  0.6173
   81RES   C40134161   3.012   3.944   1.657 -0.4902 -0.4469  0.1906
   81RES   C40234162   2.964   4.025   1.537 -0.4153 -0.3909 -0.4085
   81RES   C40334163   2.818   4.078   1.549 -0.1667  0.6661  0.4123
   81RES   C40434164   2.789   4.190   1.429 -0.5804 -0.0733  1.1545
   81RES   C40534165   2.647   4.256   1.436  0.1073 -0.9230 -0.5550
   81RES   C40634166   2.532   4.164   1.399 -0.1815  0.6539  0.2145
   81RES   C40734167   2.399   4.227   1.422 -0.4247  0.7819  0.1433
   81RES   H40834168   3.102   3.889   1.629  1.4192  2.3492  0.7197
   81RES   H40934169   3.052   4.010   1.734  2.2298 -1.5622 -0.2102
   81RES   H41034170   2.986   3.966   1.447  0.3919 -2.7411  1.2607
   81RES   H41134171   2.811   4.133   1.643  0.9608  0.9252  0.3488
   81RES   H41234172   2.752   3.992   1.542  1.9386 -1.0449  0.9747
   81RES   H41334173   2.802   4.139   1.333  1.8655  3.2998 -0.3937
   81RES   H41434174   2.875   4.256   1.426  0.1969 -1.1056 -2.3599
   81RES   H41534175   2.626   4.286   1.539  1.3312  0.1978 -0.6047
   81RES   H41634176   2.643   4.351   1.381  1.0273  0.6716  2.0442
   81RES   H41734177   2.529   4.143   1.292 -0.2189 -3.5622  0.9695
   81RES   H41834178   2.534   4.065   1.445 -2.6997  0.5360  0.1312
   81RES   H41934179   2.380   4.311   1.354  0.5460  0.6649 -0.2725
   81RES   H42034180   2.384   4.259   1.525 -0.7228 -1.4887  0.8450
   81RES   H42134181   2.320   4.156   1.397  0.5119 -1.0116  2.1246
   81RES   H42234182   3.035   4.107   1.530 -0.0856 -0.7386 -1.1810
   82RES     C134183   7.079   6.471   0.330  0.3563 -0.5420 -0.1699
   82RES     C234184   7.165   6.521   0.453 -0.2427  0.0894  0.2754
   82RES     C334185   7.316   6.528   0.420 -0.1890  0.9493 -0.8005
   82RES     C434186   7.364   6.589   0.289 -0.3911  0.1288 -0.4194
   82RES     C534187   7.515   6.612   0.274  0.1873 -0.4308 -0.6026
   82RES     C634188   7.604   6.491   0.237 -0.1058 -0.1504  0.2939
   82RES     C734189   0.025   6.511   0.264 -0.7376 -0.1909  0.1107
   82RES     H834190   7.099   6.369   0.299  4.7316 -0.1010  0.8147
   82RES     H934191   7.107   6.521   0.238 -1.6335  1.6134  0.3444
   82RES    H1034192   7.133   6.622   0.481  1.2582  0.9262 -0.9382
   82RES    H1134193   7.346   6.591   0.504 -0.4412 -0.9239  0.7498
   82RES    H1234194   7.361   6.431   0.442 -0.7293  1.0282  0.6971
   82RES    H1334195   7.335   6.535   0.199 -0.8484  0.1064 -0.2577
   82RES    H1434196   7.310   6.683   0.278  1.1125  1.2539  1.3843
   82RES    H1534197   7.544   6.656   0.370 -0.3467  0.6420 -0.9217
   82RES    H1634198   7.549   6.695   0.212  3.1995 -1.1107  0.0583
   82RES    H1734199   7.592   6.460   0.133 -1.4456  2.6257 -0.4356
   82RES    H1834200   7.565   6.407   0.294  1.9451 -0.7425  0.8497
   82RES    H1934201   0.074   6.587   0.203  1.2615 -1.2486  0.3411
   82RES    H2034202   0.083   6.420   0.246 -2.8924 -2.1474  2.5773
   82RES    H2134203   0.058   6.542   0.363  0.1190 -0.0133 -0.2270
   82RES    H2234204   6.973   6.492   0.345  0.7208 -0.9248  3.5026
   82RES    C2334205   7.139   6.437   0.581  0.0003 -0.0649 -0.4363
   82RES    C2434206   7.166   6.518   0.715 -0.6069  0.5384 -0.3421
   82RES    C2534207   7.236   6.427   0.822 -0.3344 -0.7015  0.0820
   82RES    C2634208   7.156   6.314   0.879  0.0262  0.6735  0.8433
   82RES    C2734209   7.230   6.247   0.989  0.0922 -0.6903  0.1667
   82RES    C2834210   7.353   6.175   0.946 -0.0604  0.7432  0.4510
   82RES    C2934211   7.334   6.068   0.838 -0.6592  1.0882  0.0281
   82RES    H3034212   7.037   6.400   0.576  0.7660 -2.0962 -1.7624
   82RES    H3134213   7.195   6.345   0.562  0.5644  0.2477 -0.3170
   82RES    H3234214   7.240   6.597   0.702  1.3005 -0.9713  1.0885
   82RES    H3334215   7.276   6.484   0.905  0.8188 -0.8721 -0.3556
   82RES    H3434216   7.329   6.389   0.781  0.1762  0.0318  0.5594
   82RES    H3534217   7.125   6.245   0.800  2.8054  0.2372  0.0916
   82RES    H3634218   7.070   6.346   0.938  0.3325  0.1813  1.5593
   82RES    H3734219   7.157   6.186   1.043 -0.2761 -0.9154 -0.5844
   82RES    H3834220   7.258   6.323   1.062 -1.2103  2.0060 -2.0561
   82RES    H3934221   7.392   6.128   1.036  1.5372  2.8501  0.8928
   82RES    H4034222   7.439   6.239   0.925  0.4794  0.6187  2.2206
   82RES    H4134223   7.303   6.125   0.750  1.0880  1.4494 -0.3740
   82RES    H4234224   7.432   6.030   0.806 -1.9402 -2.6126  0.2839
   82RES    H4334225   7.264   5.994   0.876 -0.0483 -0.3051 -1.4790
   82RES    C4434226   7.037   6.589   0.773  0.4261  0.4702  0.3970
   82RES    C4534227   7.061   6.702   0.882 -0.2837  1.2724  0.4454
   82RES    C4634228   7.088   6.840   0.819  0.0357 -0.4573  0.3339
   82RES    C4734229   7.226   6.858   0.742  0.2208  0.0429 -0.4460
   82RES    C4834230   7.293   6.997   0.736  0.0740 -0.5182 -0.4194
   82RES    C4934231   7.192   7.097   0.680 -0.5973  0.1268  0.4701
   82RES    C5034232   7.270   7.230   0.672 -0.1437 -0.3224 -0.2168
   82RES    H5134233   6.974   6.512   0.817 -0.1428  0.3731 -0.5736
   82RES    H5234234   6.991   6.631   0.683 -0.1128  2.2540  1.4736
   82RES    H5334235   7.148   6.667   0.937 -0.8050  0.1442  0.5553
   82RES    H5434236   7.088   6.905   0.906  2.1449 -1.1615  0.8712
   82RES    H5534237   7.011   6.874   0.750  1.0811  1.4082  0.0490
   82RES    H5634238   7.301   6.792   0.786 -0.5911  0.3043  1.3933
   82RES    H5734239   7.211   6.818   0.642  2.2307 -0.4581 -0.5486
   82RES    H5834240   7.387   7.010   0.682  0.6407 -2.5330  0.0573
   82RES    H5934241   7.329   7.017   0.837 -2.0096 -0.3923  0.3291
   82RES    H6034242   7.118   7.129   0.753 -0.2488 -2.2203  1.8744
   82RES    H6134243   7.153   7.064   0.583  0.6740 -2.4424  0.7872
   82RES    H6234244   7.369   7.220   0.628 -0.1230  0.3561 -0.3289
   82RES    H6334245   7.281   7.275   0.771  0.0549 -2.2267  0.6452
   82RES    H6434246   7.207   7.291   0.607 -1.5587 -1.5669 -0.0610
   82RES    C6534247   6.929   6.721   0.967  0.0251 -0.1377  0.1067
   82RES    C6634248   6.946   6.647   1.100  0.1087 -0.3948  0.4720
   82RES    C6734249   6.814   6.643   1.177 -0.2655  0.0526  0.4268
   82RES    C6834250   6.696   6.566   1.111  0.0436 -0.0058  0.2708
   82RES    C6934251   6.562   6.579   1.187  0.7765 -0.1389 -0.1848
   82RES    C7034252   6.483   6.447   1.156 -0.4432  0.2174  0.0046
   82RES    C7134253   6.433   6.442   1.013 -0.2882 -0.3820  0.6925
   82RES    H7234254   6.912   6.823   1.000  1.1392  1.3515 -3.7277
   82RES    H7334255   6.840   6.690   0.912  0.7079 -0.2108 -0.9621
   82RES    H7434256   6.975   6.544   1.078  2.4754 -0.0749  1.8491
   82RES    H7534257   6.829   6.602   1.277 -0.3923 -2.2792 -0.4852
   82RES    H7634258   6.786   6.745   1.205 -0.4987  0.1705 -0.2451
   82RES    H7734259   6.676   6.598   1.009 -0.2006 -1.5393 -0.1755
   82RES    H7834260   6.737   6.466   1.099  0.6986  0.2144  0.6496
   82RES    H7934261   6.600   6.581   1.289  0.3736  0.2373 -0.0406
   82RES    H8034262   6.499   6.663   1.156 -0.5131 -1.3634 -0.9516
   82RES    H8134263   6.395   6.449   1.220 -0.3438 -0.9310  0.1868
   82RES    H8234264   6.543   6.359   1.178 -1.2407 -0.9204 -2.1894
   82RES    H8334265   6.502   6.442   0.929 -1.1942  0.3843 -0.0539
   82RES    H8434266   6.374   6.352   0.998 -0.3029 -0.4487  1.1267
   82RES    H8534267   6.360   6.521   0.995 -0.3832 -0.8656 -1.0649
   82RES    C8634268   7.059   6.692   1.195 -1.1803 -0.0981  0.6169
   82RES    C8734269   7.157   6.587   1.261  0.1652  0.0582  0.3980
   82RES    C8834270   7.295   6.652   1.289  0.0950  0.1293 -0.9698
   82RES    C8934271   7.387   6.671   1.167  0.6112 -0.5531  0.1216
   82RES    C9034272   7.517   6.743   1.198 -0.1585  0.5687  0.3086
   82RES    C9134273   7.614   6.673   1.295 -0.4397  0.7512  0.4019
   82RES    C9234274   0.013   6.755   1.306  0.4728 -0.3422 -0.7093
   82RES    H9334275   7.125   6.765   1.147 -1.4633  0.0301  0.4222
   82RES    H9434276   7.013   6.755   1.272  0.2725  0.4386  1.0662
   82RES    H9534277   7.163   6.501   1.194 -0.4647 -0.1593  0.6191
   82RES    H9634278   7.279   6.748   1.338  0.8768 -0.0387 -0.3607
   82RES    H9734279   7.355   6.592   1.358 -0.7633 -0.5491 -0.8058
   82RES    H9834280   7.395   6.579   1.109 -0.5893  0.7452 -2.1301
   82RES    H9934281   7.327   6.735   1.102 -1.0073 -0.9046  1.2416
   82RES   H10034282   7.509   6.845   1.235 -1.8764 -0.6414  3.4631
   82RES   H10134283   7.557   6.742   1.096 -0.7865  0.4771  0.0572
   82RES   H10234284   7.569   6.659   1.393  0.3273 -0.0386  0.6507
   82RES   H10334285   7.623   6.570   1.258  1.5351  0.5564  1.3847
   82RES   H10434286   0.080   6.718   1.383 -0.4734  0.5354  0.5500
   82RES   H10534287   7.713   6.858   1.328  0.0684 -0.5298 -0.3376
   82RES   H10634288   0.064   6.756   1.209  1.2247 -1.1526 -0.3281
   82RES   C10734289   7.093   6.556   1.396 -0.9902 -0.4469  0.3882
   82RES   C10834290   7.140   6.425   1.465  0.5763 -0.3147 -0.9087
   82RES   C10934291   7.096   6.432   1.615 -0.0695  0.1577  0.4259
   82RES   C11034292   7.194   6.521   1.702  0.4003  0.8198  0.1549
   82RES   C11134293   7.137   6.559   1.839 -0.1933  0.3484  0.1860
   82RES   C11234294   7.211   6.681   1.893 -0.0374 -0.2768 -0.6071
   82RES   C11334295   7.152   6.725   2.027 -0.3283 -0.6565 -0.5306
   82RES   H11434296   6.988   6.547   1.370 -0.5846  0.7574 -1.7516
   82RES   H11534297   7.093   6.648   1.453  1.4631  0.8517 -1.6094
   82RES   H11634298   7.249   6.427   1.474  0.3735  0.6271  1.7516
   82RES   H11734299   7.079   6.332   1.653  0.3332 -0.1569 -0.2151
   82RES   H11834300   7.000   6.483   1.623 -0.8320 -1.0529 -0.8189
   82RES   H11934301   7.290   6.472   1.713  0.1083 -0.2791 -1.9005
   82RES   H12034302   7.221   6.614   1.652 -2.1891  1.9751  0.7883
   82RES   H12134303   7.162   6.474   1.902  0.8708  1.7493  1.7075
   82RES   H12234304   7.028   6.567   1.835 -0.1121  0.9852 -0.8366
   82RES   H12334305   7.317   6.665   1.912  0.4840  4.2393  0.9379
   82RES   H12434306   7.218   6.767   1.827 -0.3368 -1.0913 -1.7130
   82RES   H12534307   7.136   6.638   2.091 -0.9156  1.3552  2.1722
   82RES   H12634308   7.207   6.806   2.076 -0.3332  0.2285 -1.9733
   82RES   H12734309   7.055   6.760   1.990 -1.1063 -0.3163  1.6825
   82RES   C12834310   7.097   6.302   1.385 -0.3863 -0.0975  0.1708
   82RES   C12934311   7.160   6.163   1.428 -0.0645  0.0291  0.6619
   82RES   C13034312   7.306   6.163   1.375  0.3119 -0.3445 -0.2279
   82RES   C13134313   7.393   6.060   1.448  0.1637  0.5262 -0.7631
   82RES   C13234314   7.542   6.099   1.452  0.0197  0.1730 -0.5369
   82RES   C13334315   7.620   6.084   1.321 -0.9323  0.6424  0.2461
   82RES   C13434316   0.048   6.102   1.327 -0.1101  0.1580  0.0776
   82RES   H13534317   6.988   6.292   1.389 -0.7579  2.3081 -2.3591
   82RES   H13634318   7.104   6.317   1.278  0.8654  0.0900  0.2769
   82RES   H13734319   7.153   6.164   1.537  0.6433  0.2508  0.7119
   82RES   H13834320   7.354   6.261   1.377 -0.6924  0.1428  0.9274
   82RES   H13934321   7.302   6.131   1.271  1.9662  1.1482 -0.7671
   82RES   H14034322   7.381   5.959   1.407  1.4443  0.1091 -0.1228
   82RES   H14134323   7.363   6.044   1.551  2.4226  0.8434 -0.0356
   82RES   H14234324   7.594   6.034   1.523 -0.6844 -0.4649 -0.6027
   82RES   H14334325   7.540   6.202   1.487  1.2337 -0.4358  1.4181
   82RES   H14434326   7.573   6.150   1.248 -0.3670  2.3313  1.3814
   82RES   H14534327   7.605   5.984   1.281 -0.4922  0.1043  1.3957
   82RES   H14634328   0.094   6.027   1.392  0.2220  0.3391  0.0525
   82RES   H14734329   0.067   6.199   1.372 -0.5579  0.6909 -0.8654
   82RES   H14834330   0.095   6.099   1.228 -2.1550 -1.7655 -0.8890
   82RES   C14934331   7.084   6.037   1.385  0.4508  0.0508  0.8152
   82RES   C15034332   7.057   5.935   1.491  0.5260  0.3813  0.1999
   82RES   C15134333   7.041   5.791   1.431 -0.2317 -0.1393  0.1175
   82RES   C15234334   6.923   5.771   1.334 -0.7750 -0.3872 -0.1697
   82RES   C15334335   6.933   5.637   1.251 -0.1178 -0.3712 -0.5065
   82RES   C15434336   6.802   5.612   1.173  0.5454 -0.5236  0.1637
   82RES   C15534337   6.796   5.463   1.117 -0.3529  0.1620  0.5635
   82RES   H15634338   6.989   6.073   1.345  0.3070  2.1733  2.9056
   82RES   H15734339   7.133   5.990   1.300 -3.1523 -2.6065  0.0642
   82RES   H15834340   7.147   5.928   1.553 -0.9680 -0.2036  2.3681
   82RES   H15934341   7.122   5.767   1.363 -0.6099 -2.3099  0.3923
   82RES   H16034342   7.038   5.713   1.507 -0.7600 -0.8937 -0.6751
   82RES   H16134343   6.920   5.857   1.267  2.0030  0.2700  0.4762
   82RES   H16234344   6.829   5.772   1.389 -0.1668 -1.3434  0.9005
   82RES   H16334345   6.952   5.552   1.315 -0.9319 -0.3317 -0.2050
   82RES   H16434346   7.023   5.635   1.190  0.8068 -1.4225  0.8975
   82RES   H16534347   6.793   5.683   1.092 -3.8869 -0.3117  0.7129
   82RES   H16634348   6.722   5.630   1.245  0.7926 -0.9793  0.5547
   82RES   H16734349   6.694   5.455   1.079 -0.2140 -0.4370  0.3056
   82RES   H16834350   6.812   5.382   1.187  0.2300 -0.4479 -0.2591
   82RES   H16934351   6.854   5.435   1.029 -1.7696 -0.8382 -0.0665
   82RES   C17034352   6.935   5.976   1.577 -0.3557  0.2520  0.1353
   82RES   C17134353   6.904   5.891   1.706 -0.1704  0.4987  0.8845
   82RES   C17234354   7.026   5.885   1.803 -0.1948 -0.0752 -0.4902
   82RES   C17334355   7.103   6.012   1.840  0.9190  0.2449 -0.1692
   82RES   C17434356   7.207   5.984   1.952  0.5096  0.6704 -0.1008
   82RES   C17534357   7.291   6.094   2.004  0.2342  0.6228 -0.1942
   82RES   C17634358   7.200   6.207   2.066 -0.5621 -0.0514  0.1146
   82RES   H17734359   6.852   5.973   1.507 -0.8529 -2.7604  0.7881
   82RES   H17834360   6.939   6.081   1.608 -3.7590  1.0691 -1.9149
   82RES   H17934361   6.885   5.790   1.668  0.0710  1.5484 -2.2033
   82RES   H18034362   7.098   5.823   1.750 -0.9106  1.6351 -3.5871
   82RES   H18134363   6.997   5.835   1.896  2.0150 -0.8377 -0.1937
   82RES   H18234364   7.045   6.096   1.878  1.7357 -0.4407  2.7103
   82RES   H18334365   7.158   6.042   1.750  0.5427 -2.4894 -1.3390
   82RES   H18434366   7.274   5.906   1.915 -1.5439 -1.1085 -0.2144
   82RES   H18534367   7.160   5.930   2.035  1.9602  0.2521  0.4591
   82RES   H18634368   7.361   6.140   1.934 -0.8262  0.0851 -1.6457
   82RES   H18734369   7.360   6.066   2.083 -1.3095  1.2381  1.4047
   82RES   H18834370   7.253   6.292   2.109  0.4022  0.7803 -2.6267
   82RES   H18934371   7.137   6.163   2.143  1.2668 -1.3326  0.9184
   82RES   H19034372   7.135   6.255   1.993 -2.0003 -1.9334  0.1000
   82RES   C19134373   6.779   5.940   1.783  0.0994  0.0655  0.2110
   82RES   C19234374   6.714   5.844   1.883  0.6377  0.0064  0.3651
   82RES   C19334375   6.692   5.913   2.021  0.1463 -0.0281 -0.2528
   82RES   C19434376   6.823   5.921   2.094 -0.4833 -0.1731 -0.2941
   82RES   C19534377   6.806   5.973   2.238  0.7822  0.4743 -0.6845
   82RES   C19634378   6.935   5.993   2.324  0.4673 -0.5615  0.4216
   82RES   C19734379   6.994   5.857   2.340 -0.5011  0.1172  0.1190
   82RES   H19834380   6.710   5.980   1.708 -0.6570  0.0236  0.8683
   82RES   H19934381   6.796   6.027   1.846 -1.3330 -1.3373  2.6356
   82RES   H20034382   6.785   5.762   1.898  0.4086 -0.5570 -1.5133
   82RES   H20134383   6.615   5.859   2.077  0.3576 -0.1784 -0.1026
   82RES   H20234384   6.645   6.010   2.010  0.4656  0.3558  1.6866
   82RES   H20334385   6.903   5.975   2.043 -0.1437  0.6628  1.0864
   82RES   H20434386   6.859   5.818   2.099 -4.1549 -1.4365  2.2179
   82RES   H20534387   6.756   6.069   2.231 -1.9126 -0.7538  0.8227
   82RES   H20634388   6.738   5.907   2.293 -0.2822  0.9345 -1.4398
   82RES   H20734389   6.914   6.044   2.418 -0.5025  0.0672 -0.1223
   82RES   H20834390   7.011   6.056   2.278  0.3769 -0.1170  0.8822
   82RES   H20934391   7.056   5.826   2.256 -1.4574 -1.9455  0.1343
   82RES   H21034392   6.933   5.770   2.366  1.5427 -2.0548 -1.9938
   82RES   H21134393   7.059   5.856   2.427  1.7656 -2.5903 -1.5056
   82RES   C21234394   6.573   5.789   1.832 -0.0781 -0.0732 -0.3962
   82RES   C21334395   6.575   5.725   1.693 -0.3384 -0.2274  0.0243
   82RES   C21434396   6.645   5.588   1.692 -0.3755 -0.2736  0.2515
   82RES   C21534397   6.690   5.523   1.554 -0.0811  0.0596  0.1339
   82RES   C21634398   6.784   5.403   1.555  0.2771  0.2668  0.4114
   82RES   C21734399   6.906   5.422   1.637 -0.0641 -0.5695 -0.5336
   82RES   C21834400   7.003   5.310   1.637 -0.2755  0.6915 -0.1044
   82RES   H21934401   6.496   5.866   1.836 -0.7300 -0.7741  1.0531
   82RES   H22034402   6.523   5.716   1.895  0.5932 -0.8854 -0.7895
   82RES   H22134403   6.621   5.788   1.617 -0.8258 -1.2635 -1.1495
   82RES   H22234404   6.740   5.594   1.746  1.6492 -0.6881 -3.0858
   82RES   H22334405   6.578   5.516   1.738  1.1965 -0.4592  2.3281
   82RES   H22434406   6.735   5.612   1.511 -0.6521  0.1857 -0.2165
   82RES   H22534407   6.607   5.498   1.487  0.2908  0.4934 -0.4903
   82RES   H22634408   6.737   5.311   1.589 -0.8730  0.9249  0.6084
   82RES   H22734409   6.798   5.377   1.450 -1.2422 -1.5583  0.6152
   82RES   H22834410   6.946   5.521   1.619 -1.2997  0.0326 -0.0272
   82RES   H22934411   6.864   5.436   1.736  0.5472 -1.9471 -0.0682
   82RES   H23034412   7.080   5.318   1.713 -2.7508 -0.4737  2.6057
   82RES   H23134413   7.050   5.289   1.541 -0.6899 -0.9318  0.0407
   82RES   H23234414   6.945   5.221   1.662  1.0354  0.5097  2.4808
   82RES   C23334415   6.435   5.700   1.637 -0.5536 -0.2920 -0.3141
   82RES   C23434416   6.369   5.810   1.563  0.6438  0.0926 -0.3233
   82RES   C23534417   6.438   5.844   1.429 -0.8268  0.1028 -0.4920
   82RES   C23634418   6.426   6.000   1.385  0.1256  1.1301 -0.5680
   82RES   C23734419   6.489   6.040   1.251  1.0599 -0.5692 -0.0316
   82RES   C23834420   6.638   6.054   1.262  0.0524 -0.1488 -0.1444
   82RES   C23934421   6.719   6.073   1.136 -0.4160  0.3584 -0.0297
   82RES   H24034422   6.374   5.665   1.720 -0.6699  0.6279 -0.0079
   82RES   H24134423   6.438   5.610   1.574  1.4769 -1.0536  0.8388
   82RES   H24234424   6.375   5.901   1.624  1.2232  0.6305 -1.1742
   82RES   H24334425   6.400   5.780   1.349  0.6992 -2.6998  0.9638
   82RES   H24434426   6.544   5.819   1.430 -1.2504 -1.7896 -0.9065
   82RES   H24534427   6.473   6.054   1.467 -0.2443 -0.3295  0.6235
   82RES   H24634428   6.321   6.027   1.386 -0.4425 -0.9492 -1.0457
   82RES   H24734429   6.449   6.136   1.220 -0.4096 -0.6790  1.4001
   82RES   H24834430   6.465   5.964   1.176 -0.3462  0.2479 -0.4334
   82RES   H24934431   6.662   6.134   1.332 -0.2279 -0.5005  0.3578
   82RES   H25034432   6.669   5.972   1.328  0.7666  0.3389  0.1396
   82RES   H25134433   6.686   6.004   1.058  2.5155 -1.3996  0.2324
   82RES   H25234434   6.690   6.173   1.106  0.2194  1.1340  1.8914
   82RES   H25334435   6.826   6.055   1.134 -0.5362 -0.4506  0.7582
   82RES   C25434436   6.212   5.780   1.537 -0.1153 -0.0717  0.3491
   82RES   C25534437   6.116   5.803   1.654 -0.4781 -0.1214  0.6535
   82RES   C25634438   5.996   5.706   1.653 -0.7981  0.7010  0.1887
   82RES   C25734439   5.908   5.719   1.534 -0.6540  0.1829  0.3068
   82RES   C25834440   5.790   5.621   1.542  0.2893  0.5381  0.1949
   82RES   C25934441   5.702   5.621   1.418  0.5547 -0.7803 -0.8325
   82RES   C26034442   5.760   5.527   1.309 -0.3921 -0.1129 -0.0966
   82RES   H26134443   6.208   5.674   1.513  1.7442 -0.1940  0.4933
   82RES   H26234444   6.181   5.841   1.452 -0.6373  2.5255  2.3189
   82RES   H26334445   6.168   5.775   1.745 -1.1902  0.4736  1.2521
   82RES   H26434446   5.932   5.713   1.741 -1.2519 -1.7171  0.0600
   82RES   H26534447   6.036   5.606   1.668 -1.7393  0.0877 -1.2780
   82RES   H26634448   5.882   5.824   1.516  0.9808  0.4037 -0.8324
   82RES   H26734449   5.974   5.707   1.448  1.8816  0.3309  2.1488
   82RES   H26834450   5.731   5.643   1.631 -0.8393 -0.2208 -0.3370
   82RES   H26934451   5.827   5.522   1.567  1.6512  0.6800 -1.2273
   82RES   H27034452   5.612   5.578   1.463  0.3805 -0.3209 -0.7424
   82RES   H27134453   5.686   5.722   1.380  1.9314 -1.7123 -4.0469
   82RES   H27234454   5.684   5.505   1.234 -1.6711 -0.2098  1.1949
   82RES   H27334455   5.850   5.565   1.262 -0.0172 -1.4561 -0.4820
   82RES   H27434456   5.793   5.436   1.359  2.1360  0.1185 -1.2664
   82RES   C27534457   6.079   5.964   1.656 -0.1382  0.0561  0.6846
   82RES   C27634458   6.029   6.028   1.788 -0.0896  0.0192 -0.1115
   82RES   C27734459   6.129   6.024   1.903  0.6312 -0.0032 -0.0511
   82RES   C27834460   6.244   6.122   1.893 -0.1833  0.2501  0.1167
   82RES   C27934461   6.335   6.143   2.020 -0.0968  0.0993 -0.0692
   82RES   C28034462   6.254   6.199   2.147 -0.2736 -0.4033 -0.2230
   82RES   C28134463   6.351   6.221   2.261 -0.0806 -0.1965 -0.4643
   82RES   H28234464   5.999   5.972   1.583  0.3937 -2.9727 -0.3193
   82RES   H28334465   6.168   6.023   1.633  0.6197 -0.9606  1.0006
   82RES   H28434466   6.016   6.132   1.756 -1.1312  0.0120  0.2581
   82RES   H28534467   6.079   6.066   1.990 -1.5124 -1.8987 -0.3469
   82RES   H28634468   6.156   5.921   1.926  0.7505 -0.0969 -0.6226
   82RES   H28734469   6.205   6.221   1.870 -1.4915 -0.8711 -2.6942
   82RES   H28834470   6.300   6.095   1.804 -2.4259 -1.9170 -0.6975
   82RES   H28934471   6.423   6.203   1.999  1.1110 -1.9777 -1.0325
   82RES   H29034472   6.394   6.055   2.044  0.5192 -0.3269 -3.0493
   82RES   H29134473   6.210   6.296   2.124 -1.1040 -0.6769  0.2079
   82RES   H29234474   6.172   6.136   2.180 -0.7788  0.3678  0.0105
   82RES   H29334475   6.297   6.257   2.348  1.4243 -0.5995  0.6744
   82RES   H29434476   6.431   6.292   2.240 -0.8516  0.8973  0.2601
   82RES   H29534477   6.400   6.126   2.284  1.0258  0.6073  0.5675
   82RES   C29634478   5.889   5.985   1.839 -0.0150  0.1715  0.2617
   82RES   C29734479   5.800   6.082   1.909 -0.8894 -0.4303  0.1205
   82RES   C29834480   5.740   6.026   2.041 -0.8253  0.0204 -0.2696
   82RES   C29934481   5.850   5.958   2.138 -0.0680  0.7266 -0.3495
   82RES   C30034482   5.785   5.904   2.260  0.6310  0.2271  0.0305
   82RES   C30134483   5.874   5.862   2.382  0.0684 -1.0614 -0.3049
   82RES   C30234484   5.936   5.985   2.450  0.4574 -0.4253  0.6382
   82RES   H30334485   5.839   5.953   1.747  0.0970  2.8110 -0.7623
   82RES   H30434486   5.901   5.893   1.896  2.1735  1.2936  1.6470
   82RES   H30534487   5.859   6.166   1.945  1.3731 -1.8232 -0.2899
   82RES   H30634488   5.693   6.107   2.097  0.8966  1.3242 -0.6704
   82RES   H30734489   5.659   5.955   2.031 -1.4522  0.6520  0.3100
   82RES   H30834490   5.921   6.026   2.186 -1.0461  1.3460  0.2267
   82RES   H30934491   5.915   5.884   2.091 -0.4148 -0.2088  0.6128
   82RES   H31034492   5.720   5.826   2.223  2.8589 -1.5288 -0.3132
   82RES   H31134493   5.728   5.990   2.295 -1.2165 -1.7182  1.8343
   82RES   H31234494   5.820   5.803   2.456  0.1087  0.4615  0.9863
   82RES   H31334495   5.955   5.790   2.372  2.3611  1.3115  0.3411
   82RES   H31434496   6.018   6.026   2.390 -0.3509  2.5378  1.4426
   82RES   H31534497   5.856   6.054   2.476 -0.2810 -0.9385 -0.2614
   82RES   H31634498   5.977   5.948   2.544 -0.3402 -2.4818  0.1836
   82RES   C31734499   5.680   6.135   1.823  0.0347 -0.1123 -0.2469
   82RES   C31834500   5.705   6.196   1.677 -0.4714  0.0804 -0.3067
   82RES   C31934501   5.572   6.180   1.593  0.2823 -0.1841 -0.1777
   82RES   C32034502   5.552   6.037   1.537  0.0518  0.6327 -0.2247
   82RES   C32134503   5.429   6.021   1.444  0.7473  0.0869  0.0350
   82RES   C32234504   5.404   5.879   1.389  0.0481 -0.0646  0.1641
   82RES   C32334505   5.266   5.862   1.322  0.2942  0.4670 -0.1590
   82RES   H32434506   5.611   6.206   1.869 -1.3347 -0.3882 -1.8372
   82RES   H32534507   5.619   6.045   1.818  0.4128 -0.4164  0.5104
   82RES   H32634508   5.789   6.149   1.625 -0.6461  0.7377 -1.1895
   82RES   H32734509   5.569   6.251   1.511  1.1084  0.4063  0.2915
   82RES   H32834510   5.489   6.207   1.658  1.1627 -0.5358  1.1272
   82RES   H32934511   5.545   5.972   1.624 -0.4509  1.9617  0.7346
   82RES   H33034512   5.641   6.008   1.480  0.7511 -1.1965  1.7083
   82RES   H33134513   5.441   6.086   1.358  1.1641 -0.3720 -0.2573
   82RES   H33234514   5.335   6.054   1.489  0.4277 -1.2603  0.3823
   82RES   H33334515   5.413   5.809   1.472 -1.6693  0.4822  0.8362
   82RES   H33434516   5.484   5.844   1.324 -2.3909 -1.0222 -2.4306
   82RES   H33534517   5.185   5.902   1.384  1.1485  0.1859  1.1335
   82RES   H33634518   5.252   5.759   1.292 -1.5151  0.7579 -0.3912
   82RES   H33734519   5.266   5.925   1.232 -0.3449 -1.0623 -1.2481
   82RES   C33834520   5.746   6.347   1.680 -0.2949  0.0203  0.0951
   82RES   C33934521   5.776   6.421   1.548 -0.3150  0.3848 -0.1361
   82RES   C34034522   5.889   6.357   1.463  0.2406  0.2996  0.2213
   82RES   C34134523   6.021   6.348   1.528 -0.5391  0.4450 -0.5250
   82RES   C34234524   6.123   6.289   1.432 -0.2678 -0.5822 -0.0179
   82RES   C34334525   6.264   6.302   1.493  0.0215  0.6004 -0.4990
   82RES   C34434526   6.315   6.445   1.506  0.0728  0.4840 -0.3705
   82RES   H34534527   5.836   6.348   1.742 -1.2497 -1.1646  1.5210
   82RES   H34634528   5.670   6.398   1.739 -1.0981 -2.0656  0.9173
   82RES   H34734529   5.684   6.418   1.491 -0.4779  2.3439  0.0044
   82RES   H34834530   5.852   6.261   1.427  2.6977 -0.0614 -1.4650
   82RES   H34934531   5.895   6.414   1.371  0.9203  1.4141  0.9464
   82RES   H35034532   6.033   6.289   1.619  0.5537  0.5251 -0.6022
   82RES   H35134533   6.046   6.450   1.555  1.9000 -0.5576  1.1762
   82RES   H35234534   6.119   6.180   1.422 -0.0205 -0.5486 -0.4951
   82RES   H35334535   6.127   6.332   1.332 -1.2440 -0.5202 -0.0381
   82RES   H35434536   6.256   6.266   1.596 -3.1800 -1.3044 -1.3297
   82RES   H35534537   6.340   6.250   1.435  0.1923 -2.2686  2.1227
   82RES   H35634538   6.313   6.481   1.609  3.8317 -0.3166  0.0291
   82RES   H35734539   6.258   6.509   1.438  0.1446 -0.6691 -1.5294
   82RES   H35834540   6.416   6.458   1.468  0.3455 -0.5064  0.0168
   82RES   C35934541   5.811   6.570   1.588  0.0405  0.5808  0.2367
   82RES   C36034542   5.829   6.667   1.475 -1.1548  0.0807 -0.4150
   82RES   C36134543   5.715   6.670   1.369 -0.0545 -0.2878 -0.1219
   82RES   C36234544   5.720   6.777   1.259 -0.2851  0.2338  0.6871
   82RES   C36334545   5.595   6.764   1.167 -0.0450 -0.2824  0.0672
   82RES   C36434546   5.588   6.884   1.067 -0.1201  0.1175  0.1548
   82RES   C36534547   5.462   6.883   0.979  0.2334 -0.2154  0.0754
   82RES   H36634548   5.898   6.577   1.653 -0.2539  0.8349  0.6044
   82RES   H36734549   5.731   6.615   1.647  1.4644  1.8665  1.2356
   82RES   H36834550   5.910   6.647   1.404 -0.8633  1.2412 -0.4248
   82RES   H36934551   5.707   6.575   1.317 -5.1139  0.8039 -1.5341
   82RES   H37034552   5.628   6.676   1.434  0.3639  1.4836  0.2988
   82RES   H37134553   5.728   6.881   1.288  1.0120  0.9579 -2.1474
   82RES   H37234554   5.807   6.767   1.193 -0.3242  0.0680  0.6607
   82RES   H37334555   5.603   6.666   1.120  1.1468  0.6125 -1.6666
   82RES   H37434556   5.506   6.757   1.230  0.1939 -2.2530  0.2224
   82RES   H37534557   5.587   6.985   1.107  1.3289  0.7835 -1.3695
   82RES   H37634558   5.678   6.885   1.005 -0.0045 -2.8542  0.1907
   82RES   H37734559   5.377   6.934   1.023  0.7221 -1.3550  2.4012
   82RES   H37834560   5.488   6.918   0.878 -1.6731  0.3557 -0.2339
   82RES   H37934561   5.434   6.779   0.966 -0.9686  0.0269  0.7708
   82RES   C38034562   5.867   6.804   1.544  0.3761  0.3822 -0.2742
   82RES   C38134563   6.022   6.847   1.542 -1.2870 -0.2403  0.3657
   82RES   C38234564   6.054   6.890   1.394 -0.0606  0.5021  0.0164
   82RES   C38334565   5.999   7.032   1.342  0.6147 -0.6165  0.2550
   82RES   C38434566   6.056   7.069   1.202  0.0643  0.3916  0.5791
   82RES   C38534567   5.994   7.190   1.141 -0.9754 -0.4216 -0.2655
   82RES   C38634568   5.851   7.170   1.093  0.9587 -0.6136  0.1998
   82RES   H38734569   5.813   6.888   1.501  0.1817 -0.6841 -2.1651
   82RES   H38834570   5.834   6.801   1.648  0.0435 -0.1008 -0.3935
   82RES   H38934571   6.087   6.764   1.569  0.4099  1.0327  0.3014
   82RES   H39034572   6.017   6.807   1.334  3.0584  0.6026 -2.1768
   82RES   H39134573   6.160   6.870   1.377 -0.0638 -0.5242  1.1201
   82RES   H39234574   5.891   7.021   1.336  0.6262 -0.7056  0.2150
   82RES   H39334575   6.016   7.111   1.415 -2.2401 -0.4834  0.8486
   82RES   H39434576   6.163   7.079   1.217  0.2512  2.2132 -1.6451
   82RES   H39534577   6.034   6.994   1.126  0.1562  2.0336 -1.1117
   82RES   H39634578   6.060   7.220   1.060 -0.3321  1.7415  1.0196
   82RES   H39734579   6.005   7.274   1.210 -0.0020 -0.3048 -0.5566
   82RES   H39834580   5.854   7.098   1.011  2.4155  0.7017 -0.9311
   82RES   H39934581   5.807   7.265   1.061  0.5215 -0.2698  1.7867
   82RES   H40034582   5.785   7.142   1.175  1.1454 -1.7633 -0.0358
   82RES   C40134583   6.033   6.960   1.644  0.5196  0.0985 -0.0950
   82RES   C40234584   6.047   6.909   1.789  0.1485 -0.3697  0.2899
   82RES   C40334585   6.072   7.018   1.905 -0.5571 -0.6433 -0.1456
   82RES   C40434586   6.201   7.089   1.895  0.8371  0.2408 -0.2328
   82RES   C40534587   6.226   7.186   2.008  1.0063 -0.1399 -0.1082
   82RES   C40634588   6.174   7.326   1.976  0.5200 -0.0538 -0.7225
   82RES   C40734589   6.114   7.397   2.096  0.9170 -0.0222 -0.0690
   82RES   H40834590   5.949   7.030   1.641 -0.4293 -1.0595 -0.9295
   82RES   H40934591   6.120   7.015   1.611  0.4966 -0.6114 -1.3673
   82RES   H41034592   6.129   6.837   1.786  0.9837  0.5840 -0.2793
   82RES   H41134593   6.052   6.967   1.999  0.2809  0.4693  0.6553
   82RES   H41234594   5.997   7.096   1.889  1.9845  2.1427  0.9247
   82RES   H41334595   6.202   7.136   1.797 -0.0845  1.2456  0.2302
   82RES   H41434596   6.270   7.006   1.911  1.8829  1.2380  0.5531
   82RES   H41534597   6.165   7.159   2.094  0.5651  1.9265  0.2668
   82RES   H41634598   6.331   7.189   2.037  1.0043 -2.1840  0.1504
   82RES   H41734599   6.251   7.381   1.922 -0.0296  1.0767 -0.3531
   82RES   H41834600   6.095   7.317   1.901  1.3778 -2.5728 -1.3745
   82RES   H41934601   6.075   7.490   2.055 -0.3509 -0.1014  0.9504
   82RES   H42034602   6.191   7.425   2.169 -0.3317 -0.0552  1.2859
   82RES   H42134603   6.033   7.346   2.149  0.7351 -0.4476 -0.7537
   82RES   H42234604   5.965   6.845   1.822 -1.4874  1.0768 -0.8844
   83RES     C134605   6.383   4.006   1.940  0.3812  0.2478  0.0798
   83RES     C234606   6.526   3.943   1.936  0.4661  0.2926 -0.2386
   83RES     C334607   6.571   3.906   1.792 -0.5662  0.0488  0.0923
   83RES     C434608   6.561   4.025   1.699 -0.5890  0.1884 -0.5832
   83RES     C534609   6.603   3.999   1.554 -0.2446  0.8801 -0.2929
   83RES     C634610   6.606   4.125   1.466  0.3010 -0.1583  0.2030
   83RES     C734611   6.732   4.198   1.500  0.5931 -0.0074 -0.4497
   83RES     H834612   6.378   4.110   1.909 -0.6373  0.8961  2.2838
   83RES     H934613   6.361   4.020   2.046  1.2951  0.8847  0.1889
   83RES    H1034614   6.598   4.018   1.969 -0.5059  2.1917 -2.3854
   83RES    H1134615   6.673   3.869   1.793  0.4734  2.7107 -1.7660
   83RES    H1234616   6.520   3.815   1.763 -1.6488  0.4101  0.8156
   83RES    H1334617   6.458   4.058   1.689 -0.0426  2.2957  0.3976
   83RES    H1434618   6.618   4.105   1.746 -0.9530  0.7092 -1.0292
   83RES    H1534619   6.542   3.920   1.511  0.7835 -0.5124  0.7628
   83RES    H1634620   6.703   3.954   1.553 -0.9689 -0.7408 -1.0159
   83RES    H1734621   6.529   4.195   1.496  0.2169  0.3520 -1.1584
   83RES    H1834622   6.599   4.107   1.358  2.6966 -0.4973  0.0606
   83RES    H1934623   6.818   4.138   1.471  0.6864 -0.8196  1.4140
   83RES    H2034624   6.749   4.218   1.606  0.6347  2.8872 -0.9578
   83RES    H2134625   6.746   4.286   1.438 -1.3510 -0.0133 -0.9211
   83RES    H2234626   6.302   3.948   1.897  0.1144  1.1544 -0.6440
   83RES    C2334627   6.538   3.814   2.024  0.6917  0.2476  0.1135
   83RES    C2434628   6.513   3.844   2.175 -0.1405 -0.6708 -0.1614
   83RES    C2534629   6.602   3.956   2.231 -0.1887 -0.2037 -0.2691
   83RES    C2634630   6.747   3.916   2.245 -0.4238 -0.3588  0.1874
   83RES    C2734631   6.842   4.010   2.320  0.3191 -0.0062  0.1632
   83RES    C2834632   6.986   3.968   2.304 -0.7980  1.2511 -0.3836
   83RES    C2934633   7.032   3.859   2.407 -0.2523 -0.0037 -0.3456
   83RES    H3034634   6.473   3.730   1.998  0.3953  0.0770  1.3634
   83RES    H3134635   6.640   3.779   2.010  1.2053  1.7301  0.0680
   83RES    H3234636   6.409   3.877   2.180 -0.2643 -1.1102  0.1921
   83RES    H3334637   6.562   3.971   2.331  0.3865 -1.9357  0.2454
   83RES    H3434638   6.574   4.047   2.178 -2.2340 -0.3842  0.4566
   83RES    H3534639   6.792   3.917   2.146  0.6477  2.9072  0.6393
   83RES    H3634640   6.746   3.821   2.300  0.3825 -1.0536 -0.9878
   83RES    H3734641   6.806   4.023   2.422 -0.9108 -0.2495 -0.2258
   83RES    H3834642   6.849   4.109   2.276  0.4774  0.2965  0.8829
   83RES    H3934643   7.046   4.056   2.327  2.1343 -0.5090 -0.9709
   83RES    H4034644   7.015   3.929   2.206  1.3489  2.3525 -0.2264
   83RES    H4134645   6.968   3.771   2.411 -0.7574  0.3262 -1.0539
   83RES    H4234646   7.137   3.831   2.405 -0.6957 -1.8465  1.0601
   83RES    H4334647   7.012   3.902   2.505 -2.8283  1.6540 -1.5276
   83RES    C4434648   6.512   3.709   2.258 -0.0257 -1.2497 -0.2462
   83RES    C4534649   6.481   3.722   2.407 -0.2820  0.4333  0.0610
   83RES    C4634650   6.345   3.791   2.440 -0.4969 -0.0956  0.0429
   83RES    C4734651   6.220   3.707   2.401  0.3001  0.5067  0.1453
   83RES    C4834652   6.091   3.791   2.415  1.2518  0.2367 -1.0957
   83RES    C4934653   5.965   3.708   2.427  0.2636 -0.1162  0.0086
   83RES    C5034654   5.943   3.636   2.564  0.2103 -0.4793  0.0283
   83RES    H5134655   6.607   3.657   2.248  0.6273 -0.1179 -0.0490
   83RES    H5234656   6.448   3.637   2.207  1.9030 -1.4711 -2.4641
   83RES    H5334657   6.555   3.789   2.450 -0.8683  0.6744  0.6954
   83RES    H5434658   6.347   3.892   2.399 -2.0778 -0.0349  0.1048
   83RES    H5534659   6.345   3.815   2.547  0.4896  3.2535 -0.6391
   83RES    H5634660   6.232   3.671   2.299 -0.7790  0.6338 -0.0311
   83RES    H5734661   6.216   3.617   2.462  2.1834 -0.3305 -0.9460
   83RES    H5834662   6.094   3.872   2.342  1.2710  0.2742 -1.0537
   83RES    H5934663   6.096   3.846   2.509  0.4023 -0.6593 -0.5047
   83RES    H6034664   5.967   3.639   2.343 -0.2363  1.4762 -1.3383
   83RES    H6134665   5.882   3.776   2.406  2.1572  2.0825 -0.5410
   83RES    H6234666   5.972   3.713   2.636 -2.3017  0.3388  0.2074
   83RES    H6334667   5.996   3.542   2.577 -1.1178 -1.1905  0.3830
   83RES    H6434668   5.838   3.617   2.588  0.3888 -3.4717 -1.3100
   83RES    C6534669   6.493   3.577   2.476 -0.0245 -0.3970 -0.2919
   83RES    C6634670   6.631   3.508   2.476 -0.7337 -0.1569  0.2131
   83RES    C6734671   6.617   3.378   2.546  0.2105  0.2406 -0.6802
   83RES    C6834672   6.743   3.289   2.531 -0.1165 -0.1743  0.2644
   83RES    C6934673   6.715   3.146   2.571 -0.3987  0.0429 -0.6047
   83RES    C7034674   6.855   3.075   2.579  0.7285  0.1337 -0.4004
   83RES    C7134675   6.845   2.927   2.602 -0.0470  0.1301  0.7702
   83RES    H7234676   6.457   3.587   2.578  0.1639  0.4692 -0.3065
   83RES    H7334677   6.420   3.509   2.432  0.1708 -1.9140  1.7054
   83RES    H7434678   6.656   3.493   2.371  1.4564  0.3300  0.6429
   83RES    H7534679   6.603   3.381   2.654 -1.4012  0.7237 -0.8858
   83RES    H7634680   6.530   3.316   2.522  0.7973 -0.3831 -1.2063
   83RES    H7734681   6.780   3.297   2.429  0.1951 -1.3144  0.2808
   83RES    H7834682   6.815   3.326   2.604 -2.0246  3.6432  0.3147
   83RES    H7934683   6.652   3.145   2.660  1.2642  1.4086  0.6233
   83RES    H8034684   6.659   3.089   2.497  0.0869 -1.7486  0.3768
   83RES    H8134685   6.908   3.127   2.658  1.6917 -1.7105  0.1959
   83RES    H8234686   6.911   3.087   2.485 -1.0289  0.8831 -1.3728
   83RES    H8334687   6.941   2.877   2.617 -1.0609 -1.5752  1.6676
   83RES    H8434688   6.787   2.916   2.693 -0.1466 -1.5013  0.5168
   83RES    H8534689   6.784   2.879   2.525  0.4058  2.4404 -1.0958
   83RES    C8634690   6.741   3.603   2.540  0.2298  0.0776  0.0152
   83RES    C8734691   6.718   3.665   2.685  0.9125  0.3387 -0.5469
   83RES    C8834692   6.793   3.600   2.804 -0.1221 -0.4727 -0.3314
   83RES    C8934693   6.948   3.597   2.788  0.3292  0.2217 -0.5179
   83RES    C9034694   7.036   3.680   2.881 -0.0932  0.3966  1.1925
   83RES    C9134695   7.185   3.689   2.839 -0.1208 -0.3982 -0.0477
   83RES    C9234696   7.270   3.776   2.926  0.1823 -0.5844 -0.6070
   83RES    H9334697   6.831   3.541   2.544 -0.2380 -0.4981  2.3894
   83RES    H9434698   6.754   3.673   2.457 -2.8196  0.7162  0.0117
   83RES    H9534699   6.611   3.648   2.703  0.9865 -0.5619 -0.9387
   83RES    H9634700   6.764   3.655   2.894  1.2630  1.9981 -1.3511
   83RES    H9734701   6.753   3.500   2.821 -1.7710  0.1983 -0.1896
   83RES    H9834702   6.981   3.493   2.793  2.3943  0.8583 -0.5278
   83RES    H9934703   6.977   3.621   2.685  2.1375  1.2499  0.2157
   83RES   H10034704   7.016   3.643   2.982  0.2361 -0.7001  0.8611
   83RES   H10134705   7.001   3.784   2.880 -0.9319  0.1120 -0.0533
   83RES   H10234706   7.223   3.587   2.838  0.4900 -0.1716 -1.3483
   83RES   H10334707   7.188   3.717   2.733 -0.1910 -3.9294 -1.0489
   83RES   H10434708   7.238   3.879   2.935  0.7206 -0.5184  0.5826
   83RES   H10534709   7.367   3.804   2.884  1.0634 -0.9003  1.1437
   83RES   H10634710   7.295   3.725   3.019 -1.1040  0.9530  0.5819
   83RES   C10734711   6.733   3.820   2.685 -0.8144 -0.4635 -0.0610
   83RES   C10834712   6.666   3.901   2.800 -0.3431 -0.0318 -0.3959
   83RES   C10934713   6.721   4.049   2.791 -0.0493  0.3339  0.6203
   83RES   C11034714   6.870   4.071   2.812 -0.7418  0.4249 -0.6251
   83RES   C11134715   6.906   4.217   2.829  0.0402 -0.5479 -0.5820
   83RES   C11234716   7.052   4.219   2.885 -0.5406  0.4905  0.6172
   83RES   C11334717   7.126   4.349   2.842  0.8487  0.1702 -0.0626
   83RES   H11434718   6.695   3.871   2.596  0.3295 -1.4325 -1.1286
   83RES   H11534719   6.841   3.831   2.673 -0.7828 -2.4085 -1.8846
   83RES   H11634720   6.698   3.872   2.900 -0.1440 -1.3043 -0.8199
   83RES   H11734721   6.674   4.098   2.876 -0.3496 -0.9402  1.1960
   83RES   H11834722   6.679   4.102   2.706  0.4784 -1.7196 -0.9531
   83RES   H11934723   6.898   4.015   2.901  0.1545 -0.6820 -1.5831
   83RES   H12034724   6.934   4.041   2.729 -0.7375  1.1334 -0.8798
   83RES   H12134725   6.835   4.269   2.895  0.6186  1.2581 -1.3609
   83RES   H12234726   6.892   4.264   2.732 -1.5180 -2.6280 -1.4208
   83RES   H12334727   7.049   4.215   2.994 -1.5036  0.4399  0.5865
   83RES   H12434728   7.111   4.133   2.854 -0.5997 -0.0880  2.0680
   83RES   H12534729   7.116   4.437   2.907 -1.1446 -0.4630  0.5271
   83RES   H12634730   7.227   4.313   2.855  0.9519 -0.0637 -1.4861
   83RES   H12734731   7.104   4.375   2.739 -0.2409 -0.2251  0.0554
   83RES   C12834732   6.513   3.907   2.784 -0.8429  0.8998 -0.2984
   83RES   C12934733   6.432   3.942   2.916  0.2684 -0.6198  0.5460
   83RES   C13034734   6.447   3.841   3.032 -0.5036 -0.9466  0.1622
   83RES   C13134735   6.409   3.700   2.994 -0.0755 -0.5127  0.6524
   83RES   C13234736   6.434   3.610   3.114  0.2025 -0.3457 -0.2662
   83RES   C13334737   6.391   3.468   3.080 -0.1753  0.1977 -0.0870
   83RES   C13434738   6.410   3.374   3.202 -1.2020 -0.7396 -0.4459
   83RES   H13534739   6.494   3.989   2.715  0.4309  0.7449 -0.8505
   83RES   H13634740   6.476   3.820   2.729  1.4237 -0.7645  0.6845
   83RES   H13734741   6.474   4.032   2.960 -1.8124 -0.1138  1.5585
   83RES   H13834742   6.382   3.861   3.117  1.8902  0.4755  1.7145
   83RES   H13934743   6.544   3.844   3.082 -0.3071 -0.2984 -0.2512
   83RES   H14034744   6.468   3.663   2.909 -2.6144  0.3146 -1.5464
   83RES   H14134745   6.304   3.697   2.965  0.1387 -0.3858 -0.1549
   83RES   H14234746   6.384   3.641   3.205  1.4137 -0.0137  0.2877
   83RES   H14334747   6.539   3.624   3.138 -0.2010 -0.8257  1.8433
   83RES   H14434748   6.450   3.418   3.002  1.6467  2.0363  0.0796
   83RES   H14534749   6.290   3.456   3.042  0.2811  0.6249 -1.4671
   83RES   H14634750   6.347   3.290   3.173 -0.0372 -1.0761 -2.0819
   83RES   H14734751   6.366   3.410   3.295  1.9714  2.6415 -0.1741
   83RES   H14834752   6.507   3.328   3.220 -1.5950 -0.6631  2.0893
   83RES   C14934753   6.283   3.963   2.880  0.2722  0.2801 -0.4157
   83RES   C15034754   6.237   4.105   2.828 -0.1563 -0.0641  0.1075
   83RES   C15134755   6.272   4.228   2.921  0.4211  0.4132  0.5651
   83RES   C15234756   6.228   4.215   3.068 -0.4248 -0.2984  0.3507
   83RES   C15334757   6.247   4.347   3.149  0.1588 -0.6215  0.0438
   83RES   C15434758   6.181   4.326   3.290  0.4873 -0.2616 -0.5010
   83RES   C15534759   6.173   4.456   3.375  0.5103 -0.0940  0.0029
   83RES   H15634760   6.250   3.891   2.805 -1.0682  1.3056 -0.8415
   83RES   H15734761   6.221   3.951   2.969  1.0377  2.5537  0.4739
   83RES   H15834762   6.302   4.114   2.741 -0.2409  1.9229  0.2391
   83RES   H15934763   6.381   4.228   2.917  0.3797  0.6579 -0.9156
   83RES   H16034764   6.230   4.314   2.869  0.6218 -0.4733 -1.1183
   83RES   H16134765   6.287   4.136   3.115  0.7147 -0.4545 -1.2941
   83RES   H16234766   6.126   4.176   3.064 -1.0603  1.3763 -0.7104
   83RES   H16334767   6.212   4.436   3.097 -0.8161 -0.7995  0.3805
   83RES   H16434768   6.353   4.368   3.157 -0.1150 -0.0963  3.1387
   83RES   H16534769   6.248   4.255   3.339 -0.0073  1.1045  2.2520
   83RES   H16634770   6.082   4.284   3.271  0.7606 -0.8944 -0.5478
   83RES   H16734771   6.111   4.529   3.322  1.0452  0.2531 -0.1550
   83RES   H16834772   6.274   4.497   3.384  0.1406  0.9756 -0.5279
   83RES   H16934773   6.139   4.436   3.476  0.3975  1.1950  0.2390
   83RES   C17034774   6.095   4.107   2.766  0.1550 -0.0667 -0.4745
   83RES   C17134775   6.040   4.226   2.676  0.0547  0.5513 -0.3607
   83RES   C17234776   6.140   4.281   2.579 -0.3064  0.2309 -0.1502
   83RES   C17334777   6.185   4.180   2.473  0.2649 -0.8453  0.1005
   83RES   C17434778   6.279   4.229   2.369  0.6896 -0.3092 -0.3508
   83RES   C17534779   6.404   4.303   2.421  0.3174 -0.2232  0.4028
   83RES   C17634780   6.502   4.215   2.504  0.0179  0.4214 -0.0381
   83RES   H17734781   6.023   4.091   2.847 -1.7057  0.5559 -1.9618
   83RES   H17834782   6.075   4.017   2.707  1.7803 -2.5529  2.5787
   83RES   H17934783   6.028   4.306   2.749  0.4167 -1.2273  1.6864
   83RES   H18034784   6.232   4.318   2.623  0.4816 -0.9015 -0.8306
   83RES   H18134785   6.091   4.362   2.526 -0.3230  0.2577 -0.0945
   83RES   H18234786   6.095   4.159   2.416  1.9548  2.0495 -3.8625
   83RES   H18334787   6.213   4.086   2.521  2.4349 -0.6941 -0.7911
   83RES   H18434788   6.229   4.302   2.305  1.8926  1.2137  0.4250
   83RES   H18534789   6.312   4.141   2.313  0.2106 -1.4307  1.0805
   83RES   H18634790   6.366   4.387   2.479 -0.9945 -0.5722  0.0685
   83RES   H18734791   6.460   4.345   2.338 -0.2357 -0.9421 -0.3435
   83RES   H18834792   6.588   4.276   2.534  0.6030 -1.5426  2.4137
   83RES   H18934793   6.539   4.126   2.453 -2.2135  1.2226 -3.1904
   83RES   H19034794   6.454   4.180   2.595 -0.8205  2.8837  0.4996
   83RES   C19134795   5.906   4.187   2.613 -0.0961 -0.4930 -0.5941
   83RES   C19234796   5.795   4.168   2.723  0.1060  0.0360 -0.1838
   83RES   C19334797   5.762   4.301   2.799  0.2750 -0.0498  0.0614
   83RES   C19434798   5.812   4.314   2.943  0.1530 -0.8844 -0.3061
   83RES   C19534799   5.770   4.450   3.014  0.0587  0.2651  0.5936
   83RES   C19634800   5.819   4.457   3.163  0.5267 -0.2339  0.2307
   83RES   C19734801   5.757   4.363   3.257  0.4270 -0.0571  0.0636
   83RES   H19834802   5.909   4.096   2.553 -0.7023 -2.1845  1.8653
   83RES   H19934803   5.883   4.271   2.548  1.9490  0.6440  0.1023
   83RES   H20034804   5.825   4.098   2.800 -0.3550 -1.4114 -1.3014
   83RES   H20134805   5.656   4.314   2.820 -0.8801 -2.2098 -3.8731
   83RES   H20234806   5.788   4.387   2.737 -1.9762 -1.1254 -2.4616
   83RES   H20334807   5.920   4.302   2.936  0.4046  1.9636 -1.7987
   83RES   H20434808   5.768   4.231   2.998  1.2207  0.1596  2.2044
   83RES   H20534809   5.813   4.533   2.958 -1.6068  0.8542  0.1660
   83RES   H20634810   5.665   4.481   3.022  0.1593  1.3081 -1.7592
   83RES   H20734811   5.807   4.555   3.209  1.1799 -0.5650  1.1364
   83RES   H20834812   5.926   4.433   3.159  1.2090  2.5588  0.8201
   83RES   H20934813   5.648   4.357   3.255  0.4365 -1.0602  1.3989
   83RES   H21034814   5.785   4.380   3.361  2.7722 -0.9309 -0.3851
   83RES   H21134815   5.793   4.262   3.238  0.5945  0.1226 -0.5776
   83RES   C21234816   5.660   4.131   2.659  0.3217  0.0293 -0.0740
   83RES   C21334817   5.663   4.011   2.573  0.1325  0.3607 -0.4592
   83RES   C21434818   5.719   3.886   2.643 -0.2679 -0.1146 -0.8166
   83RES   C21534819   5.660   3.842   2.776  0.6022 -0.3132  0.4355
   83RES   C21634820   5.735   3.734   2.848 -0.1797 -0.3671 -0.1225
   83RES   C21734821   5.874   3.776   2.905 -0.3062  0.3941  0.6723
   83RES   C21834822   5.942   3.663   2.977  1.0053 -0.6562  0.3101
   83RES   H21934823   5.623   4.214   2.600 -1.4652 -1.2335 -0.8045
   83RES   H22034824   5.574   4.129   2.727  0.3501 -2.0595 -0.0641
   83RES   H22134825   5.731   4.032   2.490 -1.5965  2.8377 -1.3233
   83RES   H22234826   5.719   3.801   2.575  0.6950  0.2518 -1.2890
   83RES   H22334827   5.823   3.915   2.662  0.0798 -0.3371 -2.3413
   83RES   H22434828   5.565   3.793   2.757  0.3735 -0.2198  1.3304
   83RES   H22534829   5.645   3.931   2.838 -2.0781  1.3863 -2.5276
   83RES   H22634830   5.674   3.720   2.937 -0.3266  1.5331  0.0913
   83RES   H22734831   5.742   3.640   2.793  1.6408 -0.1599 -0.2892
   83RES   H22834832   5.940   3.806   2.823  1.6307 -0.1707  1.9948
   83RES   H22934833   5.873   3.858   2.977 -0.3558 -0.5304  1.7411
   83RES   H23034834   6.023   3.698   3.040  1.9910 -0.7067 -0.8961
   83RES   H23134835   5.991   3.602   2.901  1.9193  0.0491  0.3242
   83RES   H23234836   5.868   3.604   3.031 -1.2743  0.1077 -1.8553
   83RES   C23334837   5.521   3.965   2.532 -0.8128  0.3638 -0.1140
   83RES   C23434838   5.445   4.047   2.425  0.1852  0.2413  0.2600
   83RES   C23534839   5.536   4.070   2.303  0.2777 -0.8685 -0.4677
   83RES   C23634840   5.600   3.944   2.234  0.3095 -0.1762 -0.1789
   83RES   C23734841   5.704   3.976   2.129 -0.2142 -0.3734  0.1775
   83RES   C23834842   5.744   3.848   2.055 -0.0497  0.3138  0.2994
   83RES   C23934843   5.849   3.862   1.948 -0.3575 -0.6398  0.9605
   83RES   H24034844   5.453   3.959   2.617  0.4574  0.3316  0.9267
   83RES   H24134845   5.525   3.861   2.502 -2.2180 -0.5677  2.8109
   83RES   H24234846   5.433   4.144   2.474 -3.1845  0.2286 -0.4219
   83RES   H24334847   5.619   4.138   2.322  0.0086 -1.1276  1.8247
   83RES   H24434848   5.495   4.131   2.223 -0.4801  1.9952  2.0024
   83RES   H24534849   5.518   3.881   2.200 -0.3896 -1.0810  3.0107
   83RES   H24634850   5.651   3.882   2.308  1.8669  1.7048  0.3638
   83RES   H24734851   5.789   4.014   2.186 -0.2101  0.1139 -0.1518
   83RES   H24834852   5.673   4.051   2.057  1.7983  0.8603  0.5542
   83RES   H24934853   5.776   3.767   2.120 -1.3651 -2.2067 -2.1056
   83RES   H25034854   5.660   3.800   2.005  0.7628  2.1331 -2.9277
   83RES   H25134855   5.946   3.888   1.990 -0.9114  3.2862 -0.0244
   83RES   H25234856   5.874   3.768   1.897 -0.5772 -0.7497  1.0547
   83RES   H25334857   5.820   3.941   1.879  0.7643  0.1635  1.3929
   83RES   C25434858   5.308   3.977   2.403  0.1359  0.2537 -0.2866
   83RES   C25534859   5.211   4.031   2.293 -0.1731 -0.3159  0.2508
   83RES   C25634860   5.153   4.167   2.345  0.3299  0.5664  0.6277
   83RES   C25734861   5.067   4.247   2.247 -0.9163  0.0045 -0.4743
   83RES   C25834862   5.022   4.379   2.311 -0.2896  0.5582  0.1668
   83RES   C25934863   4.971   4.462   2.199  1.0486 -0.0570  0.2698
   83RES   C26034864   4.874   4.559   2.252 -0.7905  0.8133  0.7771
   83RES   H26134865   5.265   3.971   2.503 -1.9443  0.0057 -1.1729
   83RES   H26234866   5.331   3.874   2.376  2.2418  0.1052  1.9007
   83RES   H26334867   5.254   4.049   2.195 -0.4930 -0.2665  0.1179
   83RES   H26434868   5.225   4.227   2.401  2.3473  0.2151 -1.5009
   83RES   H26534869   5.092   4.143   2.432 -2.4629 -0.3466 -1.5334
   83RES   H26634870   5.122   4.277   2.158 -0.7944 -0.0795 -0.4268
   83RES   H26734871   4.978   4.192   2.215 -0.9204 -0.8439  0.9734
   83RES   H26834872   5.096   4.434   2.368 -0.2077  0.9341 -0.3056
   83RES   H26934873   4.948   4.356   2.388  0.5411 -1.3087  0.4412
   83RES   H27034874   5.055   4.517   2.158  1.5917 -0.5472  0.7203
   83RES   H27134875   4.929   4.411   2.112 -1.3202  0.6214  0.9737
   83RES   H27234876   4.828   4.618   2.172  1.1084 -0.3359 -1.2195
   83RES   H27334877   4.793   4.510   2.307 -0.3312  0.8203  1.4549
   83RES   H27434878   4.922   4.616   2.331  2.3208  0.2940 -0.6628
   83RES   C27534879   5.108   3.924   2.263 -0.1203  0.1990 -0.1638
   83RES   C27634880   5.143   3.841   2.143  0.0414 -0.5499 -0.2265
   83RES   C27734881   5.080   3.897   2.009 -0.5804  0.0828  0.1153
   83RES   C27834882   4.929   3.931   2.008  0.2513  0.2595 -0.4027
   83RES   C27934883   4.867   3.971   1.875  0.4007 -0.2366  0.5321
   83RES   C28034884   4.920   4.107   1.825 -0.3686 -0.5738  0.2137
   83RES   C28134885   4.964   4.117   1.674 -0.4145 -0.5878  0.4603
   83RES   H28234886   5.009   3.968   2.249 -0.8096 -1.3904 -0.3522
   83RES   H28334887   5.096   3.860   2.351 -0.4890  0.9763  0.3655
   83RES   H28434888   5.251   3.854   2.130 -0.1356  1.7290  0.3873
   83RES   H28534889   5.144   3.984   1.992  0.0261  0.1907  2.7098
   83RES   H28634890   5.106   3.832   1.926  2.1329  1.4452 -0.1552
   83RES   H28734891   4.897   4.000   2.086  1.0002 -1.6304  1.6459
   83RES   H28834892   4.888   3.835   2.043  1.3547  1.0266  3.2470
   83RES   H28934893   4.759   3.982   1.877  0.2102 -0.7525 -3.0406
   83RES   H29034894   4.872   3.900   1.793 -0.6073 -0.1891  0.4342
   83RES   H29134895   4.841   4.179   1.847 -1.0825 -0.9701 -0.9800
   83RES   H29234896   5.011   4.140   1.875 -1.5743  1.0462  1.3834
   83RES   H29334897   4.889   4.071   1.609  0.7959 -1.9134 -0.0098
   83RES   H29434898   5.063   4.074   1.661  0.3903  1.2277  0.4257
   83RES   H29534899   4.978   4.219   1.639 -0.3717 -1.0439 -0.8524
   83RES   C29634900   5.111   3.693   2.166 -0.0541 -0.2230 -0.1110
   83RES   C29734901   5.221   3.619   2.237  0.0819 -0.4283 -0.9606
   83RES   C29834902   5.335   3.577   2.139  0.0713 -0.5766 -0.3139
   83RES   C29934903   5.464   3.534   2.209  0.4743 -0.8200 -0.2801
   83RES   C30034904   5.576   3.505   2.103 -0.1246  0.0734  0.5967
   83RES   C30134905   5.711   3.466   2.167 -0.1297  0.6215 -0.0813
   83RES   C30234906   5.815   3.441   2.059 -0.2231  0.1549 -0.8850
   83RES   H30334907   5.017   3.685   2.221  0.5911 -0.0512  1.0196
   83RES   H30434908   5.093   3.648   2.068  0.8105  1.4833 -1.0703
   83RES   H30534909   5.263   3.677   2.319  2.2415  1.0918 -3.0592
   83RES   H30634910   5.299   3.498   2.073 -0.6969 -0.1083 -0.4554
   83RES   H30734911   5.357   3.667   2.082 -1.3511 -0.7298 -1.1328
   83RES   H30834912   5.447   3.439   2.260 -0.3587  0.4658  1.9112
   83RES   H30934913   5.494   3.606   2.285  1.3470  0.5657 -1.9060
   83RES   H31034914   5.594   3.599   2.051 -1.3176 -1.1126 -2.0295
   83RES   H31134915   5.546   3.427   2.033 -1.3472 -0.0744  1.2642
   83RES   H31234916   5.737   3.543   2.240  0.2441 -0.1356  0.5915
   83RES   H31334917   5.692   3.373   2.220  1.0075  0.6723  0.4321
   83RES   H31434918   5.793   3.370   1.980  0.2414 -0.7786 -0.1887
   83RES   H31534919   5.842   3.530   2.003  1.3754 -0.3507 -0.9536
   83RES   H31634920   5.909   3.407   2.104 -1.0373  1.5064  1.9308
   83RES   C31734921   5.168   3.490   2.300  0.1142 -0.2321  0.1212
   83RES   C31834922   5.103   3.520   2.439 -0.1552  0.6130  0.5721
   83RES   C31934923   4.999   3.411   2.461  0.1830  0.7494 -0.4233
   83RES   C32034924   5.051   3.269   2.493  0.0156 -0.4724  0.3441
   83RES   C32134925   4.937   3.180   2.519  0.1331  0.1619  0.0149
   83RES   C32234926   4.993   3.047   2.566 -0.3752  0.1172 -0.3211
   83RES   C32334927   4.885   2.939   2.605 -0.2661 -0.1773 -0.3910
   83RES   H32434928   5.246   3.416   2.315  0.0951 -0.5556 -1.3005
   83RES   H32534929   5.100   3.445   2.227  1.3240  0.5711 -1.5157
   83RES   H32634930   5.045   3.612   2.441 -0.9024  0.1830 -0.2825
   83RES   H32734931   4.942   3.424   2.369 -1.2719 -0.6082  0.2450
   83RES   H32834932   4.927   3.452   2.532  0.0942 -0.8462  0.4509
   83RES   H32934933   5.123   3.261   2.574  1.7101  2.2195 -0.8259
   83RES   H33034934   5.096   3.229   2.403 -1.1362  0.0494 -0.4765
   83RES   H33134935   4.873   3.151   2.435 -2.3851  1.1207  1.5480
   83RES   H33234936   4.877   3.230   2.594  0.5100 -1.1378  1.2121
   83RES   H33334937   5.057   3.063   2.652  0.4343  1.3081 -1.1231
   83RES   H33434938   5.055   3.010   2.485  1.6587  0.7580  0.9223
   83RES   H33534939   4.933   2.865   2.668 -1.1398 -0.1107  0.3628
   83RES   H33634940   4.827   2.899   2.522  2.6797 -0.8827 -2.1764
   83RES   H33734941   4.811   2.992   2.666 -0.9488 -0.8149 -0.6628
   83RES   C33834942   5.201   3.529   2.555  0.0208 -0.5318 -0.0572
   83RES   C33934943   5.142   3.550   2.696 -0.2637 -0.4579  0.4105
   83RES   C34034944   5.050   3.672   2.708 -0.3954 -0.0448  0.2085
   83RES   C34134945   5.112   3.804   2.660  0.2017  0.0895 -0.2337
   83RES   C34234946   5.035   3.931   2.679 -0.3542 -0.2398 -0.5357
   83RES   C34334947   4.895   3.920   2.612  0.5476  0.1223  0.7234
   83RES   C34434948   4.814   4.047   2.643 -0.3409 -0.4971  0.5134
   83RES   H34534949   5.270   3.611   2.534 -0.2808 -0.8516 -2.3807
   83RES   H34634950   5.258   3.436   2.551 -1.7156 -1.5877 -0.6502
   83RES   H34734951   5.082   3.461   2.711  1.3136 -1.4353  1.0215
   83RES   H34834952   4.965   3.654   2.643  0.9053 -3.2013 -0.7269
   83RES   H34934953   5.015   3.681   2.811 -0.8523 -0.2015  0.0638
   83RES   H35034954   5.127   3.796   2.553 -0.7941  0.4895 -0.4093
   83RES   H35134955   5.215   3.818   2.690  0.6729 -1.4448 -1.0681
   83RES   H35234956   5.031   3.961   2.783 -0.1170 -0.7706 -0.3734
   83RES   H35334957   5.089   4.009   2.624 -0.0472 -0.3155 -0.3400
   83RES   H35434958   4.889   3.911   2.504  0.4019 -2.1979  0.8952
   83RES   H35534959   4.839   3.837   2.656 -1.1640 -0.1842 -1.9610
   83RES   H35634960   4.717   4.056   2.595 -1.4427  0.1447  2.8038
   83RES   H35734961   4.868   4.138   2.617 -0.4589 -0.8910 -1.1560
   83RES   H35834962   4.786   4.052   2.748 -0.2350 -2.7156  0.6834
   83RES   C35934963   5.256   3.549   2.798  0.0134 -0.5540 -0.3836
   83RES   C36034964   5.226   3.549   2.948  0.4211  0.2478 -0.2735
   83RES   C36134965   5.130   3.432   2.985  0.4158 -0.7369 -0.0803
   83RES   C36234966   5.186   3.289   2.949 -0.0191  0.2977  0.3920
   83RES   C36334967   5.095   3.174   3.003  0.0526 -0.7648  0.5373
   83RES   C36434968   4.960   3.175   2.940 -0.4256  0.2740  0.6284
   83RES   C36534969   4.879   3.046   2.968 -0.1460  0.3320 -0.3020
   83RES   H36634970   5.315   3.639   2.776 -1.6519  0.7963  0.5361
   83RES   H36734971   5.310   3.459   2.769 -2.2844 -2.3457  0.7255
   83RES   H36834972   5.171   3.640   2.968  1.6126  0.3678  2.7164
   83RES   H36934973   5.115   3.441   3.093  1.4004 -0.4247  0.0325
   83RES   H37034974   5.028   3.449   2.951 -0.6930 -0.7211  3.0608
   83RES   H37134975   5.196   3.282   2.841 -2.0633 -0.2478  0.2025
   83RES   H37234976   5.287   3.278   2.987  0.8781 -1.0252 -2.2706
   83RES   H37334977   5.149   3.080   3.012  1.5452 -0.0560 -0.6190
   83RES   H37434978   5.074   3.194   3.108 -1.5774  0.1960  0.0390
   83RES   H37534979   4.901   3.256   2.983 -0.6836 -0.0695  0.9395
   83RES   H37634980   4.969   3.203   2.835  0.5057  2.6533  1.3349
   83RES   H37734981   4.933   2.962   2.924 -0.3011 -0.5238  1.1340
   83RES   H37834982   4.857   3.019   3.071  1.7833  1.6184  0.4673
   83RES   H37934983   4.787   3.044   2.909 -1.2340  4.4889  1.0743
   83RES   C38034984   5.358   3.550   3.030 -0.6562 -0.7664  0.1550
   83RES   C38134985   5.340   3.612   3.178  0.1771 -0.6935  0.1552
   83RES   C38234986   5.448   3.563   3.271 -0.5024  0.4074  0.0724
   83RES   C38334987   5.439   3.418   3.321  0.0458 -0.5950  0.5017
   83RES   C38434988   5.339   3.402   3.429  0.6010  0.3151  1.2269
   83RES   C38534989   5.305   3.257   3.473  0.6325  0.3232 -0.0518
   83RES   C38634990   5.223   3.188   3.355 -0.0686  0.2911 -0.6953
   83RES   H38734991   5.415   3.458   3.021  1.6883  0.5081  1.2956
   83RES   H38834992   5.435   3.611   2.983 -1.4135  0.0250 -0.0666
   83RES   H38934993   5.248   3.577   3.226  2.1097 -0.5118  4.2425
   83RES   H39034994   5.450   3.627   3.359 -0.0954 -0.8188  0.9684
   83RES   H39134995   5.551   3.567   3.236 -1.0056 -1.5899 -1.8007
   83RES   H39234996   5.414   3.349   3.240  0.8010  0.0118 -0.2667
   83RES   H39334997   5.534   3.385   3.363  0.2511  3.0086  3.0676
   83RES   H39434998   5.380   3.449   3.518 -2.1069  0.0061  2.6999
   83RES   H39534999   5.244   3.453   3.415  0.3886 -0.6961 -1.2006
   83RES   H39635000   5.250   3.264   3.567 -0.4895  0.8464 -0.7331
   83RES   H39735001   5.397   3.208   3.504  0.1921 -0.7779 -0.4746
   83RES   H39835002   5.280   3.189   3.262  0.7491  0.4794 -0.2005
   83RES   H39935003   5.132   3.243   3.333 -0.5194  0.4939  1.5008
   83RES   H40035004   5.190   3.092   3.396  1.0452 -0.1514 -0.7995
   83RES   C40135005   5.333   3.767   3.186 -0.0832 -0.6206 -0.7647
   83RES   C40235006   5.275   3.822   3.324  0.0963  0.1533  0.5208
   83RES   C40335007   5.131   3.790   3.356 -0.3639  1.2015  0.5404
   83RES   C40435008   5.078   3.861   3.484 -0.7738 -0.6213  0.1727
   83RES   C40535009   4.954   3.796   3.526  0.5405  0.4697  0.2964
   83RES   C40635010   4.865   3.871   3.636 -0.7675 -0.0419  0.0184
   83RES   C40735011   4.726   3.820   3.658 -0.0745 -0.1045 -0.3896
   83RES   H40835012   5.279   3.803   3.099 -1.7745  0.3932  0.6718
   83RES   H40935013   5.434   3.807   3.189  0.0057 -0.8859 -0.0022
   83RES   H41035014   5.287   3.930   3.332  0.5837  0.2657 -1.4449
   83RES   H41135015   5.134   3.681   3.361  1.1081  1.1083 -1.4958
   83RES   H41235016   5.076   3.815   3.266  0.7956 -0.0881 -0.5591
   83RES   H41335017   5.054   3.965   3.463  2.2160  0.4302  1.7131
   83RES   H41435018   5.163   3.857   3.552  0.5187 -0.3019 -1.3965
   83RES   H41535019   4.891   3.785   3.437  0.7412  1.9237 -0.0450
   83RES   H41635020   4.967   3.691   3.549  1.2299  0.9139  1.9661
   83RES   H41735021   4.921   3.875   3.729  0.7089 -2.2448 -0.7338
   83RES   H41835022   4.854   3.978   3.620 -1.4994  0.1684  1.8106
   83RES   H41935023   4.736   3.714   3.685 -1.0767 -0.6310 -2.0348
   83RES   H42035024   4.660   3.824   3.572 -1.0428  0.9893  0.3902
   83RES   H42135025   4.668   3.867   3.737 -0.6559 -2.5113  0.6884
   83RES   H42235026   5.326   3.790   3.415 -0.0919  0.8527  0.8749
   84RES     C135027   7.484   1.328   3.223  0.1476 -0.1573  0.2837
   84RES     C235028   7.460   1.463   3.284  0.0437 -0.3181  0.0583
   84RES     C335029   7.317   1.522   3.280  0.2961  0.8956 -0.6109
   84RES     C435030   7.193   1.422   3.287  0.5363 -0.4288  0.4424
   84RES     C535031   7.059   1.500   3.300  0.4268 -0.0979  0.0986
   84RES     C635032   6.998   1.569   3.174  1.2051  0.3230  0.0758
   84RES     C735033   6.851   1.628   3.192  0.1026 -0.3932 -0.1651
   84RES     H835034   7.402   1.262   3.253  0.5350  0.7201  3.4427
   84RES     H935035   7.569   1.279   3.271 -0.0866 -0.9791 -0.1246
   84RES    H1035036   7.470   1.440   3.390 -0.7118 -2.8668 -0.3675
   84RES    H1135037   7.307   1.602   3.353 -1.4906 -0.1477  0.3312
   84RES    H1235038   7.301   1.577   3.187  0.2121 -0.9978 -1.7444
   84RES    H1335039   7.189   1.375   3.189  0.0230 -2.9806  1.6335
   84RES    H1435040   7.200   1.350   3.369 -0.8435 -0.8543  0.1938
   84RES    H1535041   7.089   1.578   3.371  0.2712  1.0839 -1.1067
   84RES    H1635042   6.989   1.437   3.355  0.3917  0.0859  0.2655
   84RES    H1735043   6.994   1.500   3.090  1.1384  0.6967 -0.2266
   84RES    H1835044   7.070   1.642   3.140  2.0567 -0.6189 -0.1652
   84RES    H1935045   6.818   1.676   3.100 -2.4676 -0.0833  0.8963
   84RES    H2035046   6.853   1.704   3.270  1.6950  0.6898 -1.2353
   84RES    H2135047   6.776   1.555   3.224 -1.2359  0.7316 -0.7103
   84RES    H2235048   7.497   1.332   3.115 -0.9602 -2.1862  0.0480
   84RES    C2335049   7.571   1.565   3.254  0.1107  0.6496 -0.7701
   84RES    C2435050   7.571   1.692   3.332  0.3381 -0.1349 -0.1051
   84RES    C2535051   7.700   1.774   3.299  0.4974  0.1812  0.5802
   84RES    C2635052   7.711   1.822   3.154 -0.5006 -0.3713 -0.4420
   84RES    C2735053   0.091   1.931   3.123  0.6510  0.1896 -0.3101
   84RES    C2835054   0.058   2.071   3.192 -0.0848  0.3115 -0.1588
   84RES    C2935055   7.672   2.139   3.112 -0.0851  0.2327 -0.2366
   84RES    H3035056   7.669   1.518   3.262  0.2930  1.1002 -0.4313
   84RES    H3135057   7.561   1.593   3.149  0.5004  2.0855 -0.4252
   84RES    H3235058   7.488   1.749   3.291  0.1444  0.3922  0.9884
   84RES    H3335059   0.058   1.717   3.337 -0.8029 -1.1670  1.4959
   84RES    H3435060   7.713   1.860   3.366 -0.1002  0.5366  0.2375
   84RES    H3535061   7.611   1.851   3.122 -0.1380  1.2645 -0.1210
   84RES    H3635062   0.015   1.734   3.097 -0.0422 -1.3830  1.3205
   84RES    H3735063   0.106   1.939   3.015 -2.5808  0.5227 -0.7710
   84RES    H3835064   0.185   1.890   3.161  0.5818  1.0819  0.8332
   84RES    H3935065   0.139   2.143   3.183  0.1218  0.2130  0.8416
   84RES    H4035066   0.040   2.072   3.300  1.8686  1.4243  0.1867
   84RES    H4135067   7.576   2.087   3.116 -0.5458  1.1610  0.7515
   84RES    H4235068   7.654   2.240   3.148  0.0906 -0.3716  1.5595
   84RES    H4335069   7.719   2.145   3.014  1.7117  2.2331  0.7154
   84RES    C4435070   7.552   1.680   3.490  0.3339 -0.7775  0.1559
   84RES    C4535071   7.513   1.816   3.561  0.1210 -0.4043  0.4142
   84RES    C4635072   7.366   1.859   3.557  0.6027 -0.3512 -0.7208
   84RES    C4735073   7.335   2.001   3.598  0.3503  0.5872 -0.1626
   84RES    C4835074   7.390   2.100   3.495  0.4790 -0.2936 -0.4091
   84RES    C4935075   7.323   2.245   3.517 -0.6257  0.8011  0.1015
   84RES    C5035076   7.394   2.355   3.437  0.0663  0.1052 -0.3283
   84RES    H5135077   7.654   1.651   3.513  0.5852 -0.8787 -1.0643
   84RES    H5235078   7.482   1.602   3.519 -0.4163 -0.0985  0.1979
   84RES    H5335079   7.561   1.899   3.511  1.4627 -1.0861  0.5511
   84RES    H5435080   7.309   1.810   3.635  0.9700  0.2422 -0.0757
   84RES    H5535081   7.323   1.845   3.458 -1.0089  1.0445 -0.2308
   84RES    H5635082   7.231   2.025   3.617  0.2328 -0.2900  0.3234
   84RES    H5735083   7.389   2.025   3.690 -1.9340  3.3091  0.5118
   84RES    H5835084   7.383   2.083   3.388  0.6408 -0.6562 -0.3632
   84RES    H5935085   7.498   2.098   3.512  0.5088  2.5443  0.0633
   84RES    H6035086   7.321   2.261   3.625 -1.3641 -1.5816  0.4744
   84RES    H6135087   7.221   2.236   3.479 -0.4799 -0.8016  0.0830
   84RES    H6235088   7.369   2.452   3.480  1.1685  0.4526 -0.4375
   84RES    H6335089   7.366   2.346   3.332  2.4664 -1.9783 -0.8307
   84RES    H6435090   7.503   2.352   3.442  0.0510  0.2771  0.1365
   84RES    C6535091   7.553   1.788   3.715 -0.9728 -0.0601  0.1591
   84RES    C6635092   7.704   1.814   3.748 -0.0655  0.6246  0.1574
   84RES    C6735093   0.004   1.766   3.896 -0.1735  0.0360 -0.2393
   84RES    C6835094   7.676   1.862   4.007  0.0307  0.3025  0.1942
   84RES    C6935095   7.650   1.805   4.148 -0.1035  0.2629 -0.3403
   84RES    C7035096   0.047   1.745   4.218  0.1622 -0.3453  0.2885
   84RES    C7135097   0.165   1.843   4.245  0.0592 -0.6253 -0.4697
   84RES    H7235098   7.492   1.857   3.774 -0.3768  1.2156 -0.6858
   84RES    H7335099   7.531   1.684   3.737 -0.0522 -0.1300  0.7493
   84RES    H7435100   0.029   1.747   3.680 -0.3198  1.4722 -0.8849
   84RES    H7535101   7.695   1.665   3.912 -1.1666  0.0696 -2.1290
   84RES    H7635102   0.112   1.753   3.907 -0.1595  0.6167  0.3457
   84RES    H7735103   0.027   1.939   4.008  1.2387 -0.8848 -0.2436
   84RES    H7835104   7.586   1.906   3.964  0.9918  1.8137 -0.3101
   84RES    H7935105   7.598   1.881   4.206 -0.5090  1.2070 -1.9242
   84RES    H8035106   7.577   1.725   4.138  1.1077 -0.7953 -0.9151
   84RES    H8135107   0.083   1.666   4.152 -0.6215  0.1854 -0.7867
   84RES    H8235108   0.025   1.692   4.311 -2.1395 -0.8984 -0.5494
   84RES    H8335109   0.228   1.853   4.156 -0.4084  0.0146 -0.7320
   84RES    H8435110   0.132   1.941   4.280 -0.4859 -0.6599 -0.8829
   84RES    H8535111   0.229   1.815   4.329 -0.4915  0.9731  0.5067
   84RES    C8635112   0.027   1.961   3.721 -0.0109  0.0574  0.4366
   84RES    C8735113   0.180   1.964   3.692  0.2764  0.4925  0.1106
   84RES    C8835114   0.225   1.934   3.545  0.8014  0.8575 -0.2675
   84RES    C8935115   0.376   1.909   3.528 -0.0329  0.2798 -0.5216
   84RES    C9035116   0.423   1.849   3.389 -0.8684  0.3039  0.5441
   84RES    C9135117   0.562   1.789   3.393 -0.5160 -0.0910  0.4831
   84RES    C9235118   0.585   1.667   3.474  0.2297  0.2129  0.0371
   84RES    H9335119   7.706   2.012   3.637  0.3462 -1.0943 -0.4690
   84RES    H9435120   0.009   2.030   3.804  0.4026 -0.1209  0.6731
   84RES    H9535121   0.230   1.892   3.757  2.2583  0.6373 -1.2053
   84RES    H9635122   0.169   1.845   3.516  1.1242  0.1602  1.2208
   84RES    H9735123   0.195   2.013   3.476  0.0192 -0.1635 -1.1132
   84RES    H9835124   0.437   1.999   3.539  1.2569 -0.7346  0.7717
   84RES    H9935125   0.407   1.838   3.605 -0.8365 -1.1046 -1.4473
   84RES   H10035126   0.413   1.924   3.310 -1.8030  0.0899  0.4626
   84RES   H10135127   0.352   1.768   3.371 -0.3978 -0.1476  0.6951
   84RES   H10235128   0.574   1.768   3.287 -0.5441  3.0085 -0.2040
   84RES   H10335129   0.638   1.855   3.433 -1.4507  0.5275  1.2690
   84RES   H10435130   0.673   1.613   3.440  1.7030  1.9085  1.0874
   84RES   H10535131   0.508   1.590   3.469 -1.4285  1.8916 -1.5655
   84RES   H10635132   0.612   1.692   3.576  3.0090 -1.0063 -0.3563
   84RES   C10735133   0.233   2.109   3.731 -0.3198 -0.4695  0.4546
   84RES   C10835134   0.264   2.130   3.880 -0.2635  0.0153  0.2682
   84RES   C10935135   0.376   2.048   3.938 -0.1803  1.2690  0.0339
   84RES   C11035136   0.510   2.098   3.898 -0.1616 -0.3895 -0.1569
   84RES   C11135137   0.632   2.038   3.978  0.3987  0.7656  0.4987
   84RES   C11235138   0.666   1.899   3.927 -0.0021 -0.7049 -0.1973
   84RES   C11335139   0.766   1.914   3.806  0.6190 -0.6310  0.7003
   84RES   H11435140   0.157   2.178   3.695  0.0218 -0.1878  0.2720
   84RES   H11535141   0.327   2.127   3.678 -0.9639 -0.5839 -0.7390
   84RES   H11635142   0.174   2.100   3.934 -2.7739  2.8878 -2.0931
   84RES   H11735143   0.371   1.948   3.895  0.3055  0.2450  2.2927
   84RES   H11835144   0.361   2.039   4.045 -0.8587  0.0562 -0.1589
   84RES   H11935145   0.513   2.093   3.789  1.2082 -1.5464 -0.0766
   84RES   H12035146   0.518   2.205   3.921  1.3844 -0.2020 -1.5201
   84RES   H12135147   0.607   2.042   4.084  1.6705 -2.1167  0.9319
   84RES   H12235148   0.716   2.107   3.972 -2.3855  4.1838 -2.3604
   84RES   H12335149   0.705   1.840   4.010 -0.1630  1.4573  1.4456
   84RES   H12435150   0.574   1.851   3.894 -0.2374  1.5137 -2.9543
   84RES   H12535151   0.722   1.980   3.731 -0.4950 -1.2340  0.8136
   84RES   H12635152   0.861   1.966   3.821 -0.3784  1.2104  0.7631
   84RES   H12735153   0.784   1.816   3.760  2.4794 -1.7646  3.6834
   84RES   C12835154   0.256   2.288   3.909  0.2382 -0.7304  0.4301
   84RES   C12935155   0.272   2.330   4.052  0.0848 -0.1596 -0.4112
   84RES   C13035156   0.165   2.262   4.141  0.3563 -0.1170  0.1470
   84RES   C13135157   0.018   2.294   4.113  0.2910 -0.0784 -0.1274
   84RES   C13235158   7.654   2.219   4.209 -0.7620  0.1121  0.3132
   84RES   C13335159   7.622   2.303   4.333 -0.2855  0.6219  0.0802
   84RES   C13435160   7.724   2.330   4.437  0.5047  0.3628  0.1836
   84RES   H13535161   0.331   2.345   3.854 -0.0277 -0.1253  0.6858
   84RES   H13635162   0.159   2.330   3.881  0.6238  0.4204  0.8191
   84RES   H13735163   0.365   2.282   4.082  0.5273 -0.0112 -1.5362
   84RES   H13835164   0.173   2.294   4.245 -2.0826 -1.1357  0.6699
   84RES   H13935165   0.178   2.154   4.134  0.6292 -0.0970  0.3208
   84RES   H14035166   0.006   2.251   4.013 -0.6495  0.7607 -0.3877
   84RES   H14135167   7.727   2.401   4.100  0.0986  0.1951  2.2882
   84RES   H14235168   7.706   2.130   4.245  0.9318  1.4842  1.3150
   84RES   H14335169   7.564   2.192   4.153  0.5504 -0.1135 -1.7497
   84RES   H14435170   7.533   2.252   4.370 -0.2341  0.3080 -0.2289
   84RES   H14535171   7.591   2.401   4.298  0.3331  0.3963 -1.1311
   84RES   H14635172   0.037   2.238   4.482 -1.2234 -0.3945  0.1811
   84RES   H14735173   7.685   2.399   4.512 -2.7212 -2.4862  1.2522
   84RES   H14835174   0.078   2.383   4.386 -0.5056  2.4931  0.7263
   84RES   C14935175   0.285   2.483   4.068 -0.1564  0.3142 -0.1773
   84RES   C15035176   0.433   2.534   4.058 -0.8751  0.0073  0.3428
   84RES   C15135177   0.488   2.542   4.202 -0.2000 -0.1249 -0.0627
   84RES   C15235178   0.645   2.557   4.212  0.5455  0.2841 -0.0123
   84RES   C15335179   0.683   2.597   4.361 -0.1730  0.1655  0.2588
   84RES   C15435180   0.831   2.635   4.376 -0.6920 -0.2502 -0.3019
   84RES   C15535181   0.855   2.774   4.329 -0.1454 -0.1370  0.7262
   84RES   H15635182   0.205   2.535   4.016 -0.2632 -0.2150 -0.5574
   84RES   H15735183   0.253   2.504   4.169  0.1736  0.2029 -0.0488
   84RES   H15835184   0.500   2.459   4.014  0.5033  1.3763  0.0912
   84RES   H15935185   0.451   2.633   4.249  0.3364 -0.2518  0.6104
   84RES   H16035186   0.447   2.456   4.256 -0.1631 -0.4992 -0.6301
   84RES   H16135187   0.667   2.647   4.154 -1.4644  0.0169 -1.2398
   84RES   H16235188   0.708   2.483   4.164  0.4136 -2.1249  3.3515
   84RES   H16335189   0.676   2.506   4.420 -1.1551 -0.6988 -1.1485
   84RES   H16435190   0.616   2.678   4.388  0.6064  0.7429  0.4762
   84RES   H16535191   0.886   2.562   4.317  1.2266  0.1682  0.9230
   84RES   H16635192   0.873   2.626   4.476  0.6509  0.0769 -0.8314
   84RES   H16735193   0.833   2.788   4.223 -0.2479 -0.4880  0.7019
   84RES   H16835194   0.963   2.793   4.326 -0.5359  1.9420 -3.3525
   84RES   H16935195   0.799   2.855   4.376 -2.1192 -0.9503 -0.2012
   84RES   C17035196   0.435   2.669   3.988  0.7617 -0.1830  0.1537
   84RES   C17135197   0.454   2.649   3.833  0.3646 -0.2015  0.5664
   84RES   C17235198   0.401   2.781   3.760 -0.5571  0.2508 -0.8157
   84RES   C17335199   0.486   2.907   3.761  0.0943  0.2134  0.4593
   84RES   C17435200   0.406   3.017   3.690  0.2903 -0.9290 -0.2850
   84RES   C17535201   0.493   3.135   3.642 -0.5370 -0.6269  0.4449
   84RES   C17635202   0.601   3.097   3.547  0.1033 -0.4220 -0.3383
   84RES   H17735203   0.526   2.722   4.014  0.4961  0.7535 -0.7722
   84RES   H17835204   0.351   2.734   4.014 -1.2737 -2.0220 -1.4961
   84RES   H17935205   0.388   2.574   3.791 -0.1983  2.1252 -2.9051
   84RES   H18035206   0.301   2.801   3.797  0.4368  0.8472  1.6427
   84RES   H18135207   0.393   2.758   3.654 -0.5430  0.5923 -0.8892
   84RES   H18235208   0.576   2.886   3.705 -0.6555 -1.5526 -0.1147
   84RES   H18335209   0.518   2.943   3.859 -1.5413 -0.0065  1.0936
   84RES   H18435210   0.344   3.062   3.768  1.8695  1.0841 -0.1513
   84RES   H18535211   0.361   2.982   3.597 -0.3489 -1.4005  0.1962
   84RES   H18635212   0.547   3.178   3.727  1.1767  1.3553 -1.5676
   84RES   H18735213   0.427   3.217   3.612  0.1520  0.3481  1.5224
   84RES   H18835214   0.583   3.030   3.464 -2.0065 -1.3538  0.8338
   84RES   H18935215   0.681   3.054   3.607  0.0317 -1.0691 -0.7072
   84RES   H19035216   0.628   3.194   3.504 -2.4301  1.8682  2.9773
   84RES   C19135217   0.591   2.603   3.780 -0.3041  0.4450  0.1131
   84RES   C19235218   0.610   2.557   3.632 -0.0749 -0.2105  0.3285
   84RES   C19335219   0.758   2.546   3.586 -0.3881 -0.3643  0.2034
   84RES   C19435220   0.848   2.686   3.587  0.5435  0.1571 -0.0767
   84RES   C19535221   0.811   2.775   3.468 -0.0261  0.2935  0.0145
   84RES   C19635222   0.894   2.902   3.460 -0.1031 -0.2349 -0.3271
   84RES   C19735223   1.032   2.898   3.399 -0.9403 -0.5623 -0.0973
   84RES   H19835224   0.624   2.519   3.840  0.5493  1.0343  0.4828
   84RES   H19935225   0.661   2.683   3.802  1.9421 -1.0808 -1.2796
   84RES   H20035226   0.551   2.623   3.568  0.4905 -0.9601 -0.9820
   84RES   H20135227   0.762   2.489   3.493 -2.7174 -1.2861  0.6309
   84RES   H20235228   0.811   2.479   3.654 -0.0361 -0.9223 -0.6152
   84RES   H20335229   0.952   2.655   3.586  0.0597 -1.7714  2.4803
   84RES   H20435230   0.843   2.733   3.686 -1.6458  0.3724 -0.2526
   84RES   H20535231   0.801   2.719   3.375 -1.0229  0.7619 -0.1720
   84RES   H20635232   0.704   2.789   3.486 -0.0843  0.3988 -0.3954
   84RES   H20735233   0.887   2.940   3.562 -1.3237 -0.6520 -0.2510
   84RES   H20835234   0.842   2.982   3.406  0.0151  0.0243 -0.0546
   84RES   H20935235   1.063   2.996   3.363  2.3952 -1.2715  0.7316
   84RES   H21035236   1.031   2.833   3.312  1.2618  1.8832 -2.0136
   84RES   H21135237   1.111   2.867   3.467 -1.6508  1.0370  1.5131
   84RES   C21235238   0.537   2.418   3.606 -0.0267  0.1861 -0.5884
   84RES   C21335239   0.482   2.399   3.465 -0.4113 -0.0345  0.5303
   84RES   C21435240   0.538   2.276   3.384  0.2409  0.3607 -0.2012
   84RES   C21535241   0.509   2.258   3.236 -0.0300 -0.2490  0.1427
   84RES   C21635242   0.605   2.145   3.178 -0.7149 -0.5246 -0.1428
   84RES   C21735243   0.570   2.098   3.037  0.3300 -0.5670  0.7862
   84RES   C21835244   0.683   1.995   2.987  0.2907  0.2380  0.0340
   84RES   H21935245   0.455   2.406   3.677  1.0723  1.0018  0.8685
   84RES   H22035246   0.616   2.345   3.627 -0.2077  0.1864  0.1287
   84RES   H22135247   0.524   2.477   3.403  1.8298 -1.0602  0.7315
   84RES   H22235248   0.646   2.288   3.391  0.2607  0.8795 -1.3545
   84RES   H22335249   0.503   2.186   3.435  0.2069  0.2187 -0.4742
   84RES   H22435250   0.521   2.353   3.185  0.5536 -0.7562 -0.6803
   84RES   H22535251   0.404   2.227   3.229 -0.0046 -0.3446  0.1855
   84RES   H22635252   0.703   2.191   3.185 -0.9911 -0.1747  1.7980
   84RES   H22735253   0.602   2.058   3.244 -3.1490 -1.6377 -1.6222
   84RES   H22835254   0.486   2.029   3.048 -0.6466  0.4061 -0.4185
   84RES   H22935255   0.545   2.172   2.961  0.1314 -1.5569 -0.1388
   84RES   H23035256   0.687   1.909   3.054 -1.2657 -0.1369 -0.3178
   84RES   H23135257   0.785   2.033   2.981  0.4372 -0.2626 -0.8654
   84RES   H23235258   0.652   1.961   2.888 -0.3605 -0.4016  0.4467
   84RES   C23335259   0.334   2.408   3.463  0.5957 -0.1197 -0.5485
   84RES   C23435260   0.272   2.559   3.475 -0.1206  0.1681 -0.5699
   84RES   C23535261   0.290   2.647   3.347 -0.8618  0.2963  0.1186
   84RES   C23635262   0.234   2.597   3.211 -0.7300  0.2870  0.1100
   84RES   C23735263   0.268   2.688   3.096  0.3186  0.4344  0.7272
   84RES   C23835264   0.182   2.817   3.101 -0.1877  0.1757  0.0238
   84RES   C23935265   0.171   2.897   2.972  0.2112  0.7520 -0.1181
   84RES   H24035266   0.278   2.346   3.533 -1.8335  0.6557 -1.7487
   84RES   H24135267   0.307   2.373   3.364 -0.4265  2.5064 -1.2344
   84RES   H24235268   0.328   2.611   3.553 -0.9827  1.2984 -0.6972
   84RES   H24335269   0.396   2.669   3.334 -0.1781 -2.7145  0.2746
   84RES   H24435270   0.239   2.740   3.372 -0.7175 -0.0573  1.7914
   84RES   H24535271   0.126   2.587   3.225 -0.6063  1.7756  2.4123
   84RES   H24635272   0.278   2.500   3.189 -2.0299 -0.0767 -0.9728
   84RES   H24735273   0.252   2.645   2.997  0.3697 -0.3586  1.0552
   84RES   H24835274   0.377   2.698   3.088  0.5715 -2.5490 -0.3881
   84RES   H24935275   0.083   2.777   3.127 -0.7369 -0.2139 -2.5203
   84RES   H25035276   0.222   2.884   3.177  0.5833  0.9427 -1.0519
   84RES   H25135277   0.270   2.904   2.926  1.2447  3.5636  2.3625
   84RES   H25235278   0.104   2.841   2.906 -0.4709  0.3765  0.8839
   84RES   H25335279   0.117   2.990   2.984  0.4608  1.1908 -2.1883
   84RES   C25435280   0.131   2.557   3.536  0.0180 -0.8578  0.0298
   84RES   C25535281   0.060   2.692   3.562 -0.0954  0.6779  0.2610
   84RES   C25635282   7.719   2.684   3.702 -0.3387  1.1854 -0.6940
   84RES   C25735283   7.618   2.569   3.714  0.1921 -0.1349 -0.3409
   84RES   C25835284   7.548   2.578   3.852 -0.3448 -0.1616 -0.5791
   84RES   C25935285   7.420   2.487   3.854  0.4856 -0.0225  0.1032
   84RES   C26035286   7.370   2.481   3.998 -0.5302  0.5967 -0.0225
   84RES   H26135287   0.152   2.514   3.635 -0.2376 -0.8884  0.0714
   84RES   H26235288   0.060   2.497   3.480 -1.1039 -0.1579  0.6905
   84RES   H26335289   0.123   2.781   3.561 -0.4695  0.9405  0.0009
   84RES   H26435290   7.685   2.782   3.735 -0.8446  1.2303 -1.3528
   84RES   H26535291   0.067   2.657   3.777 -0.1388 -1.1924 -1.6918
   84RES   H26635292   7.549   2.572   3.629 -1.0813  1.5065  0.7245
   84RES   H26735293   7.646   2.463   3.707 -1.0074 -0.4946  0.2822
   84RES   H26835294   7.498   2.674   3.866  0.1665 -0.1888  1.5223
   84RES   H26935295   7.620   2.551   3.929 -1.2701  0.0657  0.3781
   84RES   H27035296   7.340   2.526   3.790 -0.3228 -2.1302 -0.2096
   84RES   H27135297   7.443   2.388   3.816  0.2503  0.8113 -2.2839
   84RES   H27235298   7.283   2.415   4.000  0.2953 -0.4866  1.8895
   84RES   H27335299   7.447   2.437   4.061  0.9244  2.0705 -0.7488
   84RES   H27435300   7.336   2.574   4.043  0.2139  0.4067  0.9494
   84RES   C27535301   7.691   2.726   3.450  0.0250 -0.2391 -0.7539
   84RES   C27635302   7.617   2.870   3.458 -0.7435 -0.9551 -0.5874
   84RES   C27735303   7.480   2.879   3.391 -0.5652  0.2081  0.3034
   84RES   C27835304   7.368   2.798   3.446 -0.3109 -0.3125  0.5415
   84RES   C27935305   7.243   2.824   3.367 -0.1558  0.1619  0.4516
   84RES   C28035306   7.135   2.711   3.365 -0.0804 -0.4587  0.0153
   84RES   C28135307   7.001   2.777   3.338 -0.1070 -0.2441  0.8192
   84RES   H28235308   7.619   2.649   3.423 -0.9731  0.7281 -0.9242
   84RES   H28335309   0.022   2.730   3.358 -0.9835  0.6817 -1.3651
   84RES   H28435310   7.595   2.890   3.563  2.0628 -1.2631  0.0966
   84RES   H28535311   7.456   2.986   3.387 -0.7128  0.2356  1.8544
   84RES   H28635312   7.492   2.841   3.289 -1.8926 -1.1959  0.6473
   84RES   H28735313   7.373   2.812   3.554 -0.6550 -0.8426  0.6296
   84RES   H28835314   7.393   2.693   3.432  1.2176 -0.3545  3.3351
   84RES   H28935315   7.274   2.840   3.263 -2.1389  0.2366 -0.1477
   84RES   H29035316   7.213   2.924   3.399  0.5463  0.8138 -0.8731
   84RES   H29135317   7.159   2.623   3.307  0.9550 -1.4420  1.8751
   84RES   H29235318   7.131   2.670   3.466  2.4718  0.0350  0.3461
   84RES   H29335319   6.918   2.707   3.325 -0.1387 -0.0175 -0.2551
   84RES   H29435320   7.002   2.844   3.252  0.5069 -1.3699 -0.0711
   84RES   H29535321   6.974   2.851   3.413  0.7940  2.0342 -1.0260
   84RES   C29635322   7.714   2.976   3.404  0.2419 -0.3516 -0.5623
   84RES   C29735323   7.690   3.127   3.452 -0.3637  0.3048 -0.2288
   84RES   C29835324   7.666   3.227   3.347 -0.2788  0.2329  0.1594
   84RES   C29935325   0.045   3.237   3.239  0.3959 -0.4650 -0.3404
   84RES   C30035326   0.039   3.374   3.178  0.2999  0.3942  0.4247
   84RES   C30135327   0.140   3.402   3.069  0.5839  0.4250 -0.4610
   84RES   C30235328   0.131   3.320   2.939 -0.4402 -0.2650  0.6292
   84RES   H30335329   0.091   2.950   3.427 -0.1214 -0.7475  0.6590
   84RES   H30435330   7.690   2.967   3.298 -0.5169 -0.8342 -0.3455
   84RES   H30535331   7.592   3.113   3.498 -1.0076  2.6813 -0.8202
   84RES   H30635332   7.579   3.194   3.291  0.1183 -0.8923  0.1895
   84RES   H30735333   7.643   3.316   3.405 -0.6801 -0.3806  0.9645
   84RES   H30835334   0.023   3.170   3.156  0.1512  1.3275 -1.7529
   84RES   H30935335   0.146   3.212   3.272  0.4528 -0.3970 -0.4592
   84RES   H31035336   0.044   3.450   3.256  0.2555 -0.6846  1.4873
   84RES   H31135337   7.670   3.383   3.126  1.0030 -3.8455 -1.7866
   84RES   H31235338   0.131   3.509   3.048 -1.4152  0.0729 -1.5185
   84RES   H31335339   0.244   3.394   3.102  0.7798  1.1542 -0.8777
   84RES   H31435340   0.035   3.285   2.901  0.3193  0.0639 -1.6678
   84RES   H31535341   0.177   3.373   2.855  1.4568 -1.4938  0.8659
   84RES   H31635342   0.188   3.230   2.963  0.2323  0.2691  1.0277
   84RES   C31735343   0.067   3.176   3.561 -0.6665  0.0398  0.1201
   84RES   C31835344   0.007   3.278   3.659 -0.3781 -0.1076  0.0147
   84RES   C31935345   7.614   3.221   3.745 -0.7732  1.7487  0.0483
   84RES   C32035346   7.627   3.085   3.821  0.1603  0.1261  0.0618
   84RES   C32135347   7.488   3.063   3.889 -0.0406 -0.3054  0.1556
   84RES   C32235348   7.511   2.956   3.998 -0.2286  0.0046 -0.1369
   84RES   C32335349   7.386   2.890   4.057  0.0758  0.1022 -0.5840
   84RES   H32435350   0.155   3.215   3.508 -0.2292 -1.2501 -0.1323
   84RES   H32535351   0.098   3.090   3.620 -0.4703 -0.6888 -1.0285
   84RES   H32635352   7.694   3.360   3.599 -1.4521  0.6351  1.6955
   84RES   H32735353   7.530   3.219   3.676 -0.5437  1.9398 -0.2374
   84RES   H32835354   7.590   3.300   3.817  1.8367  2.9012 -0.2548
   84RES   H32935355   7.703   3.077   3.898  0.0319 -0.7130  0.1143
   84RES   H33035356   7.633   3.008   3.743 -0.1293  0.6798 -0.5127
   84RES   H33135357   7.427   3.016   3.811 -2.1178  0.5320  1.2222
   84RES   H33235358   7.445   3.154   3.931  0.5259 -0.0628  0.2047
   84RES   H33335359   7.574   2.991   4.079 -0.0612 -0.1786 -0.1872
   84RES   H33435360   7.573   2.876   3.956  0.7445 -0.3019  1.8397
   84RES   H33535361   7.415   2.795   4.102  0.4469 -0.0638 -1.1748
   84RES   H33635362   7.322   2.848   3.980  0.0119 -0.3870 -0.2711
   84RES   H33735363   7.319   2.950   4.119 -0.4454 -1.1124  0.0541
   84RES   C33835364   0.116   3.334   3.752 -0.4059  0.6008 -0.1899
   84RES   C33935365   0.093   3.472   3.817  0.0849  0.1514 -0.6006
   84RES   C34035366   0.122   3.585   3.725  0.3610 -0.5981  0.1698
   84RES   C34135367   0.257   3.587   3.646 -0.1479 -0.0137  0.9807
   84RES   C34235368   0.279   3.720   3.575 -0.1004 -0.3943 -0.0270
   84RES   C34335369   0.403   3.721   3.481  0.0544 -0.3288 -0.4139
   84RES   C34435370   0.526   3.734   3.570  0.0773 -0.0793 -0.1800
   84RES   H34535371   0.213   3.339   3.701 -0.4815 -1.0328 -0.5284
   84RES   H34635372   0.131   3.263   3.833 -2.4863 -1.2452 -1.3803
   84RES   H34735373   7.711   3.468   3.828  0.2206  1.8239  1.9366
   84RES   H34835374   0.036   3.577   3.658  1.4932 -1.3146 -1.2417
   84RES   H34935375   0.107   3.679   3.777  0.1068  0.0129 -0.9856
   84RES   H35035376   0.258   3.498   3.583  0.0689  1.8061 -1.6745
   84RES   H35135377   0.339   3.560   3.712  0.7072  0.7667  0.2464
   84RES   H35235378   0.188   3.763   3.533 -0.5733  0.7901  2.0852
   84RES   H35335379   0.303   3.802   3.644  0.1909  1.4181 -2.2175
   84RES   H35435380   0.413   3.633   3.418  3.5131  1.3614 -2.3194
   84RES   H35535381   0.388   3.804   3.412  1.4513  0.0060 -0.3151
   84RES   H35635382   0.616   3.719   3.510  0.2904  1.3506 -0.2311
   84RES   H35735383   0.531   3.661   3.650 -1.6269  0.7644  0.7019
   84RES   H35835384   0.529   3.831   3.620 -0.6217 -0.5891  0.8418
   84RES   C35935385   0.172   3.489   3.949  0.6726  0.2791 -0.0912
   84RES   C36035386   0.093   3.430   4.069  0.0777  0.0198 -0.0549
   84RES   C36135387   0.194   3.382   4.176  0.2203 -0.3972 -0.1560
   84RES   C36235388   0.254   3.246   4.144  0.1528 -0.2742 -0.2654
   84RES   C36335389   0.350   3.176   4.236  0.2745 -0.5432  0.8672
   84RES   C36435390   0.414   3.048   4.180 -0.7886  0.6501 -0.0316
   84RES   C36535391   0.495   2.976   4.297  0.6413 -0.3633  0.6305
   84RES   H36635392   0.184   3.596   3.967  2.0168 -0.2527  2.3456
   84RES   H36735393   0.273   3.448   3.936  0.7583  0.2708  0.5725
   84RES   H36835394   0.040   3.341   4.036  2.8673 -0.9132 -2.2143
   84RES   H36935395   0.277   3.453   4.184 -0.7377  0.4546  2.7103
   84RES   H37035396   0.142   3.369   4.271 -0.9343  0.5128 -0.6665
   84RES   H37135397   0.175   3.174   4.123 -1.0047  1.0268 -0.4635
   84RES   H37235398   0.300   3.260   4.046  0.3807 -0.3162 -0.1635
   84RES   H37335399   0.420   3.242   4.287 -1.2061  0.7500  1.2554
   84RES   H37435400   0.292   3.137   4.320  0.8890 -2.3525  0.4938
   84RES   H37535401   0.334   2.987   4.137 -0.0792 -1.3678  1.4569
   84RES   H37635402   0.484   3.075   4.101  0.6820 -1.5989  0.4547
   84RES   H37735403   0.522   2.872   4.277 -2.8112 -1.3403  0.6120
   84RES   H37835404   0.591   3.025   4.312 -0.6958  2.4293  0.3403
   84RES   H37935405   0.427   2.977   4.383  0.6516  0.8413  0.6212
   84RES   C38035406   7.719   3.538   4.124  0.1223 -0.0549  0.4196
   84RES   C38135407   7.648   3.500   4.261  0.1194  0.1624  0.2492
   84RES   C38235408   7.549   3.610   4.283 -0.1178  0.2227 -0.3806
   84RES   C38335409   7.463   3.606   4.417 -0.3415  0.0194 -0.4264
   84RES   C38435410   7.399   3.733   4.441 -0.1595  0.4824 -0.1669
   84RES   C38535411   7.501   3.844   4.479  0.4623  0.0691  0.0061
   84RES   C38635412   7.425   3.952   4.550 -0.1626  0.0201 -0.9474
   84RES   H38735413   0.048   3.631   4.137  0.0380 -0.4068  3.9232
   84RES   H38835414   7.640   3.556   4.051 -0.1592 -0.7810  0.5388
   84RES   H38935415   7.718   3.497   4.344 -0.1868  1.2298  0.5577
   84RES   H39035416   7.477   3.602   4.202 -2.8301  3.3512  1.5899
   84RES   H39135417   7.607   3.702   4.285 -0.6057  0.5599  4.3944
   84RES   H39235418   7.391   3.524   4.419  1.0817 -1.2293  2.3468
   84RES   H39335419   7.523   3.590   4.506 -0.6188  0.8427 -0.0882
   84RES   H39435420   7.336   3.757   4.355 -2.4586  1.2884  1.6888
   84RES   H39535421   7.327   3.721   4.521 -0.6179 -0.0603 -0.6581
   84RES   H39635422   7.558   3.884   4.396  1.3740 -1.9252 -0.3669
   84RES   H39735423   7.590   3.813   4.535  1.4779  2.0022 -0.4720
   84RES   H39835424   7.479   4.042   4.581 -1.7018  0.7065 -0.2249
   84RES   H39935425   7.378   3.903   4.635 -1.6712  0.2426 -1.6398
   84RES   H40035426   7.344   3.992   4.490  1.8179  2.9318 -1.8299
   84RES   C40135427   7.570   3.359   4.239  0.4267 -0.1070 -0.3316
   84RES   C40235428   7.552   3.282   4.373  0.7921 -0.4961  0.1313
   84RES   C40335429   7.544   3.136   4.359 -0.1696 -0.1010  0.8937
   84RES   C40435430   7.682   3.083   4.338 -0.0802  0.1177  1.0230
   84RES   C40535431   7.691   2.923   4.348 -0.2378  0.1640 -0.2877
   84RES   C40635432   0.109   2.885   4.310 -0.0184 -0.2504  0.1648
   84RES   C40735433   0.135   2.737   4.310  0.0294  0.6364  0.1535
   84RES   H40835434   7.629   3.290   4.178 -1.8357 -2.1836 -0.2527
   84RES   H40935435   7.467   3.366   4.206  0.1736  0.5862  0.5801
   84RES   H41035436   7.457   3.312   4.418  2.1001  1.1164  1.8447
   84RES   H41135437   7.468   3.111   4.284 -0.2788 -0.5209  1.1441
   84RES   H41235438   7.511   3.102   4.457 -1.1562  0.2317  0.6850
   84RES   H41335439   0.017   3.123   4.419 -1.6275 -1.8887  3.2540
   84RES   H41435440   7.723   3.119   4.244  0.3195 -0.5524  0.9319
   84RES   H41535441   7.672   2.890   4.450 -0.7314  0.9770 -0.1084
   84RES   H41635442   7.620   2.881   4.276  0.7325  2.3162 -2.5739
   84RES   H41735443   0.134   2.927   4.213 -1.7103 -0.2186 -0.2775
   84RES   H41835444   0.179   2.932   4.379  0.7102 -0.6016 -0.3315
   84RES   H41935445   0.209   2.715   4.234 -0.3300  1.9354 -0.5784
   84RES   H42035446   0.049   2.675   4.285 -0.6915  1.6447  0.1121
   84RES   H42135447   0.179   2.705   4.404 -0.5273 -0.3812  0.0815
   84RES   H42235448   7.629   3.317   4.441  1.2259  0.6877 -0.9508
   85RES     C135449   6.680   4.824   6.509 -0.1106 -0.1100 -0.0405
   85RES     C235450   6.778   4.864   6.624  1.3721  0.3788 -0.1164
   85RES     C335451   6.853   4.738   6.675  0.1642 -0.1314 -0.0005
   85RES     C435452   6.768   4.643   6.761  0.2435 -0.4386 -0.4860
   85RES     C535453   6.848   4.515   6.793 -0.5639 -0.7671  0.6147
   85RES     C635454   6.764   4.389   6.839 -0.3125 -0.5933  0.4993
   85RES     C735455   6.714   4.411   6.980 -0.2700  0.1841 -0.1899
   85RES     H835456   6.656   4.911   6.448 -1.6053 -1.5639 -1.5646
   85RES     H935457   6.589   4.780   6.548 -0.8560  1.0730 -0.4233
   85RES    H1035458   6.855   4.914   6.565  1.1958  1.2140  0.3566
   85RES    H1135459   6.908   4.688   6.595  0.5946  1.8276 -0.9709
   85RES    H1235460   6.931   4.763   6.747 -1.0094  0.0466  1.2342
   85RES    H1335461   6.739   4.683   6.859 -0.4753 -2.7295  0.2739
   85RES    H1435462   6.679   4.625   6.702 -0.2909  1.9515 -0.4776
   85RES    H1535463   6.932   4.526   6.861 -0.1008  0.8959 -0.2122
   85RES    H1635464   6.887   4.480   6.698 -1.3556 -0.2685  0.1007
   85RES    H1735465   6.826   4.300   6.832  0.1482 -0.2821  0.5835
   85RES    H1835466   6.679   4.377   6.771 -0.2104 -2.4259  0.6771
   85RES    H1935467   6.662   4.506   6.984 -1.7229 -0.4505 -2.7632
   85RES    H2035468   6.789   4.404   7.059  0.0127  2.0792 -0.2719
   85RES    H2135469   6.645   4.329   6.998  1.5186 -1.7696 -1.8805
   85RES    H2235470   6.732   4.756   6.442  3.1237  0.4637  1.7812
   85RES    C2335471   6.711   4.948   6.736  0.5295  0.0842 -0.0783
   85RES    C2435472   6.799   4.989   6.863  0.7619  0.4707  0.4764
   85RES    C2535473   6.702   5.061   6.956  0.8432 -0.4124  0.0694
   85RES    C2635474   6.597   4.989   7.023 -0.3500  0.1141 -0.3329
   85RES    C2735475   6.540   5.076   7.129 -0.2922 -0.0975  0.5120
   85RES    C2835476   6.418   5.012   7.201 -0.2275  0.3910  0.6739
   85RES    C2935477   6.381   5.105   7.321 -0.2958  0.3911 -0.5698
   85RES    H3035478   6.667   5.041   6.702 -1.7052 -0.7261  0.4734
   85RES    H3135479   6.623   4.891   6.767  0.4674 -0.2001 -0.7660
   85RES    H3235480   6.838   4.894   6.900 -0.7391 -1.9666 -3.8121
   85RES    H3335481   6.667   5.155   6.914  1.0408 -0.3338  0.0801
   85RES    H3435482   6.766   5.095   7.037 -0.1564 -1.3173  1.2498
   85RES    H3535483   6.643   4.901   7.069 -0.1436 -0.1785 -1.0902
   85RES    H3635484   6.519   4.966   6.951  1.2924  0.4101 -2.2509
   85RES    H3735485   6.486   5.163   7.091 -0.7111 -1.0397 -1.1061
   85RES    H3835486   6.609   5.104   7.208  0.2607  3.0042 -1.0010
   85RES    H3935487   6.435   4.915   7.248  0.4091 -0.7027 -1.7317
   85RES    H4035488   6.329   4.989   7.143 -0.8065 -1.6071  2.2727
   85RES    H4135489   6.293   5.072   7.376 -0.7932 -0.4390 -1.8365
   85RES    H4235490   6.469   5.123   7.383  0.4168  0.0463 -1.4664
   85RES    H4335491   6.356   5.206   7.288 -0.8005  0.0596 -1.1870
   85RES    C4435492   6.920   5.068   6.816  0.1344  0.7966 -0.3414
   85RES    C4535493   7.049   5.068   6.908 -0.4170  0.5260 -0.4305
   85RES    C4635494   7.128   4.935   6.899 -0.2599 -0.1310  0.1987
   85RES    C4735495   7.191   4.890   6.766  0.5605  0.2757  0.2143
   85RES    C4835496   7.283   4.762   6.775 -0.0058  0.1987 -0.0066
   85RES    C4935497   7.375   4.737   6.654  0.3755  0.6059 -0.3355
   85RES    C5035498   7.298   4.716   6.528  0.2403  0.2926 -0.2516
   85RES    H5135499   6.887   5.170   6.794 -0.2289  0.0238 -3.6063
   85RES    H5235500   6.957   5.034   6.720  3.2545  2.6283  0.1268
   85RES    H5335501   7.013   5.068   7.011  0.4019  0.4288 -0.1395
   85RES    H5435502   7.071   4.852   6.942 -0.8862  0.6549  0.9131
   85RES    H5535503   7.212   4.937   6.968  1.9364  0.3561 -2.4124
   85RES    H5635504   7.106   4.870   6.700 -2.1856 -0.0840  3.7388
   85RES    H5735505   7.235   4.980   6.722 -0.8322  0.2218 -1.3469
   85RES    H5835506   7.225   4.672   6.798  0.6699 -0.5261 -1.0737
   85RES    H5935507   7.350   4.775   6.860  0.5041  1.3355 -0.5707
   85RES    H6035508   7.447   4.656   6.668  1.1280  1.2150 -0.6135
   85RES    H6135509   7.430   4.829   6.635 -0.5133  1.2483  0.1477
   85RES    H6235510   7.271   4.814   6.489  1.1943 -0.4606 -2.9028
   85RES    H6335511   7.210   4.657   6.554  2.4643 -3.3432 -0.5570
   85RES    H6435512   7.348   4.659   6.449  1.7130  0.4309  0.5522
   85RES    C6535513   7.136   5.196   6.898 -0.5435 -0.3593 -0.3631
   85RES    C6635514   7.224   5.219   7.025 -0.0237 -0.2235 -0.8591
   85RES    C6735515   7.158   5.329   7.116  0.3233 -0.7445 -0.2467
   85RES    C6835516   7.018   5.300   7.174  0.2986  0.2388 -0.5041
   85RES    C6935517   6.963   5.409   7.267  0.4380  0.0532 -0.2684
   85RES    C7035518   6.812   5.398   7.272 -0.4526 -0.5967  0.6159
   85RES    C7135519   6.760   5.283   7.356 -0.3055  0.4104 -0.6566
   85RES    H7235520   7.189   5.177   6.805 -0.3792 -0.0538 -0.3312
   85RES    H7335521   7.059   5.272   6.884 -1.6974 -1.2253  1.0324
   85RES    H7435522   7.231   5.127   7.083  1.6125  0.6076  0.3241
   85RES    H7535523   7.226   5.354   7.197 -2.5912  1.3328  1.6559
   85RES    H7635524   7.163   5.413   7.047  1.1002 -0.8016 -0.2545
   85RES    H7735525   6.948   5.286   7.092  0.3642 -0.3718 -0.4539
   85RES    H7835526   7.030   5.201   7.219 -0.4231 -0.5912 -2.1049
   85RES    H7935527   7.019   5.401   7.361  2.2401 -0.1055 -1.3235
   85RES    H8035528   6.993   5.503   7.221  0.6338  0.2662  0.2803
   85RES    H8135529   6.775   5.398   7.170 -0.2923  1.3812  0.5396
   85RES    H8235530   6.772   5.491   7.313 -4.2978 -2.2267  0.8119
   85RES    H8335531   6.652   5.288   7.341 -0.4982 -1.4323 -0.0193
   85RES    H8435532   6.798   5.190   7.314 -0.2108 -0.3198  1.0181
   85RES    H8535533   6.792   5.271   7.460 -2.5179 -3.1423 -0.2842
   85RES    C8635534   7.370   5.255   6.980 -0.5682  0.7697 -0.3940
   85RES    C8735535   7.482   5.281   7.080  0.2793 -0.6904  0.3531
   85RES    C8835536   7.586   5.172   7.070  1.0748  0.5394 -0.2037
   85RES    C8935537   7.545   5.035   7.135 -0.2052 -0.0118 -0.1510
   85RES    C9035538   7.657   4.926   7.130 -0.3576 -0.2628  0.2427
   85RES    C9135539   7.620   4.788   7.184  0.2783  0.5928 -0.6969
   85RES    C9235540   0.001   4.679   7.148 -0.5102  0.4496 -0.3954
   85RES    H9335541   7.397   5.171   6.916 -2.4851  0.0208 -0.2374
   85RES    H9435542   7.365   5.339   6.910 -0.9047 -0.6519 -2.1127
   85RES    H9535543   7.453   5.266   7.184 -0.4915 -1.3193  0.0516
   85RES    H9635544   7.626   5.147   6.972  0.1330  0.2953 -0.5316
   85RES    H9735545   7.683   5.196   7.114  1.9566 -0.5412 -1.5021
   85RES    H9835546   7.522   5.053   7.240 -0.1478 -2.2723  0.2764
   85RES    H9935547   7.455   4.993   7.090 -0.3078 -1.0025  0.9442
   85RES   H10035548   0.024   4.962   7.173  0.9652 -1.9446 -1.1321
   85RES   H10135549   7.698   4.912   7.029 -0.4624 -0.1796  0.1893
   85RES   H10235550   7.613   4.794   7.293  1.5740 -2.6926 -0.3786
   85RES   H10335551   7.522   4.759   7.145 -0.3377  1.1519  0.3923
   85RES   H10435552   0.079   4.691   7.223  0.9376 -0.7749 -1.7044
   85RES   H10535553   0.030   4.690   7.044 -0.1079  0.5455 -0.2748
   85RES   H10635554   7.672   4.587   7.163 -0.4813  0.9375  3.2258
   85RES   C10735555   7.543   5.419   7.033  0.1646 -0.4219 -0.1777
   85RES   C10835556   7.462   5.546   7.080 -0.1543  0.5772  0.1473
   85RES   C10935557   7.489   5.570   7.232 -0.3561 -0.2011  0.2624
   85RES   C11035558   7.634   5.633   7.260 -0.1716 -0.3779 -0.1163
   85RES   C11135559   7.641   5.714   7.389  0.3082  0.2576  0.4696
   85RES   C11235560   7.622   5.625   7.514 -0.1630 -0.2381 -0.3305
   85RES   C11335561   7.616   5.722   7.639 -0.2655 -0.0744  0.8297
   85RES   H11435562   7.573   5.428   6.928  0.7788 -1.1106 -0.0685
   85RES   H11535563   7.634   5.419   7.093 -0.8919  2.1640  1.4990
   85RES   H11635564   7.358   5.518   7.067  0.3018 -1.1953  0.1865
   85RES   H11735565   7.485   5.477   7.289  1.9903 -1.3578 -1.3763
   85RES   H11835566   7.413   5.638   7.271 -0.0092  0.6129 -0.4471
   85RES   H11935567   7.713   5.558   7.266 -0.4812 -0.6503  0.6697
   85RES   H12035568   7.662   5.705   7.183 -0.4785 -0.5660 -0.4027
   85RES   H12135569   7.561   5.788   7.392  0.8520  0.8327  1.3236
   85RES   H12235570   0.011   5.764   7.393  0.7022 -0.5513  1.2755
   85RES   H12335571   7.527   5.571   7.515  0.2678 -0.9970  2.0985
   85RES   H12435572   7.702   5.552   7.517  0.1172  0.0684 -0.2859
   85RES   H12535573   7.529   5.787   7.633 -1.2513 -1.5267 -1.1765
   85RES   H12635574   7.600   5.673   0.009  1.5909  0.3971  1.4041
   85RES   H12735575   7.699   5.791   7.651  1.2451 -1.4453 -1.3150
   85RES   C12835576   7.479   5.678   7.007  0.2378  0.5484  0.0510
   85RES   C12935577   7.378   5.703   6.886  0.3024  0.4193 -0.1139
   85RES   C13035578   7.455   5.772   6.771  0.0912 -0.0752 -0.3928
   85RES   C13135579   7.521   5.906   6.814  0.0940  0.2009  0.4511
   85RES   C13235580   7.584   5.979   6.687  0.2700  0.1844 -1.0436
   85RES   C13335581   7.637   6.123   6.717 -0.0219  0.2510 -0.6659
   85RES   C13435582   7.630   6.220   6.592  0.2905  0.1821  0.4976
   85RES   H13535583   7.478   5.750   7.090  2.1297 -1.1887  1.6392
   85RES   H13635584   7.582   5.675   6.972 -0.3305  0.0288 -1.5809
   85RES   H13735585   7.383   5.600   6.850  1.6697  0.8456 -1.1683
   85RES   H13835586   7.389   5.783   6.685  1.2701 -1.2721 -1.4559
   85RES   H13935587   7.535   5.708   6.734  0.7905 -0.2945  1.4455
   85RES   H14035588   7.598   5.888   6.889  0.6965  1.2464  0.0965
   85RES   H14135589   7.451   5.984   6.844 -0.5020 -0.4412  0.7279
   85RES   H14235590   7.517   5.967   6.602 -0.4525  2.2377 -0.8051
   85RES   H14335591   7.672   5.920   6.662  1.7193  1.1999  1.4669
   85RES   H14435592   0.010   6.116   6.761 -0.7958  0.6173  1.2092
   85RES   H14535593   7.589   6.178   6.798  1.4541  1.3690 -0.5432
   85RES   H14635594   7.699   6.188   6.514 -1.7941 -3.1100 -0.0418
   85RES   H14735595   7.663   6.321   6.619 -0.0090  0.0271  1.4683
   85RES   H14835596   7.536   6.232   6.538  1.6429  1.8449 -1.5896
   85RES   C14935597   7.248   5.757   6.934  0.4468 -0.1145 -0.2315
   85RES   C15035598   7.127   5.751   6.841 -0.1898 -0.0436  0.2415
   85RES   C15135599   7.015   5.851   6.887  0.4401  0.1218 -0.3530
   85RES   C15235600   6.939   5.817   7.014  0.2647  0.1015 -0.1935
   85RES   C15335601   6.821   5.915   7.029 -0.1537 -0.4429 -0.0391
   85RES   C15435602   6.739   5.885   7.155 -0.5996 -0.1639 -0.8781
   85RES   C15535603   6.622   5.978   7.160 -0.1359  0.2189 -0.4277
   85RES   H15635604   7.223   5.698   7.022  2.3146  2.8657  2.4089
   85RES   H15735605   7.259   5.859   6.971  1.4547 -0.8113  1.4657
   85RES   H15835606   7.152   5.785   6.740 -1.4776 -0.2892 -0.1668
   85RES   H15935607   7.062   5.948   6.901  3.1602 -0.9188 -1.9644
   85RES   H16035608   6.948   5.863   6.802  1.4064  2.1609 -0.8587
   85RES   H16135609   7.004   5.821   7.101  1.2993 -0.9339 -0.9171
   85RES   H16235610   6.895   5.717   7.004  1.3558 -0.2474 -1.5714
   85RES   H16335611   6.743   5.907   6.954  0.1589  0.2638 -0.4518
   85RES   H16435612   6.868   6.014   7.027  0.2443 -0.6133  0.7003
   85RES   H16535613   6.794   5.905   7.247 -1.5447  1.6486 -0.6831
   85RES   H16635614   6.717   5.779   7.154 -1.9008  0.0889 -1.8280
   85RES   H16735615   6.563   5.951   7.248  1.0541 -3.0273 -0.5450
   85RES   H16835616   6.548   5.942   7.088  2.6369 -0.6962 -2.9529
   85RES   H16935617   6.640   6.085   7.157  1.0662  0.0855  1.3716
   85RES   C17035618   7.075   5.599   6.838  0.1443 -0.2576 -0.2792
   85RES   C17135619   6.959   5.572   6.736  0.4708  0.2222 -0.5880
   85RES   C17235620   7.019   5.502   6.610 -0.6433 -0.2337  0.1964
   85RES   C17335621   7.119   5.587   6.525  0.2013  0.3799  0.2475
   85RES   C17435622   7.189   5.495   6.423 -0.0344 -0.3943  0.3527
   85RES   C17535623   7.287   5.572   6.342  0.3313 -0.1860  0.6776
   85RES   C17635624   7.320   5.508   6.204  0.4609  0.7211  0.4927
   85RES   H17735625   7.033   5.566   6.934 -0.3919 -0.4523 -0.5769
   85RES   H17835626   7.160   5.532   6.829 -1.7950 -3.0788  1.4881
   85RES   H17935627   6.919   5.666   6.697 -0.4990  0.0896  0.0679
   85RES   H18035628   6.947   5.465   6.537  0.3956  0.9177 -1.4390
   85RES   H18135629   7.056   5.402   6.635  0.1866  0.3693  1.4013
   85RES   H18235630   7.198   5.617   6.593 -0.8424  0.4365  1.4462
   85RES   H18335631   7.067   5.666   6.471  2.2215  0.2952 -1.8957
   85RES   H18435632   7.104   5.463   6.364 -0.0297  0.9652 -0.4039
   85RES   H18535633   7.229   5.404   6.467  0.4288 -0.3483  0.0321
   85RES   H18635634   7.380   5.598   6.391  2.0114 -1.3779 -1.7876
   85RES   H18735635   7.249   5.671   6.318  1.0005  0.3572  1.8255
   85RES   H18835636   7.359   5.407   6.210 -1.2725 -0.0349 -0.7443
   85RES   H18935637   7.393   5.571   6.154  0.5700  0.9996  1.0015
   85RES   H19035638   7.225   5.514   6.150  1.7543  0.1770 -1.8982
   85RES   C19135639   6.839   5.490   6.783 -0.6664  0.7699  0.1137
   85RES   C19235640   6.698   5.527   6.730 -0.2742 -0.2454  0.5090
   85RES   C19335641   6.607   5.407   6.745 -0.5614  0.2041 -0.6470
   85RES   C19435642   6.577   5.330   6.609  0.5078 -0.1879  0.4112
   85RES   C19535643   6.461   5.228   6.623 -0.6888  0.2859  0.3815
   85RES   C19635644   6.455   5.122   6.514 -0.6203  0.1462 -0.1355
   85RES   C19735645   6.352   5.013   6.536 -0.5016 -0.1491 -0.2114
   85RES   H19835646   6.827   5.501   6.891  1.0217 -0.7422  0.4670
   85RES   H19935647   6.859   5.389   6.750 -0.3294  1.1580 -0.8932
   85RES   H20035648   6.720   5.537   6.623  0.0803 -2.2320  0.3849
   85RES   H20135649   6.511   5.440   6.786  0.1877  0.7449  0.6979
   85RES   H20235650   6.649   5.339   6.819  0.3961  0.0311 -1.3450
   85RES   H20335651   6.671   5.281   6.583  0.6247 -0.1024  0.6638
   85RES   H20435652   6.558   5.404   6.530 -0.7841  0.7089  1.5355
   85RES   H20535653   6.458   5.193   6.726  0.7083  0.3537  0.4544
   85RES   H20635654   6.365   5.278   6.606 -2.3109 -2.8010  0.0147
   85RES   H20735655   6.551   5.075   6.495 -0.0421  1.7369 -1.2519
   85RES   H20835656   6.433   5.172   6.420  0.9504  0.6390 -0.2513
   85RES   H20935657   6.392   4.928   6.593 -2.3500 -1.2983 -0.5705
   85RES   H21035658   6.325   4.977   6.437  1.7535  0.9465 -1.2546
   85RES   H21135659   6.266   5.045   6.594  1.4768  1.2346  2.0521
   85RES   C21235660   6.658   5.664   6.789 -0.5164 -0.0042  0.4524
   85RES   C21335661   6.544   5.738   6.717  0.2491  0.0179 -0.1825
   85RES   C21435662   6.475   5.826   6.820  0.3157  0.0395 -0.1071
   85RES   C21535663   6.339   5.890   6.779  0.0299 -0.5101 -0.5088
   85RES   C21635664   6.261   5.966   6.890 -0.5298 -0.3327  0.4277
   85RES   C21735665   6.164   5.880   6.977 -1.1843  0.1409 -0.1895
   85RES   C21835666   6.105   5.966   7.090  0.5810  0.1881  0.5049
   85RES   H21935667   6.746   5.728   6.791 -0.2338 -0.3535 -0.6435
   85RES   H22035668   6.627   5.637   6.890 -0.5651 -1.1585  0.1332
   85RES   H22135669   6.471   5.664   6.688  0.4671 -0.2113 -0.1475
   85RES   H22235670   6.450   5.767   6.908  2.4175  0.0786  0.5546
   85RES   H22335671   6.545   5.904   6.849  0.8889 -1.2632  2.1040
   85RES   H22435672   6.269   5.820   6.733 -1.2311  1.1174 -1.1327
   85RES   H22535673   6.366   5.965   6.705  0.0705 -1.9255 -1.9409
   85RES   H22635674   6.328   6.024   6.953  0.1357  0.1884 -0.7403
   85RES   H22735675   6.204   6.044   6.840  2.9800  0.0731 -3.2984
   85RES   H22835676   6.088   5.833   6.914  1.1066 -0.9626 -2.2019
   85RES   H22935677   6.225   5.801   7.019 -2.3789 -0.6353  0.1251
   85RES   H23035678   6.035   5.903   7.145 -0.1713 -0.3369 -1.0403
   85RES   H23135679   6.047   6.052   7.057  1.4401  1.1855  1.5169
   85RES   H23235680   6.182   5.995   7.162  1.5389  0.7713 -0.7534
   85RES   C23335681   6.587   5.814   6.587  0.1654 -0.2628  0.5098
   85RES   C23435682   6.556   5.736   6.457 -0.0105  0.4500  0.0732
   85RES   C23535683   6.406   5.755   6.410  0.0246  0.2577  0.2252
   85RES   C23635684   6.361   5.901   6.377  0.2060 -0.1136  0.2536
   85RES   C23735685   6.211   5.921   6.349 -0.3023 -0.5696  0.5347
   85RES   C23835686   6.149   5.887   6.200  0.4424 -0.0545  0.3693
   85RES   C23935687   6.027   5.799   6.200 -0.5314 -0.1027 -0.7575
   85RES   H24035688   6.695   5.823   6.591  0.1071  1.7211 -1.5127
   85RES   H24135689   6.554   5.918   6.588  1.3952  0.1565  2.5928
   85RES   H24235690   6.560   5.630   6.482 -0.1113  0.1212 -1.2899
   85RES   H24335691   6.346   5.728   6.496 -1.9212  1.2306 -0.7958
   85RES   H24435692   6.386   5.688   6.326 -0.0635  0.2572  0.2467
   85RES   H24535693   6.415   5.948   6.295  0.4782  0.3877  0.7171
   85RES   H24635694   6.389   5.960   6.464  0.9921  1.5793 -1.1214
   85RES   H24735695   6.189   6.024   6.377  0.9342  0.2357 -1.3419
   85RES   H24835696   6.157   5.855   6.417 -2.0221 -0.3297 -0.5660
   85RES   H24935697   6.139   5.984   6.151  1.6137 -0.5019 -0.7533
   85RES   H25035698   6.228   5.838   6.144  0.4089  0.1879  0.1103
   85RES   H25135699   6.019   5.743   6.107 -1.6958 -3.2610  1.1557
   85RES   H25235700   6.039   5.723   6.277 -0.4301  0.0056 -0.6660
   85RES   H25335701   5.934   5.850   6.229 -0.1138 -0.3443  1.0822
   85RES   C25435702   6.660   5.772   6.352 -0.3790 -0.0857  0.2335
   85RES   C25535703   6.675   5.652   6.249  0.1268 -0.6690  0.2932
   85RES   C25635704   6.784   5.559   6.286 -0.7158  0.4651 -0.0936
   85RES   C25735705   6.739   5.415   6.242  0.4433 -0.4014 -0.0317
   85RES   C25835706   6.832   5.297   6.291 -0.0264 -0.2658 -0.3030
   85RES   C25935707   6.774   5.171   6.254 -0.1453 -0.1053 -0.4476
   85RES   C26035708   6.882   5.060   6.240  0.2430 -0.3159  0.1220
   85RES   H26135709   6.759   5.805   6.386 -0.5700 -1.3597  2.1073
   85RES   H26235710   6.618   5.860   6.304 -2.4512 -0.4977  1.2179
   85RES   H26335711   6.579   5.602   6.235 -1.0486  0.8809  2.4253
   85RES   H26435712   6.785   5.552   6.395 -1.1902  1.6180 -0.0053
   85RES   H26535713   6.880   5.589   6.244  0.2943 -1.9972  0.3777
   85RES   H26635714   6.638   5.404   6.282  1.4527  1.2065  3.1596
   85RES   H26735715   6.744   5.405   6.134  2.5082 -4.1877  0.3405
   85RES   H26835716   6.838   5.298   6.399 -0.1177  0.0785 -0.3008
   85RES   H26935717   6.925   5.312   6.236 -0.5889  1.1873 -0.8713
   85RES   H27035718   6.688   5.142   6.314 -1.2819 -0.9738 -2.4665
   85RES   H27135719   6.727   5.176   6.156  0.9369  2.6330 -0.8817
   85RES   H27235720   6.962   5.090   6.173 -1.3594  1.1346 -1.2012
   85RES   H27335721   6.938   5.040   6.331 -1.4958 -0.5507  1.1675
   85RES   H27435722   6.837   4.966   6.208 -1.1800  0.9610 -1.7121
   85RES   C27535723   6.723   5.718   6.118  0.6924 -0.0547 -0.0439
   85RES   C27635724   6.622   5.795   6.037  0.0340 -0.0271 -0.0003
   85RES   C27735725   6.492   5.721   6.013 -0.2602 -0.2559 -0.2370
   85RES   C27835726   6.499   5.597   5.925  1.1091 -0.1967  0.3604
   85RES   C27935727   6.365   5.543   5.882  0.0228 -0.0606 -0.4064
   85RES   C28035728   6.326   5.590   5.741  0.3732  0.1580 -0.3078
   85RES   C28135729   6.180   5.538   5.712 -0.0974 -0.4341  0.1778
   85RES   H28235730   6.757   5.646   6.043  2.6037  0.2268  0.5213
   85RES   H28335731   6.809   5.780   6.141  1.7039 -1.1048 -0.8860
   85RES   H28435732   6.600   5.889   6.087  1.6407 -0.2006  1.0408
   85RES   H28535733   6.433   5.700   6.102 -1.3244  0.1065 -0.8622
   85RES   H28635734   6.423   5.789   5.965 -0.0309 -0.1804 -0.4586
   85RES   H28735735   6.544   5.524   5.993 -1.7766 -2.1604  0.2312
   85RES   H28835736   6.560   5.610   5.835 -0.9397  0.1922 -1.0170
   85RES   H28935737   6.289   5.579   5.950  0.2860 -0.0840 -0.0995
   85RES   H29035738   6.365   5.434   5.895  0.1353 -0.0949 -0.6925
   85RES   H29135739   6.339   5.698   5.738 -0.0741  0.2401  0.5205
   85RES   H29235740   6.387   5.540   5.666  1.4047  1.5291 -0.3934
   85RES   H29335741   6.151   5.570   5.612 -0.3985  1.5547  0.8867
   85RES   H29435742   6.105   5.581   5.778 -2.1499  2.5919 -3.8622
   85RES   H29535743   6.187   5.429   5.703  0.3233 -0.4806  1.0216
   85RES   C29635744   6.677   5.837   5.898  0.1869 -0.0842 -0.2149
   85RES   C29735745   6.780   5.951   5.898 -0.3799  0.1271  0.3147
   85RES   C29835746   6.724   6.091   5.956  0.3497  0.0164 -0.2788
   85RES   C29935747   6.824   6.205   5.972  0.6783  0.0217  0.4651
   85RES   C30035748   6.755   6.337   6.013 -0.4131 -0.1847  0.3288
   85RES   C30135749   6.855   6.456   5.998 -0.1208 -0.0447  0.4523
   85RES   C30235750   6.969   6.458   6.101 -0.7117  0.4364 -0.7665
   85RES   H30335751   6.725   5.744   5.865  3.1093  0.6771  1.6573
   85RES   H30435752   6.594   5.865   5.834 -0.7100 -1.2538  0.4145
   85RES   H30535753   6.852   5.921   5.974 -1.0989 -1.8891  0.2273
   85RES   H30635754   6.639   6.117   5.893 -1.0935 -0.9098  1.2358
   85RES   H30735755   6.682   6.084   6.057  1.6741  1.7107  0.4178
   85RES   H30835756   6.873   6.224   5.876  1.1741  0.2621  0.7643
   85RES   H30935757   6.905   6.184   6.040 -0.9830  0.3067  2.5864
   85RES   H31035758   6.720   6.323   6.115  0.7595  0.5456  0.8415
   85RES   H31135759   6.669   6.349   5.947 -0.0585 -1.3204 -0.3545
   85RES   H31235760   6.882   6.443   5.893 -2.3079 -4.5285  0.3217
   85RES   H31335761   6.795   6.544   6.016 -0.2481 -0.2520  1.0454
   85RES   H31435762   7.063   6.508   6.077 -0.9473  0.8022 -0.9209
   85RES   H31535763   6.940   6.509   6.192  1.9525  0.4869  0.0854
   85RES   H31635764   7.004   6.356   6.118 -1.5834 -0.2700 -2.8783
   85RES   C31735765   6.855   5.976   5.761  1.0148  0.1576 -0.1170
   85RES   C31835766   7.006   5.944   5.747 -0.5887  0.2830 -0.1644
   85RES   C31935767   7.031   5.868   5.612 -0.0783  0.1887  0.1262
   85RES   C32035768   6.957   5.734   5.591  0.1771 -0.3432 -0.1839
   85RES   C32135769   7.027   5.644   5.479 -0.1924 -0.6264  0.0258
   85RES   C32235770   7.042   5.713   5.344  0.5164  0.3184 -0.0512
   85RES   C32335771   7.077   5.620   5.227 -0.4415 -0.9024 -0.4949
   85RES   H32435772   6.840   6.080   5.732  0.1177 -0.1939 -0.9438
   85RES   H32535773   6.787   5.922   5.695 -1.9316 -0.1682  3.0159
   85RES   H32635774   7.028   5.872   5.827 -0.4757  1.8324  1.2256
   85RES   H32735775   7.138   5.845   5.616  0.0292  0.7015  0.1598
   85RES   H32835776   7.014   5.928   5.523 -1.3493 -0.1242  0.1467
   85RES   H32935777   6.858   5.767   5.561 -1.0449 -1.7079  2.1764
   85RES   H33035778   6.948   5.681   5.686  2.7628  0.1844  0.3938
   85RES   H33135779   6.988   5.543   5.470  0.9149 -1.3657  3.0192
   85RES   H33235780   7.131   5.637   5.509  0.3604  0.8594 -1.4518
   85RES   H33335781   7.111   5.797   5.356  0.2020  0.2293  2.7530
   85RES   H33435782   6.947   5.763   5.323 -0.2651 -0.6704  1.0612
   85RES   H33535783   7.185   5.625   5.211 -0.6545  1.6455 -1.4775
   85RES   H33635784   7.031   5.651   5.133 -1.1649  1.8716  0.7154
   85RES   H33735785   7.050   5.515   5.232  2.8141 -1.8004 -0.7838
   85RES   C33835786   7.098   6.072   5.764  0.7192 -0.1047 -0.2778
   85RES   C33935787   7.250   6.049   5.777 -0.6543  0.1141 -0.4004
   85RES   C34035788   7.275   5.993   5.919 -0.0580  0.1552 -0.2189
   85RES   C34135789   7.420   5.995   5.968  0.0064  0.7228 -0.7230
   85RES   C34235790   7.439   5.903   6.086 -0.7027 -0.1991  0.4892
   85RES   C34335791   7.344   5.912   6.207  0.4413 -0.2663  0.6861
   85RES   C34435792   7.357   6.058   6.267  0.0543 -0.1080 -0.1089
   85RES   H34535793   7.065   6.118   5.857 -1.9241  1.6777 -2.0321
   85RES   H34635794   7.063   6.131   5.680 -0.0686  0.6796  0.5802
   85RES   H34735795   7.281   5.978   5.701  1.1588  0.4782 -0.0199
   85RES   H34835796   7.220   6.055   5.990  1.7356  0.3633  1.0199
   85RES   H34935797   7.233   5.892   5.914 -1.1320  0.6748 -2.1159
   85RES   H35035798   7.437   6.093   6.014  0.0864  0.2941  0.1650
   85RES   H35135799   7.494   5.986   5.889 -1.1572 -0.1729 -1.7300
   85RES   H35235800   7.445   5.799   6.056  0.6565  0.7222 -2.6359
   85RES   H35335801   7.536   5.936   6.126 -0.8233  0.8872 -0.1010
   85RES   H35435802   7.238   5.889   6.199  0.3887 -0.1130  0.9344
   85RES   H35535803   7.380   5.846   6.286 -0.5452  2.0416  3.1279
   85RES   H35635804   7.325   6.137   6.199 -0.0890 -2.2950 -2.6327
   85RES   H35735805   7.461   6.072   6.298  0.2416  2.0377 -1.5851
   85RES   H35835806   7.291   6.080   6.351 -0.3044  0.7270 -0.6032
   85RES   C35935807   7.324   6.188   5.761 -0.6011  0.1850 -0.0547
   85RES   C36035808   7.330   6.256   5.616  0.1691  0.5421 -0.0351
   85RES   C36135809   7.348   6.409   5.638  0.3655  0.3237 -0.4317
   85RES   C36235810   7.490   6.452   5.680 -0.1483 -0.4063  0.0438
   85RES   C36335811   7.512   6.614   5.685 -1.2794  0.1353  0.3113
   85RES   C36435812   7.481   6.678   5.556  0.3989 -0.0351 -0.2132
   85RES   C36535813   7.559   6.804   5.547  0.3539 -0.5157  0.3719
   85RES   H36635814   7.427   6.175   5.796 -0.5822 -0.5303 -0.3620
   85RES   H36735815   7.275   6.253   5.833  0.6382  1.3498 -0.2281
   85RES   H36835816   7.232   6.251   5.570  0.0169 -1.8042  0.4567
   85RES   H36935817   7.290   6.460   5.561  0.4389  0.7456 -0.2040
   85RES   H37035818   7.291   6.437   5.726  1.7276 -0.0229  0.5813
   85RES   H37135819   7.522   6.409   5.775 -1.0417 -1.6674 -0.2053
   85RES   H37235820   7.559   6.415   5.604 -0.0412 -1.7558  0.7812
   85RES   H37335821   7.451   6.658   5.764  0.0633  0.3193  1.2539
   85RES   H37435822   7.616   6.628   5.716 -0.5850 -0.9791 -1.4214
   85RES   H37535823   7.508   6.617   5.470 -1.6646 -0.8393 -0.3202
   85RES   H37635824   7.374   6.697   5.540  0.5565 -0.1473 -1.4167
   85RES   H37735825   7.666   6.784   5.545  0.2952 -0.7134 -1.2014
   85RES   H37835826   7.522   6.843   5.452 -1.5648 -1.7228  0.5851
   85RES   H37935827   7.535   6.878   5.623 -0.4746  2.0763 -2.2962
   85RES   C38035828   7.426   6.191   5.521  0.3700  0.6267  0.9883
   85RES   C38135829   7.434   6.243   5.378 -0.3523  0.3352  0.0468
   85RES   C38235830   7.569   6.234   5.308  0.0716  0.1281 -0.0273
   85RES   C38335831   7.589   6.331   5.187  0.2764  0.3192  1.0009
   85RES   C38435832   0.009   6.324   5.127  0.1396 -0.2249  0.7979
   85RES   C38535833   0.022   6.211   5.020 -0.3773 -0.8746 -0.8199
   85RES   C38635834   0.161   6.206   4.962 -0.3434 -0.3169  0.4302
   85RES   H38735835   7.526   6.191   5.566  0.8992 -1.1913 -0.1211
   85RES   H38835836   7.399   6.086   5.510 -1.6773  1.3335 -0.9662
   85RES   H38935837   7.406   6.348   5.377 -3.2923 -0.3805  0.6085
   85RES   H39035838   7.593   6.138   5.261 -1.2841  0.2782 -1.0730
   85RES   H39135839   7.649   6.234   5.383  0.2603 -0.4713 -0.2211
   85RES   H39235840   7.520   6.313   5.105  2.6028  1.7385 -1.3198
   85RES   H39335841   7.568   6.431   5.226 -1.3227  0.5556 -0.4171
   85RES   H39435842   0.038   6.412   5.070 -1.2950 -1.1125 -1.3406
   85RES   H39535843   0.088   6.305   5.200 -0.7974  0.9868  2.1772
   85RES   H39635844   7.671   6.219   4.943 -0.4122  0.5424 -0.6610
   85RES   H39735845   7.722   6.119   5.072  0.2356 -0.8922 -0.5402
   85RES   H39835846   0.194   6.113   4.917  1.0278  0.3772 -0.0191
   85RES   H39935847   0.227   6.211   5.048  0.5605 -1.0945 -0.2034
   85RES   H40035848   0.174   6.284   4.886  1.9474 -1.2038 -0.1177
   85RES   C40135849   7.329   6.168   5.283 -1.0322 -0.2990 -0.0771
   85RES   C40235850   7.182   6.160   5.331 -0.2010  1.1448 -0.9245
   85RES   C40335851   7.098   6.077   5.230 -1.1706  0.4962  0.4403
   85RES   C40435852   7.034   6.137   5.093  0.6973  0.1525  0.2901
   85RES   C40535853   6.943   6.046   5.016 -0.0700 -0.0896  0.4463
   85RES   C40635854   6.923   6.095   4.870  0.7122  0.4203  0.0762
   85RES   C40735855   6.805   6.025   4.800 -0.4634 -0.5731  0.5928
   85RES   H40835856   7.356   6.066   5.258 -0.1152 -0.6129  2.1347
   85RES   H40935857   7.324   6.224   5.189 -0.0883 -0.4209 -0.2061
   85RES   H41035858   7.149   6.256   5.370  1.0317  1.1604  0.1417
   85RES   H41135859   7.019   6.028   5.286 -0.7257 -0.1435  0.5141
   85RES   H41235860   7.158   5.996   5.189 -0.9242 -0.2799  2.2685
   85RES   H41335861   7.117   6.175   5.033 -0.1917  0.7569 -0.5878
   85RES   H41435862   6.973   6.225   5.113 -0.3089 -0.3935 -0.3082
   85RES   H41535863   6.989   5.947   5.012 -1.0115 -0.5033 -0.5726
   85RES   H41635864   6.849   6.023   5.067 -0.7035 -0.4691 -0.8690
   85RES   H41735865   6.904   6.201   4.853  1.0283  0.5194  0.3437
   85RES   H41835866   7.014   6.069   4.815  0.8543  3.4952 -1.2521
   85RES   H41935867   6.828   5.919   4.801 -0.7953 -0.6400  1.7124
   85RES   H42035868   6.790   6.057   4.697  2.4586  1.5429  0.7558
   85RES   H42135869   6.708   6.029   4.851 -0.2376  3.5585  0.8578
   85RES   H42235870   7.181   6.103   5.424 -1.7240  0.8161 -1.1371
   86RES     C135871   2.380   1.877   2.199 -0.4028  0.3160 -0.6035
   86RES     C235872   2.296   1.981   2.134 -0.1263 -0.2306 -0.1524
   86RES     C335873   2.291   2.107   2.214  0.3162  0.3737  0.4067
   86RES     C435874   2.241   2.108   2.356  0.3240  0.6428 -0.0307
   86RES     C535875   2.228   2.251   2.410 -0.4335 -0.0724  0.0667
   86RES     C635876   2.091   2.318   2.372 -1.0036 -0.5991 -0.2231
   86RES     C735877   2.074   2.445   2.451 -0.6210 -0.0611  0.3595
   86RES     H835878   2.321   1.843   2.284  1.2632  1.5628  1.1217
   86RES     H935879   2.469   1.917   2.249 -2.1944  0.7906  2.3460
   86RES    H1035880   2.345   2.006   2.040 -0.5526  0.7618 -0.1239
   86RES    H1135881   2.394   2.142   2.210 -0.3589  2.2743 -1.3449
   86RES    H1235882   2.248   2.183   2.148 -0.4138  0.1267  0.6024
   86RES    H1335883   2.150   2.048   2.365  0.4518 -0.0528 -2.8668
   86RES    H1435884   2.310   2.055   2.421  0.0007 -0.8072 -0.8298
   86RES    H1535885   2.311   2.308   2.370  0.5587 -1.2012  0.4989
   86RES    H1635886   2.235   2.247   2.518 -1.9347  2.1803  0.2740
   86RES    H1735887   2.011   2.245   2.384 -1.5300 -0.2577 -1.5461
   86RES    H1835888   2.083   2.346   2.267  0.7858  1.0994  0.0501
   86RES    H1935889   2.072   2.405   2.553  0.5717 -0.5762  0.2047
   86RES    H2035890   1.982   2.496   2.427 -2.0323 -1.9675  1.5120
   86RES    H2135891   2.163   2.507   2.436  0.7450 -1.9239  0.4428
   86RES    H2235892   2.396   1.792   2.133 -0.6029  0.4761 -0.8575
   86RES    C2335893   2.157   1.913   2.105 -0.3021  0.2247  0.4941
   86RES    C2435894   2.049   1.991   2.026  0.4223  0.5986  0.1377
   86RES    C2535895   1.911   1.919   2.053  0.2985  0.0792 -0.3004
   86RES    C2635896   1.871   1.804   1.970 -0.0729 -0.1621 -0.3266
   86RES    C2735897   1.758   1.739   2.046  0.0857 -0.3494 -0.4414
   86RES    C2835898   1.728   1.603   1.981 -0.4048  0.1070  0.4484
   86RES    C2935899   1.702   1.493   2.081 -0.2530 -0.2198 -0.7741
   86RES    H3035900   2.182   1.828   2.042  0.1181  1.2243 -0.7062
   86RES    H3135901   2.103   1.867   2.188 -0.2611  0.2317  0.5252
   86RES    H3235902   2.038   2.092   2.065 -0.3395  0.3974  0.4518
   86RES    H3335903   1.834   1.996   2.061 -0.0535 -0.4751  2.3375
   86RES    H3435904   1.906   1.893   2.159  0.8440  0.9767 -0.0492
   86RES    H3535905   1.956   1.736   1.977 -0.8460 -0.9321  2.2218
   86RES    H3635906   1.856   1.841   1.869 -0.9668 -0.5484 -0.3392
   86RES    H3735907   1.662   1.789   2.044  0.4153  0.2938 -0.3767
   86RES    H3835908   1.775   1.722   2.153 -0.1994 -0.9723 -0.4911
   86RES    H3935909   1.802   1.569   1.909 -0.0251  0.9467  0.4345
   86RES    H4035910   1.640   1.605   1.917  0.6121 -3.1081 -1.1585
   86RES    H4135911   1.684   1.401   2.025 -1.6610 -1.6507  1.8928
   86RES    H4235912   1.787   1.481   2.149  0.2046 -0.6096 -1.4089
   86RES    H4335913   1.606   1.513   2.130 -0.7866 -0.1753 -1.8366
   86RES    C4435914   2.077   2.016   1.879 -0.9075  0.4010  0.1477
   86RES    C4535915   1.986   2.113   1.806 -0.0154 -0.0987  0.1736
   86RES    C4635916   1.971   2.252   1.873 -0.4198 -0.1537  0.0327
   86RES    C4735917   2.097   2.327   1.901  0.4366 -0.1674 -0.7080
   86RES    C4835918   2.063   2.470   1.966  0.2213  0.0253  0.3001
   86RES    C4935919   2.172   2.546   2.015  0.0743  0.4872  0.3469
   86RES    C5035920   2.143   2.676   2.082  0.1432  0.5673 -0.1698
   86RES    H5135921   2.084   1.924   1.821  0.4426 -1.3079  2.8714
   86RES    H5235922   2.179   2.056   1.871 -0.6567 -0.3090 -0.2266
   86RES    H5335923   1.883   2.077   1.806  0.4569 -1.5256 -1.0163
   86RES    H5435924   1.916   2.234   1.965  1.4419  1.1739  1.4359
   86RES    H5535925   1.906   2.311   1.809 -1.5642 -1.7114 -0.2821
   86RES    H5635926   2.149   2.265   1.974 -0.9664 -0.6611 -0.1117
   86RES    H5735927   2.162   2.333   1.813  1.0193  1.1836 -0.2019
   86RES    H5835928   1.983   2.471   2.040 -0.3111  0.3447 -0.2694
   86RES    H5935929   2.016   2.531   1.888 -0.0471 -2.1945 -1.3160
   86RES    H6035930   2.251   2.561   1.942 -0.4425  0.2551 -0.2645
   86RES    H6135931   2.218   2.494   2.099 -0.1365  2.6822  1.8780
   86RES    H6235932   2.237   2.721   2.113 -0.7351  0.8495  2.2646
   86RES    H6335933   2.080   2.667   2.171  1.3154  0.9561  0.7154
   86RES    H6435934   2.097   2.748   2.015 -0.7284  0.0641 -0.1269
   86RES    C6535935   2.020   2.123   1.657 -0.2484  0.1108 -0.2392
   86RES    C6635936   1.897   2.147   1.564 -0.3964 -0.4463 -0.2216
   86RES    C6735937   1.814   2.021   1.550 -0.2433  0.2754  1.1055
   86RES    C6835938   1.670   2.045   1.492 -0.0835  0.4354 -0.1411
   86RES    C6935939   1.578   1.932   1.529 -0.1242  0.1738  0.1944
   86RES    C7035940   1.427   1.960   1.499  0.2407  0.2290  0.9374
   86RES    C7135941   1.350   1.838   1.530  0.3709 -0.0988 -0.3334
   86RES    H7235942   2.094   2.201   1.642  0.5106  0.1610  3.3310
   86RES    H7335943   2.073   2.037   1.618  0.4509  0.9670 -1.1968
   86RES    H7435944   1.826   2.219   1.603 -0.4851 -1.0086  0.6457
   86RES    H7535945   1.869   1.946   1.492  2.4570  2.7402  0.3155
   86RES    H7635946   1.800   1.977   1.649 -0.3323 -2.1700  0.0555
   86RES    H7735947   1.625   2.135   1.533 -1.7847 -0.4114 -0.1065
   86RES    H7835948   1.672   2.046   1.383 -0.6352 -0.2199 -0.1628
   86RES    H7935949   1.615   1.852   1.465 -1.9830 -0.4040 -0.1860
   86RES    H8035950   1.590   1.910   1.635 -0.4395 -2.0009 -0.1998
   86RES    H8135951   1.414   1.979   1.392 -2.2850  1.7403  1.4715
   86RES    H8235952   1.393   2.051   1.548 -1.0274  0.4088 -0.2387
   86RES    H8335953   1.255   1.836   1.476  0.6201  1.9033 -0.8839
   86RES    H8435954   1.400   1.750   1.492 -1.9030 -1.5151 -0.1555
   86RES    H8535955   1.336   1.824   1.638 -0.6074  0.1902 -0.4181
   86RES    C8635956   1.934   2.201   1.427 -0.2635  0.1517 -0.1124
   86RES    C8735957   2.017   2.340   1.421 -0.0161  0.1692  0.1323
   86RES    C8835958   2.068   2.367   1.275  0.7347 -0.2426 -0.5468
   86RES    C8935959   1.965   2.388   1.163 -0.0638  0.0549  0.0485
   86RES    C9035960   2.029   2.415   1.024 -0.4884  0.4956 -1.0048
   86RES    C9135961   2.099   2.548   1.005 -0.1088  0.3178  0.4296
   86RES    C9235962   2.142   2.576   0.860  0.3775  0.5500 -0.4984
   86RES    H9335963   1.993   2.119   1.388 -0.8463 -0.9502  1.3007
   86RES    H9435964   1.848   2.211   1.361 -2.1923 -1.1671  2.1448
   86RES    H9535965   2.110   2.335   1.477 -0.6044 -0.3349  1.0735
   86RES    H9635966   2.129   2.458   1.276  1.1786 -0.5407  0.2983
   86RES    H9735967   2.136   2.286   1.251 -0.8626 -1.4956 -0.9597
   86RES    H9835968   1.916   2.292   1.152 -0.7367  0.1361  2.1298
   86RES    H9935969   1.899   2.473   1.181 -1.2342 -0.8241 -0.1206
   86RES   H10035970   1.950   2.415   0.948  0.3488 -0.8591 -1.8967
   86RES   H10135971   2.095   2.336   0.989 -0.1603  1.4800 -2.6648
   86RES   H10235972   2.040   2.632   1.042  0.3581  0.9001 -0.1539
   86RES   H10335973   2.190   2.536   1.064 -2.2155 -0.6780  3.5894
   86RES   H10435974   2.061   2.576   0.788 -0.1326 -1.5531  0.0357
   86RES   H10535975   2.214   2.503   0.824 -0.5148 -0.4555 -0.2529
   86RES   H10635976   2.181   2.678   0.857  2.4673 -0.1471  1.3117
   86RES   C10735977   1.928   2.456   1.484 -0.6649  0.2798  0.8921
   86RES   C10835978   1.997   2.595   1.480  0.8299 -0.1628 -0.3634
   86RES   C10935979   1.894   2.710   1.520 -0.2518  0.2555 -0.7077
   86RES   C11035980   1.787   2.739   1.404  0.9913 -0.4283 -0.0161
   86RES   C11135981   1.847   2.771   1.267 -0.2033 -0.1676  0.4797
   86RES   C11235982   1.934   2.887   1.269  0.2575  0.1919  0.8441
   86RES   C11335983   1.952   2.927   1.124 -0.5065 -0.3337  0.1604
   86RES   H11435984   1.896   2.433   1.586  1.7921  0.0037  1.6215
   86RES   H11535985   1.837   2.478   1.428 -1.2245  1.3542  2.1793
   86RES   H11635986   2.022   2.598   1.374  0.2487 -1.4983 -0.5452
   86RES   H11735987   1.938   2.801   1.560  1.2668 -0.8409  0.1935
   86RES   H11835988   1.851   2.676   1.614  0.9819 -0.0608 -0.2440
   86RES   H11935989   1.725   2.652   1.381  0.7710 -0.9582  2.3926
   86RES   H12035990   1.707   2.807   1.435  0.0161 -1.4169 -0.3098
   86RES   H12135991   1.761   2.798   1.205 -0.6706 -1.5381  0.5196
   86RES   H12235992   1.892   2.684   1.220 -0.8414 -0.6037  0.6567
   86RES   H12335993   1.890   2.967   1.329  0.3696  1.4485 -0.7211
   86RES   H12435994   2.028   2.860   1.317 -1.0133 -0.1293  3.2514
   86RES   H12535995   2.021   3.011   1.114  0.4764 -1.1902 -0.2831
   86RES   H12635996   1.976   2.843   1.059 -1.1878  0.7515 -1.5386
   86RES   H12735997   1.861   2.975   1.088  1.5597  1.2927 -3.2214
   86RES   C12835998   2.122   2.608   1.571  0.0244  0.0629 -0.4012
   86RES   C12935999   2.215   2.732   1.537 -0.5463 -0.2574 -0.0325
   86RES   C13036000   2.297   2.721   1.406  0.1446  0.2192  0.0156
   86RES   C13136001   2.382   2.844   1.353 -0.8369  0.3172 -0.4621
   86RES   C13236002   2.416   2.833   1.203  0.3847  0.0516 -0.2685
   86RES   C13336003   2.517   2.719   1.171  1.0563 -0.2313 -0.0548
   86RES   C13436004   2.531   2.686   1.024  0.1324 -0.7274 -0.4491
   86RES   H13536005   2.075   2.618   1.668 -1.0694  3.0271 -1.1903
   86RES   H13636006   2.188   2.521   1.568 -0.1106 -0.0758  0.5290
   86RES   H13736007   2.155   2.823   1.527 -0.4780 -0.4087 -1.9766
   86RES   H13836008   2.234   2.696   1.321 -0.6481  1.4000  0.2461
   86RES   H13936009   2.360   2.632   1.409 -1.0048 -0.6182 -0.0019
   86RES   H14036010   2.472   2.851   1.414 -0.7375 -0.6316 -0.4988
   86RES   H14136011   2.325   2.934   1.378  0.1875 -0.1984  4.1107
   86RES   H14236012   2.430   2.934   1.162  0.8786  0.6095  1.2534
   86RES   H14336013   2.323   2.808   1.151  0.5418 -0.3955 -0.3330
   86RES   H14436014   2.490   2.630   1.226 -0.3783  0.7954  0.9321
   86RES   H14536015   2.610   2.763   1.209 -1.0628  2.3827  2.2798
   86RES   H14636016   2.573   2.770   0.967  2.7401 -1.3495  0.4990
   86RES   H14736017   2.436   2.663   0.975  0.9870 -0.1271 -2.4697
   86RES   H14836018   2.596   2.600   1.012  1.5723  0.0456  1.5567
   86RES   C14936019   2.317   2.759   1.656  0.1463 -0.1769 -0.8259
   86RES   C15036020   2.307   2.904   1.713 -0.1332  0.3336  1.2514
   86RES   C15136021   2.430   2.945   1.788 -0.4798  0.1551 -0.2743
   86RES   C15236022   2.468   2.871   1.924  0.1627 -0.5735  0.2122
   86RES   C15336023   2.596   2.929   1.988  0.5194 -0.1366  0.1961
   86RES   C15436024   2.630   2.877   2.131  0.5977 -0.7205  0.3708
   86RES   C15536025   2.754   2.940   2.185 -0.3117 -0.1180 -0.8292
   86RES   H15636026   2.301   2.688   1.737  0.3017  1.6786  0.8520
   86RES   H15736027   2.418   2.732   1.627  0.0133 -1.0717 -0.4622
   86RES   H15836028   2.321   2.961   1.621  0.2975 -0.2639  0.9447
   86RES   H15936029   2.517   2.930   1.724  1.7465 -0.1786  2.7614
   86RES   H16036030   2.426   3.050   1.817  0.8964  0.0813  0.2207
   86RES   H16136031   2.484   2.764   1.911  0.6108 -0.6197  1.0829
   86RES   H16236032   2.387   2.890   1.994  1.2598 -0.4354  1.4649
   86RES   H16336033   2.608   3.037   1.984  1.6070 -0.2406  0.4332
   86RES   H16436034   2.676   2.908   1.918  0.0935 -0.3727 -0.2203
   86RES   H16536035   2.632   2.770   2.149  0.8352 -0.5852  1.1876
   86RES   H16636036   2.553   2.920   2.196  0.6922 -2.2730  1.5228
   86RES   H16736037   2.751   3.048   2.198  2.6944 -0.1435  0.5803
   86RES   H16836038   2.840   2.910   2.126  0.4618 -0.1196  0.2787
   86RES   H16936039   2.782   2.901   2.283 -1.9784 -0.4439 -0.4663
   86RES   C17036040   2.169   2.949   1.781 -0.5788  0.2477  0.0525
   86RES   C17136041   2.109   3.085   1.747  1.0798 -0.9234  0.0733
   86RES   C17236042   2.061   3.104   1.599 -0.1481 -0.7896 -0.2143
   86RES   C17336043   2.059   3.243   1.540 -0.2339  0.3371  0.2436
   86RES   C17436044   2.021   3.250   1.389  0.3758  0.1093  0.0760
   86RES   C17536045   2.052   3.381   1.333 -0.2570 -0.8629  0.4675
   86RES   C17636046   2.052   3.386   1.183  0.1130  0.7541 -0.8333
   86RES   H17736047   2.180   2.944   1.889 -1.9417 -1.9848  0.1125
   86RES   H17836048   2.086   2.881   1.763  0.4694 -0.6316 -1.6045
   86RES   H17936049   2.187   3.161   1.756 -0.7823  0.9062  1.3533
   86RES   H18036050   1.965   3.056   1.582 -0.4982  0.0937 -0.7435
   86RES   H18136051   2.135   3.053   1.538 -1.7349 -0.0384 -2.8131
   86RES   H18236052   2.160   3.277   1.563  0.1041 -0.3794 -0.1512
   86RES   H18336053   1.991   3.310   1.593 -1.0698  1.2839 -1.9312
   86RES   H18436054   1.919   3.220   1.363  1.1494 -0.0755 -2.9300
   86RES   H18536055   2.089   3.188   1.332 -0.5201 -0.3022 -0.5687
   86RES   H18636056   2.148   3.404   1.378  0.2224  0.1127 -1.0453
   86RES   H18736057   1.974   3.447   1.372 -0.5061 -0.6693 -0.3556
   86RES   H18836058   2.071   3.489   1.151  2.9294  0.8024  0.8097
   86RES   H18936059   1.953   3.352   1.152 -0.1711 -0.3582  1.2041
   86RES   H19036060   2.125   3.319   1.140  0.4105  0.9562 -0.6493
   86RES   C19136061   1.995   3.127   1.854 -0.3729  0.0441  0.3972
   86RES   C19236062   2.050   3.183   1.990 -0.4990 -0.0185  0.2931
   86RES   C19336063   2.086   3.332   1.982  0.2347  0.0794 -0.2022
   86RES   C19436064   2.172   3.384   2.100 -0.0437 -0.1336  0.3787
   86RES   C19536065   2.315   3.345   2.071 -0.6852 -0.2161 -0.3037
   86RES   C19636066   2.404   3.386   2.187  0.3217  0.4395 -0.0901
   86RES   C19736067   2.539   3.325   2.171  0.2218 -0.0944 -0.2528
   86RES   H19836068   1.944   3.033   1.874  2.1072 -1.4628 -0.0734
   86RES   H19936069   1.926   3.195   1.806 -0.7690 -1.3252 -1.0098
   86RES   H20036070   2.147   3.135   2.006 -1.1142 -1.8545 -1.2581
   86RES   H20136071   1.991   3.385   1.981 -0.1113 -0.5305 -1.3841
   86RES   H20236072   2.126   3.365   1.886 -1.9953  2.2013 -0.4454
   86RES   H20336073   2.141   3.341   2.195  1.2443  1.5915  1.6319
   86RES   H20436074   2.170   3.492   2.116 -2.4314 -0.1037  0.0521
   86RES   H20536075   2.327   3.237   2.064 -0.9687 -0.2217 -0.7390
   86RES   H20636076   2.349   3.383   1.975  1.6791  0.5458  0.8065
   86RES   H20736077   2.360   3.362   2.284  2.2732 -0.1701  0.6470
   86RES   H20836078   2.425   3.493   2.180 -2.7528  1.1420  0.4372
   86RES   H20936079   2.597   3.391   2.236 -1.8166  1.3840  0.1307
   86RES   H21036080   2.575   3.318   2.069  0.6959 -1.4206 -0.0161
   86RES   H21136081   2.548   3.234   2.231  1.7589  0.7432  0.8499
   86RES   C21236082   1.955   3.153   2.104  0.0315 -0.1458  0.1217
   86RES   C21336083   1.968   3.004   2.148  0.3465 -0.0881  0.1693
   86RES   C21436084   2.097   2.983   2.224  0.1930  0.4145 -0.0285
   86RES   C21536085   2.105   3.054   2.359 -0.5679  0.3541  0.2392
   86RES   C21636086   2.213   3.011   2.448 -0.2845  0.2071 -0.8419
   86RES   C21736087   2.353   3.027   2.391 -0.1498 -0.3209  0.2843
   86RES   C21836088   2.460   2.981   2.485  0.6817  0.5929  0.3922
   86RES   H21936089   1.853   3.170   2.072  0.6919  0.9440 -1.4989
   86RES   H22036090   1.974   3.225   2.183 -0.8072  1.9707 -1.5755
   86RES   H22136091   1.964   2.929   2.069 -1.3438 -1.2204  1.3056
   86RES   H22236092   2.113   2.876   2.238  0.5216  0.4434 -0.1856
   86RES   H22336093   2.184   3.019   2.169 -0.6944  0.8392 -1.1919
   86RES   H22436094   2.017   3.024   2.415 -0.7901 -0.3403 -0.4642
   86RES   H22536095   2.111   3.162   2.344 -0.5226  0.2107 -0.8200
   86RES   H22636096   2.206   3.061   2.545 -1.3564  0.2835 -0.9594
   86RES   H22736097   2.211   2.903   2.463 -0.1799  0.6082  2.4097
   86RES   H22836098   2.384   2.978   2.299  0.5002  1.2242 -0.3426
   86RES   H22936099   2.364   3.133   2.369 -1.3108 -0.1260  0.5741
   86RES   H23036100   2.564   2.980   2.450  0.8931 -1.8342  0.9943
   86RES   H23136101   2.444   2.883   2.530  2.2103  0.1883  0.0859
   86RES   H23236102   2.465   3.049   2.570 -0.6714 -0.7859  1.6097
   86RES   C23336103   1.837   2.977   2.220  0.1702 -0.4530  0.6266
   86RES   C23436104   1.720   2.918   2.131  0.5493  0.2711 -0.6893
   86RES   C23536105   1.731   2.764   2.097 -0.0509 -0.4931  0.2136
   86RES   C23636106   1.700   2.669   2.214 -0.0711  0.2738  0.8861
   86RES   C23736107   1.719   2.521   2.190  0.1386 -0.3898 -0.0620
   86RES   C23836108   1.658   2.458   2.069 -0.2556 -0.2179 -0.3896
   86RES   C23936109   1.506   2.469   2.056 -1.1129 -0.0018 -0.1193
   86RES   H24036110   1.795   3.061   2.275 -0.8336 -1.6236  1.6747
   86RES   H24136111   1.849   2.903   2.299  1.4764 -0.2148  0.6735
   86RES   H24236112   1.739   2.969   2.036  2.9196  0.9542  0.0995
   86RES   H24336113   1.835   2.741   2.074 -0.5817 -3.4154  0.5176
   86RES   H24436114   1.671   2.727   2.013  0.8152 -0.9699 -0.2075
   86RES   H24536115   1.598   2.684   2.248  0.5148  1.9109  1.9667
   86RES   H24636116   1.763   2.705   2.295  0.5110 -0.0119  0.5668
   86RES   H24736117   1.681   2.464   2.275  1.0126 -0.5475  0.2276
   86RES   H24836118   1.826   2.502   2.197  0.1519 -0.1292  0.5236
   86RES   H24936119   1.706   2.499   1.980  1.8743 -2.6106 -0.3929
   86RES   H25036120   1.679   2.351   2.062  0.5789 -0.0159 -0.9994
   86RES   H25136121   1.454   2.417   2.137 -0.0603 -1.1982 -0.1974
   86RES   H25236122   1.473   2.571   2.033 -3.7108 -1.4941 -3.4160
   86RES   H25336123   1.483   2.415   1.965  1.8169 -0.2930 -0.7343
   86RES   C25436124   1.580   2.970   2.180 -0.2409  0.1253 -1.0122
   86RES   C25536125   1.454   2.935   2.095  0.1506  0.3652  0.1991
   86RES   C25636126   1.463   2.976   1.945 -0.2289 -0.9314  0.1480
   86RES   C25736127   1.472   3.129   1.911  0.4472  0.4506  0.3821
   86RES   C25836128   1.481   3.149   1.763  0.3841  0.4969 -0.0905
   86RES   C25936129   1.608   3.098   1.711 -0.7176 -0.8987  0.0508
   86RES   C26036130   1.636   3.129   1.561 -0.0431  0.4494 -0.3734
   86RES   H26136131   1.587   3.077   2.198 -0.5131  0.1831 -1.2405
   86RES   H26236132   1.562   2.925   2.277 -0.1787  1.3786 -0.4121
   86RES   H26336133   1.466   2.828   2.081 -0.0119  0.0619  2.2591
   86RES   H26436134   1.393   2.933   1.874  1.2202 -0.7644 -1.4014
   86RES   H26536135   1.561   2.937   1.917 -0.0802 -0.6363  0.2536
   86RES   H26636136   1.382   3.177   1.950  2.7284  1.5166  4.6292
   86RES   H26736137   1.549   3.174   1.973  0.6456 -1.0066  1.2130
   86RES   H26836138   1.461   3.253   1.736 -0.8357  0.6091  1.1533
   86RES   H26936139   1.400   3.091   1.718  0.4591 -1.0955  1.7533
   86RES   H27036140   1.688   3.126   1.779 -1.6769 -2.6182  1.9472
   86RES   H27136141   1.611   2.989   1.710 -1.3381 -0.9201 -2.5273
   86RES   H27236142   1.562   3.082   1.496 -2.0578  1.8985  0.8334
   86RES   H27336143   1.613   3.235   1.548 -0.5271  0.2319 -1.3550
   86RES   H27436144   1.736   3.105   1.523  0.4906  0.7432  0.8394
   86RES   C27536145   1.316   2.957   2.162 -0.6515  0.0040 -0.6006
   86RES   C27636146   1.234   2.827   2.185 -0.1613 -0.6330 -0.1946
   86RES   C27736147   1.187   2.769   2.044 -0.0418 -0.4228 -0.0820
   86RES   C27836148   1.073   2.830   1.978  0.0292 -0.2409 -0.3221
   86RES   C27936149   1.014   2.770   1.850  0.3226  0.3562 -0.0384
   86RES   C28036150   1.058   2.846   1.720 -0.1002  0.1118 -0.5613
   86RES   C28136151   0.995   2.792   1.596 -0.7489 -0.4368  0.5274
   86RES   H28236152   1.249   3.022   2.105 -1.5549  0.1507  0.6089
   86RES   H28336153   1.347   3.017   2.248 -0.1588 -1.6471  0.3870
   86RES   H28436154   1.298   2.760   2.241  0.1254  0.6599  1.0575
   86RES   H28536155   1.271   2.773   1.974 -1.7034 -2.0120 -2.2832
   86RES   H28636156   1.157   2.664   2.044 -0.4328 -0.3171  0.9652
   86RES   H28736157   1.103   2.933   1.955 -0.6547  0.3075  1.2116
   86RES   H28836158   0.992   2.833   2.050 -0.6355  2.3289 -1.0874
   86RES   H28936159   0.910   2.800   1.858  0.8046  1.5438  2.2460
   86RES   H29036160   1.020   2.661   1.845 -0.6883  0.3683 -1.9974
   86RES   H29136161   1.035   2.952   1.723  1.6874  0.4892  0.6334
   86RES   H29236162   1.165   2.829   1.707  0.5252  2.5903  1.0859
   86RES   H29336163   0.890   2.817   1.584 -0.0774  3.0576  1.3070
   86RES   H29436164   0.995   2.684   1.599  0.4834 -0.3883  3.0338
   86RES   H29536165   1.038   2.830   1.503 -0.2410  0.7397  1.2256
   86RES   C29636166   1.110   2.845   2.280  0.2527 -0.0254 -0.3280
   86RES   C29736167   1.136   2.872   2.427 -0.4523 -0.5891 -0.0889
   86RES   C29836168   1.167   2.748   2.511  0.9435 -0.3001 -0.6008
   86RES   C29936169   1.294   2.668   2.490  0.3723  0.9836  0.1008
   86RES   C30036170   1.315   2.592   2.624  0.2303  0.1590 -0.1384
   86RES   C30136171   1.402   2.463   2.608  0.4047  0.5878 -0.3966
   86RES   C30236172   1.546   2.508   2.580  0.7644 -0.7778 -0.0079
   86RES   H30336173   1.052   2.928   2.239  1.7692  1.2432  0.0306
   86RES   H30436174   1.044   2.759   2.271 -2.0653  1.7155 -0.3555
   86RES   H30536175   1.223   2.936   2.434 -1.4135  0.6445  0.8673
   86RES   H30636176   1.160   2.776   2.616  0.6001 -1.3935 -0.3250
   86RES   H30736177   1.087   2.674   2.501  1.5018 -1.3016  1.9724
   86RES   H30836178   1.383   2.727   2.465  0.6860  0.8247  0.8283
   86RES   H30936179   1.278   2.598   2.408  0.3402 -1.0259  1.7792
   86RES   H31036180   1.215   2.565   2.657  0.2916 -0.6632 -0.6363
   86RES   H31136181   1.346   2.665   2.700 -0.4797  0.7687 -0.4272
   86RES   H31236182   1.395   2.405   2.700  0.4144  1.1449 -0.0425
   86RES   H31336183   1.362   2.392   2.536  0.1506 -1.0757  1.3424
   86RES   H31436184   1.612   2.423   2.598 -0.7615 -1.8334  0.7413
   86RES   H31536185   1.572   2.557   2.486  1.3236 -0.9135  0.0776
   86RES   H31636186   1.584   2.578   2.653  3.2220 -1.7955 -0.2770
   86RES   C31736187   1.015   2.950   2.485  0.2825  0.2901 -0.5825
   86RES   C31836188   1.053   3.099   2.520 -0.5790 -0.4524  0.7090
   86RES   C31936189   1.091   3.176   2.393  0.0971  0.1583 -0.3607
   86RES   C32036190   1.193   3.296   2.423 -0.6573  0.1806 -0.3455
   86RES   C32136191   1.259   3.374   2.300  0.3930  0.1655 -0.4187
   86RES   C32236192   1.163   3.447   2.200  0.2533  0.8406 -0.7592
   86RES   C32336193   1.219   3.510   2.076  0.0810 -0.2043 -0.1391
   86RES   H32436194   0.992   2.898   2.577  1.5487  0.7340 -0.0013
   86RES   H32536195   0.923   2.952   2.427 -1.5605  1.4163  2.2991
   86RES   H32636196   1.141   3.098   2.584 -0.0085 -1.0323 -0.0810
   86RES   H32736197   1.002   3.218   2.347  1.2869  0.1850 -2.7101
   86RES   H32836198   1.135   3.119   2.311  0.2365  2.8005 -2.2244
   86RES   H32936199   1.273   3.270   2.492 -2.3493 -0.5793  1.3948
   86RES   H33036200   1.140   3.376   2.474 -0.4034  1.1001 -1.5047
   86RES   H33136201   1.331   3.317   2.241  0.2374  0.5171 -0.9590
   86RES   H33236202   1.308   3.454   2.355  2.0021 -1.6446  0.8130
   86RES   H33336203   1.131   3.531   2.261 -1.2306 -1.3467  1.6057
   86RES   H33436204   1.086   3.378   2.164 -1.9231  3.2398 -0.7773
   86RES   H33536205   1.312   3.566   2.086  0.3861 -1.0516  1.9912
   86RES   H33636206   1.138   3.575   2.044  2.5619  1.3832 -3.5373
   86RES   H33736207   1.236   3.445   1.990 -0.4672 -1.4714  0.6930
   86RES   C33836208   0.942   3.173   2.605 -0.2066 -0.0438 -0.2212
   86RES   C33936209   0.896   3.109   2.738  0.0716  0.3605 -0.5230
   86RES   C34036210   0.759   3.039   2.720 -1.0043 -0.0740  0.5218
   86RES   C34136211   0.704   2.972   2.845  0.3188 -0.4399  0.1120
   86RES   C34236212   0.609   3.065   2.930  0.0220  1.0598  0.5437
   86RES   C34336213   0.579   3.015   3.067 -0.1958  0.0117 -0.3190
   86RES   C34436214   0.695   3.025   3.166 -0.5851  0.5730 -0.7552
   86RES   H34536215   0.861   3.188   2.534  1.4058 -1.5660 -2.4178
   86RES   H34636216   0.976   3.274   2.628 -1.1413  0.0299  0.8950
   86RES   H34736217   0.967   3.029   2.760 -1.0629 -0.9577 -1.5820
   86RES   H34836218   0.689   3.118   2.694 -0.1538  0.3424 -0.5737
   86RES   H34936219   0.775   2.968   2.638  1.1308  1.4002 -0.3890
   86RES   H35036220   0.784   2.929   2.905  1.4796 -1.4680 -2.1597
   86RES   H35136221   0.644   2.892   2.802 -0.8970  1.0089 -0.8997
   86RES   H35236222   0.646   3.168   2.933  1.3154  0.5905  1.3511
   86RES   H35336223   0.511   3.067   2.883 -1.0628  0.2153  2.6943
   86RES   H35436224   0.499   3.078   3.105 -0.1442 -0.1146  0.0008
   86RES   H35536225   0.538   2.914   3.063 -0.0236 -0.0560 -0.3668
   86RES   H35636226   0.749   3.119   3.158  0.4050  0.1190  0.3448
   86RES   H35736227   0.776   2.956   3.142  0.5194  1.0962  1.3056
   86RES   H35836228   0.667   3.014   3.271 -0.1328  1.0735 -0.5817
   86RES   C35936229   0.897   3.209   2.861 -0.2891 -0.4446 -0.0326
   86RES   C36036230   1.043   3.260   2.896  0.0615 -0.2937 -0.3188
   86RES   C36136231   1.038   3.403   2.956 -0.4373  0.6347 -0.2706
   86RES   C36236232   0.986   3.516   2.875 -0.4370  0.4747 -0.7698
   86RES   C36336233   1.009   3.651   2.942 -0.1573 -0.4246 -0.2685
   86RES   C36436234   0.962   3.763   2.854 -0.2509 -0.4342  0.4964
   86RES   C36536235   0.940   3.900   2.930 -0.1834  0.1665 -0.1105
   86RES   H36636236   0.858   3.172   2.956  2.8262 -1.2848  0.9791
   86RES   H36736237   0.830   3.288   2.829  2.2554  0.9508 -2.1616
   86RES   H36836238   1.102   3.265   2.805 -0.9814  0.3310 -0.9769
   86RES   H36936239   0.984   3.401   3.050  0.0131  1.7687  0.0214
   86RES   H37036240   1.136   3.425   2.997 -0.0198 -0.1665 -0.8170
   86RES   H37136241   1.046   3.523   2.784 -0.6825 -0.5970 -1.0234
   86RES   H37236242   0.883   3.485   2.857 -0.5144 -0.7014  1.5257
   86RES   H37336243   0.954   3.643   3.036 -1.4731 -1.0380 -1.0732
   86RES   H37436244   1.117   3.660   2.954 -0.1119 -0.1979 -0.8209
   86RES   H37536245   1.022   3.776   2.764 -0.0760  0.3067  0.7090
   86RES   H37636246   0.874   3.731   2.800  1.1925  0.1569 -2.3012
   86RES   H37736247   0.951   3.893   3.038  1.3086 -1.4666 -0.3511
   86RES   H37836248   0.995   3.986   2.891  1.1050 -1.1662 -1.2729
   86RES   H37936249   0.833   3.921   2.919  0.2058  1.7085 -1.1075
   86RES   C38036250   1.124   3.166   2.993  0.3615  0.3881  0.0750
   86RES   C38136251   1.260   3.101   2.951 -0.3397  0.1097  0.3706
   86RES   C38236252   1.384   3.186   2.977  1.0705 -0.4806 -0.1973
   86RES   C38336253   1.387   3.316   2.912 -0.1175  0.0631 -0.0656
   86RES   C38436254   1.524   3.354   2.864 -0.9954 -0.4987  0.0058
   86RES   C38536255   1.531   3.491   2.790 -0.4372  0.0936  0.4167
   86RES   C38636256   1.671   3.537   2.751  0.0895  0.0843  0.3681
   86RES   H38736257   1.142   3.210   3.091 -0.2889  2.4295 -0.7042
   86RES   H38836258   1.060   3.080   3.013  0.1403  0.3332 -0.8388
   86RES   H38936259   1.249   3.083   2.844  0.7887  0.1631  0.2364
   86RES   H39036260   1.479   3.141   2.949  2.4924  1.2936  1.5966
   86RES   H39136261   1.378   3.200   3.085  1.1332  0.4608 -0.3080
   86RES   H39236262   1.325   3.311   2.823  0.7758  4.7591 -1.0694
   86RES   H39336263   1.341   3.392   2.976  1.8077  0.2652  1.1154
   86RES   H39436264   1.593   3.359   2.949  0.2387  0.1297 -1.0135
   86RES   H39536265   1.566   3.273   2.804 -1.7788 -0.1997 -0.9512
   86RES   H39636266   1.495   3.571   2.855 -0.1193  0.2662  0.3802
   86RES   H39736267   1.467   3.482   2.702  1.9782  0.1449 -1.3661
   86RES   H39836268   1.731   3.449   2.729  1.0497  0.5697  1.0130
   86RES   H39936269   1.721   3.605   2.821  0.4243 -2.1537  2.3873
   86RES   H40036270   1.667   3.581   2.651 -0.6831 -0.1371  0.3026
   86RES   C40136271   1.279   2.962   3.015 -0.1817  0.2181  0.1330
   86RES   C40236272   1.391   2.883   2.959 -0.5518 -0.4619 -0.0821
   86RES   C40336273   1.386   2.735   3.002 -0.8972  0.4913 -0.4734
   86RES   C40436274   1.513   2.664   2.963 -0.8049  0.4275 -0.2278
   86RES   C40536275   1.590   2.596   3.076 -0.2631 -0.5713 -0.1981
   86RES   C40636276   1.528   2.465   3.124  0.1726 -0.1419 -0.3440
   86RES   C40736277   1.567   2.347   3.037 -0.0050  0.4541 -0.4048
   86RES   H40836278   1.191   2.899   3.000 -0.2333 -0.0996  1.7061
   86RES   H40936279   1.302   2.983   3.120  1.7058  0.7456 -0.3577
   86RES   H41036280   1.490   2.922   2.980 -0.3676 -1.3345  0.7239
   86RES   H41136281   1.304   2.673   2.967  0.1160 -0.0839 -1.8610
   86RES   H41236282   1.377   2.735   3.111 -1.0767  2.3683 -0.4730
   86RES   H41336283   1.588   2.732   2.924 -0.7759  0.2404 -0.5013
   86RES   H41436284   1.488   2.591   2.885 -1.2718  0.8669 -0.4921
   86RES   H41536285   1.695   2.595   3.046 -0.4593  2.1739 -1.1140
   86RES   H41636286   1.591   2.667   3.158 -2.1156 -1.9552  1.0473
   86RES   H41736287   1.561   2.433   3.223 -0.6361 -2.3153 -0.7342
   86RES   H41836288   1.424   2.485   3.153  0.3460 -0.9205  0.8670
   86RES   H41936289   1.536   2.364   2.934  0.3525  1.8509 -0.2851
   86RES   H42036290   1.519   2.266   3.092 -1.4147  1.3029 -0.3611
   86RES   H42136291   1.675   2.337   3.041 -0.2106 -2.2000 -0.0867
   86RES   H42236292   1.390   2.887   2.850  0.1848  0.1425 -0.0710
   87RES     C136293   5.815   2.497   1.338 -0.0296  0.6513 -0.1556
   87RES     C236294   5.788   2.409   1.213 -0.0376  0.2565 -0.3667
   87RES     C336295   5.872   2.281   1.220  0.1287  0.4110 -0.2109
   87RES     C436296   5.844   2.186   1.338 -0.4433  0.1645  0.6903
   87RES     C536297   5.938   2.062   1.335 -0.0195  0.0624  0.7581
   87RES     C636298   5.897   1.955   1.440 -0.0499  0.0827 -0.0578
   87RES     C736299   5.908   1.999   1.586 -0.2658  0.4016  0.6411
   87RES     H836300   5.820   2.436   1.429  1.1136  0.7582 -0.1423
   87RES     H936301   5.741   2.575   1.355  0.3168  0.7021  1.1565
   87RES    H1036302   5.683   2.383   1.225  0.7870 -2.9286  0.6561
   87RES    H1136303   5.854   2.229   1.126  1.6283 -0.9552  0.2326
   87RES    H1236304   5.980   2.297   1.216  0.2968 -0.8636 -0.9545
   87RES    H1336305   5.867   2.245   1.427  2.7657  0.3684 -0.2114
   87RES    H1436306   5.737   2.163   1.346 -1.0494  2.7879  0.5176
   87RES    H1536307   6.041   2.093   1.354  0.6787  0.3554 -3.2294
   87RES    H1636308   5.914   2.009   1.243 -1.6879  0.1862  1.0896
   87RES    H1736309   5.962   1.871   1.415 -0.8059 -0.1917 -1.1229
   87RES    H1836310   5.803   1.907   1.413  0.1090 -1.7434  2.3684
   87RES    H1936311   5.861   2.095   1.610 -0.3960  0.1637  1.3610
   87RES    H2036312   6.009   2.022   1.619  1.5965 -3.2251 -2.2333
   87RES    H2136313   5.860   1.929   1.655  1.2442 -1.0811  0.2213
   87RES    H2236314   5.909   2.550   1.350  0.0452  0.4864 -0.0066
   87RES    C2336315   5.821   2.500   1.091  0.3130  0.6201 -0.1342
   87RES    C2436316   5.774   2.459   0.950  0.2536  0.3636  0.2197
   87RES    C2536317   5.801   2.573   0.847  0.5664  0.0221 -0.0592
   87RES    C2636318   5.942   2.564   0.791 -0.5744 -0.4394  0.0784
   87RES    C2736319   5.982   2.653   0.682 -0.4824 -0.2974  0.2783
   87RES    C2836320   6.131   2.640   0.637 -0.3282  0.1096 -0.6580
   87RES    C2936321   6.229   2.727   0.712  0.1381  0.1606  0.1251
   87RES    H3036322   5.775   2.597   1.108 -2.2573  0.1060 -3.5518
   87RES    H3136323   5.928   2.522   1.086  0.8860 -1.2256  2.7723
   87RES    H3236324   5.819   2.365   0.918  1.8768  1.9796 -2.3974
   87RES    H3336325   5.793   2.672   0.891 -3.8265 -0.2666  0.0566
   87RES    H3436326   5.726   2.580   0.768  1.5289 -1.7021 -1.1566
   87RES    H3536327   5.957   2.465   0.748 -2.8084 -0.8773  0.2376
   87RES    H3636328   6.015   2.582   0.870  1.1917 -1.2743 -1.3140
   87RES    H3736329   5.965   2.758   0.703 -0.7557 -0.0833 -0.9271
   87RES    H3836330   5.910   2.636   0.602 -0.3513  0.2380  0.0436
   87RES    H3936331   6.135   2.670   0.532  2.5413  0.4840 -0.4926
   87RES    H4036332   6.160   2.535   0.643 -1.3180 -0.2471 -2.0058
   87RES    H4136333   6.200   2.832   0.717 -2.6735 -0.5532 -0.0030
   87RES    H4236334   6.234   2.708   0.820  1.8177 -1.9081 -0.2862
   87RES    H4336335   6.332   2.706   0.685 -0.1122  0.1939 -0.8693
   87RES    C4436336   5.622   2.421   0.952 -0.5711  0.4709 -0.2065
   87RES    C4536337   5.555   2.362   0.819  0.1898  0.3244 -0.3641
   87RES    C4636338   5.542   2.213   0.829  0.0846  0.3579 -0.0562
   87RES    C4736339   5.670   2.145   0.867 -0.5194 -0.2039  0.2924
   87RES    C4836340   5.668   2.001   0.830 -0.1923 -0.1261  0.5535
   87RES    C4936341   5.809   1.938   0.820  0.3243 -0.1369  0.0767
   87RES    C5036342   5.876   1.934   0.959 -0.6299  0.2661  0.3821
   87RES    H5136343   5.568   2.510   0.983  2.7848  2.5097  0.0149
   87RES    H5236344   5.603   2.350   1.033 -0.5447 -0.4405 -0.9911
   87RES    H5336345   5.626   2.382   0.738 -0.5458  0.4202 -0.9903
   87RES    H5436346   5.508   2.174   0.734  1.0790  2.1073 -1.1637
   87RES    H5536347   5.457   2.188   0.892  1.0794  0.9559  1.5758
   87RES    H5636348   5.746   2.199   0.811 -0.4723  1.4720  1.9394
   87RES    H5736349   5.696   2.155   0.972 -3.1634  2.1140  0.7922
   87RES    H5836350   5.611   1.993   0.738 -2.4733  1.3078  1.8151
   87RES    H5936351   5.621   1.932   0.901  0.6980 -0.8888  0.4131
   87RES    H6036352   5.870   1.994   0.749 -0.1863  0.2808 -0.0356
   87RES    H6136353   5.783   1.843   0.773 -1.6534 -0.6385  2.1141
   87RES    H6236354   5.903   2.026   1.011  0.5265 -1.9776  3.9417
   87RES    H6336355   5.968   1.877   0.951  0.4805  2.0769 -0.0728
   87RES    H6436356   5.815   1.881   1.032  1.1866 -2.2096  0.1548
   87RES    C6536357   5.416   2.436   0.795  0.6580  0.1425 -0.3654
   87RES    C6636358   5.335   2.392   0.672  0.2048  0.6042  0.2449
   87RES    C6736359   5.424   2.406   0.545 -0.3387  0.4288  0.0043
   87RES    C6836360   5.485   2.539   0.511  0.4432  0.3058 -0.4274
   87RES    C6936361   5.521   2.558   0.363 -0.2616  0.3541 -0.2785
   87RES    C7036362   5.546   2.697   0.321  0.7157 -0.4974  0.1090
   87RES    C7136363   5.664   2.759   0.390 -0.3425  0.4408 -0.0677
   87RES    H7236364   5.352   2.426   0.883  2.7453 -1.6551  1.0033
   87RES    H7336365   5.432   2.543   0.786  0.9090  0.0915 -0.5344
   87RES    H7436366   5.316   2.285   0.679  0.7717  0.3204 -2.2118
   87RES    H7536367   5.503   2.332   0.555 -0.7970  0.5462  5.5508
   87RES    H7636368   5.364   2.361   0.465  1.6834 -1.9614 -0.2130
   87RES    H7736369   5.406   2.603   0.549 -0.5708 -0.8614 -0.5344
   87RES    H7836370   5.572   2.556   0.574 -1.2857 -1.8721  2.6817
   87RES    H7936371   5.603   2.496   0.327 -0.4736 -0.2179  0.2135
   87RES    H8036372   5.435   2.529   0.302  0.1350 -0.5045 -0.4329
   87RES    H8136373   5.456   2.758   0.329  0.9463  0.2290 -2.3635
   87RES    H8236374   5.555   2.695   0.212  0.6773 -1.9495  0.1234
   87RES    H8336375   5.676   2.860   0.350  0.5187 -1.1004 -3.9393
   87RES    H8436376   5.641   2.773   0.495  0.0379  0.8593 -0.0380
   87RES    H8536377   5.756   2.701   0.381  0.9738  2.5170 -0.5624
   87RES    C8636378   5.198   2.468   0.654  0.1670 -0.5456 -0.4307
   87RES    C8736379   5.083   2.437   0.757 -0.0349  0.4715 -0.0047
   87RES    C8836380   4.970   2.544   0.756  0.0385  0.1532  0.6575
   87RES    C8936381   4.997   2.672   0.838  0.6427  0.3602 -0.6611
   87RES    C9036382   4.872   2.764   0.855 -0.5784 -0.0635 -0.4874
   87RES    C9136383   4.907   2.897   0.935  0.0780  0.2049 -0.5383
   87RES    C9236384   4.786   2.987   0.953 -0.4885 -0.5262 -0.0049
   87RES    H9336385   5.215   2.575   0.660 -0.5315 -0.4031 -0.9469
   87RES    H9436386   5.166   2.452   0.552 -0.1902 -0.8903 -0.2651
   87RES    H9536387   5.132   2.447   0.854  0.1678 -1.4991  0.1171
   87RES    H9636388   4.943   2.560   0.651  1.2125  1.0697  0.4882
   87RES    H9736389   4.888   2.495   0.808 -0.0624 -0.4562 -0.0757
   87RES    H9836390   5.026   2.646   0.940 -0.2394 -0.6479 -0.6580
   87RES    H9936391   5.079   2.718   0.781 -0.6269  1.7286 -1.4211
   87RES   H10036392   4.797   2.717   0.919 -1.7492  1.6735 -0.5468
   87RES   H10136393   4.830   2.787   0.757 -1.0888 -1.7389 -0.6702
   87RES   H10236394   4.937   2.865   1.035 -3.1324  0.9682  0.7152
   87RES   H10336395   4.987   2.947   0.880  0.8577 -1.9532 -1.4423
   87RES   H10436396   4.701   2.943   1.006 -1.5350 -0.1018 -1.3157
   87RES   H10536397   4.751   3.006   0.852  2.6483  0.8959 -0.8984
   87RES   H10636398   4.805   3.084   1.000 -1.3130  0.9552 -2.6132
   87RES   C10736399   5.038   2.289   0.736 -0.1961  0.3568 -0.2948
   87RES   C10836400   4.952   2.230   0.853  0.0326  0.9239  0.3269
   87RES   C10936401   4.890   2.100   0.809  0.4014  0.3560 -0.1254
   87RES   C11036402   4.742   2.107   0.756  0.1980  0.1884 -0.2055
   87RES   C11136403   4.715   1.991   0.665  0.3800  0.2402  0.7987
   87RES   C11236404   4.564   1.987   0.622  0.3558 -0.5621  0.8035
   87RES   C11336405   4.465   1.915   0.729 -0.0754 -0.1342 -0.4512
   87RES   H11436406   5.124   2.222   0.728  1.4237  2.4648 -1.0271
   87RES   H11536407   4.983   2.278   0.642  0.2577 -0.9687 -0.4271
   87RES   H11636408   4.870   2.301   0.866  1.8929  3.0388  0.7770
   87RES   H11736409   4.896   2.029   0.892 -0.3715 -0.8935 -1.1252
   87RES   H11836410   4.954   2.047   0.738 -0.5537  2.4447 -2.6036
   87RES   H11936411   4.670   2.138   0.832  1.9468  1.7473  0.8566
   87RES   H12036412   4.742   2.198   0.695  3.0396  0.0787 -0.4501
   87RES   H12136413   4.739   1.892   0.705 -3.2045 -2.3104 -2.9268
   87RES   H12236414   4.768   2.003   0.571  1.3163  0.5881  1.3712
   87RES   H12336415   4.525   2.087   0.603 -0.0025 -0.3143  2.6917
   87RES   H12436416   4.580   1.943   0.523 -0.7590 -0.1806  0.4513
   87RES   H12536417   4.383   1.871   0.672  0.3995  0.9704 -2.0136
   87RES   H12636418   4.526   1.837   0.774 -1.6454 -1.4588 -0.5876
   87RES   H12736419   4.425   1.987   0.800 -1.7732 -1.0266 -0.4713
   87RES   C12836420   5.030   2.223   0.986  0.6133  0.5746  0.1271
   87RES   C12936421   4.951   2.196   1.116  0.2411 -0.3394 -0.9168
   87RES   C13036422   4.856   2.310   1.161 -0.4593  0.4061 -0.2709
   87RES   C13136423   4.929   2.442   1.205 -0.6602 -0.8874  1.7207
   87RES   C13236424   4.834   2.564   1.227  0.7429 -0.7059 -0.5047
   87RES   C13336425   4.901   2.677   1.311  0.4477 -0.6789  0.3178
   87RES   C13436426   4.812   2.802   1.324  0.3351  0.1649 -1.0298
   87RES   H13536427   5.115   2.154   0.983 -2.3093 -3.2011 -0.1983
   87RES   H13636428   5.081   2.316   1.010  0.3801  1.0419 -1.1714
   87RES   H13736429   4.888   2.111   1.091 -0.4013  0.6543 -2.8154
   87RES   H13836430   4.790   2.279   1.241 -0.7417 -1.6053 -1.2584
   87RES   H13936431   4.784   2.332   1.081 -1.4474 -1.8104 -0.0312
   87RES   H14036432   5.005   2.469   1.130 -3.2214 -0.3092 -0.7443
   87RES   H14136433   4.974   2.415   1.300  1.4743  1.1458  1.3648
   87RES   H14236434   4.740   2.529   1.270 -0.0926  1.2867 -0.6534
   87RES   H14336435   4.808   2.608   1.131 -0.2681 -0.6828 -0.2239
   87RES   H14436436   4.992   2.712   1.263 -0.7758  0.0471 -1.5384
   87RES   H14536437   4.936   2.640   1.408 -2.4973 -1.5358  1.1275
   87RES   H14636438   4.868   2.881   1.375 -1.3796 -0.8010  2.5532
   87RES   H14736439   4.730   2.785   1.394  1.0683 -1.8914 -0.6538
   87RES   H14836440   4.761   2.835   1.233 -0.7437 -2.5635 -1.4590
   87RES   C14936441   5.035   2.146   1.234  0.3406  1.3599  0.1484
   87RES   C15036442   4.978   2.033   1.326 -0.3251 -1.3706 -0.5116
   87RES   C15136443   4.977   2.067   1.477 -0.1658  0.1192  0.1757
   87RES   C15236444   4.888   2.180   1.521 -0.1351  0.8606  0.3604
   87RES   C15336445   4.870   2.196   1.670 -0.0460 -0.6841 -0.6307
   87RES   C15436446   4.766   2.311   1.702  0.3676 -0.3604  0.9063
   87RES   C15536447   4.619   2.268   1.689  0.2233 -0.1675  0.1632
   87RES   H15636448   5.129   2.106   1.195 -1.0882 -0.3495 -1.6210
   87RES   H15736449   5.073   2.224   1.301 -0.7434  1.4602  0.6572
   87RES   H15836450   4.876   2.010   1.294 -0.3726  0.9618 -2.0987
   87RES   H15936451   4.955   1.975   1.532 -1.6371 -0.0927 -0.7403
   87RES   H16036452   5.079   2.078   1.515  0.0040 -0.2297 -0.1757
   87RES   H16136453   4.795   2.174   1.463  0.2488  2.6411 -0.4702
   87RES   H16236454   4.938   2.268   1.483 -0.0621  0.7721  0.2518
   87RES   H16336455   4.964   2.217   1.721  0.3493 -1.8089 -0.8879
   87RES   H16436456   4.824   2.109   1.717  0.2510 -0.7545 -0.4703
   87RES   H16536457   4.785   2.381   1.621  3.0878 -1.5548  0.4815
   87RES   H16636458   4.790   2.358   1.797 -0.1153 -1.2103  1.4550
   87RES   H16736459   4.617   2.228   1.588  2.6956 -1.3295  0.5281
   87RES   H16836460   4.556   2.357   1.691  0.7500  0.1911  2.3878
   87RES   H16936461   4.593   2.210   1.778 -1.3268 -0.6813 -0.6222
   87RES   C17036462   5.066   1.903   1.308  0.0203 -0.5542  0.1075
   87RES   C17136463   5.063   1.836   1.167  0.2208 -0.1031  0.8306
   87RES   C17236464   5.208   1.813   1.119  0.4605 -0.2788 -0.3000
   87RES   C17336465   5.225   1.775   0.967 -0.7241  0.2907  0.4649
   87RES   C17436466   5.365   1.760   0.928 -0.1864 -0.1483 -0.2420
   87RES   C17536467   5.379   1.680   0.798  0.1447 -0.8905 -0.3981
   87RES   C17636468   5.521   1.648   0.759 -0.1790 -0.2589 -0.0839
   87RES   H17736469   5.025   1.831   1.379 -0.8802  1.2757  1.4812
   87RES   H17836470   5.168   1.936   1.327 -0.0174 -0.1198 -0.4297
   87RES   H17936471   5.011   1.902   1.097 -0.8972 -1.1874  0.6129
   87RES   H18036472   5.264   1.745   1.183  1.5325  0.7293 -0.1571
   87RES   H18136473   5.267   1.904   1.130  0.3556  0.1833 -3.0930
   87RES   H18236474   5.172   1.849   0.907  0.5308  1.0233  0.2512
   87RES   H18336475   5.166   1.684   0.950  0.3592  0.1184 -2.5809
   87RES   H18436476   5.416   1.697   1.001  0.3620 -0.0381 -0.5320
   87RES   H18536477   5.418   1.855   0.921 -1.7055  0.6883 -0.4762
   87RES   H18636478   5.334   1.742   0.720  1.5333  2.0523  1.0749
   87RES   H18736479   5.312   1.594   0.799  0.2409 -1.0050 -1.8954
   87RES   H18836480   5.511   1.585   0.670 -0.3216  2.7622 -2.2918
   87RES   H18936481   5.574   1.583   0.829 -1.3176 -1.6079 -0.4552
   87RES   H19036482   5.584   1.727   0.717  0.0067  0.4518  1.4988
   87RES   C19136483   4.974   1.705   1.156 -0.1627  0.0650 -0.0794
   87RES   C19236484   4.830   1.711   1.201  0.5769  0.0092 -0.5293
   87RES   C19336485   4.742   1.801   1.109  0.0232 -0.5365  0.4426
   87RES   C19436486   4.610   1.829   1.192 -0.3739  0.0230  0.4864
   87RES   C19536487   4.541   1.945   1.128 -0.5931  0.0703  0.2000
   87RES   C19636488   4.417   2.001   1.197  0.4001  0.2013  0.3837
   87RES   C19736489   4.439   2.059   1.330 -0.1054 -0.5565 -0.3725
   87RES   H19836490   5.028   1.630   1.214  0.7538  1.1414  0.4929
   87RES   H19936491   4.975   1.670   1.053  1.4775 -0.0241 -0.0523
   87RES   H20036492   4.835   1.747   1.304 -1.5598  1.1403 -0.8078
   87RES   H20136493   4.729   1.747   1.016 -0.1243  0.1751  0.0471
   87RES   H20236494   4.783   1.900   1.087 -1.1796 -0.4762 -1.5900
   87RES   H20336495   4.642   1.869   1.288  1.4639  2.2882 -1.0048
   87RES   H20436496   4.539   1.749   1.213  1.3310 -1.1840  1.7464
   87RES   H20536497   4.609   2.030   1.118  0.6230 -0.8974  0.2044
   87RES   H20636498   4.504   1.916   1.029  0.9603  2.0826 -1.0111
   87RES   H20736499   4.344   1.921   1.209 -0.7698  0.5325 -3.6513
   87RES   H20836500   4.360   2.072   1.138  2.3098  0.4636 -1.2240
   87RES   H20936501   4.482   1.986   1.399  1.6707  1.2215  0.4632
   87RES   H21036502   4.352   2.086   1.391  0.9069  1.4975  0.1960
   87RES   H21136503   4.509   2.142   1.335 -1.0711  0.2903 -0.7970
   87RES   C21236504   4.779   1.568   1.214 -0.6694 -0.4704 -0.1161
   87RES   C21336505   4.705   1.536   1.350  0.5453 -0.2541  0.7758
   87RES   C21436506   4.618   1.411   1.337  0.0873  0.1581 -0.3071
   87RES   C21536507   4.479   1.412   1.260 -0.0157  0.6323 -0.5643
   87RES   C21636508   4.388   1.283   1.280 -0.3757  1.0137 -0.8506
   87RES   C21736509   4.251   1.299   1.213  0.7973  0.3248  0.2679
   87RES   C21836510   4.253   1.274   1.058  0.6674 -0.2958  0.0086
   87RES   H21936511   4.851   1.494   1.179 -0.4419  0.2893 -1.2878
   87RES   H22036512   4.709   1.559   1.131 -0.5015 -0.7428 -0.2267
   87RES   H22136513   4.630   1.612   1.369  0.6485 -0.3986  1.7980
   87RES   H22236514   4.685   1.345   1.282  0.6286  1.0325 -0.7274
   87RES   H22336515   4.595   1.374   1.436  0.8771  0.8507  0.1475
   87RES   H22436516   4.499   1.438   1.156 -4.9118  1.6152 -1.3687
   87RES   H22536517   4.407   1.487   1.291  0.7317  1.2226 -0.2482
   87RES   H22636518   4.440   1.193   1.250 -0.0525  1.0119 -0.2841
   87RES   H22736519   4.380   1.273   1.388 -1.0615 -1.8043 -1.1352
   87RES   H22836520   4.188   1.226   1.262 -0.5416  1.7847  0.7569
   87RES   H22936521   4.206   1.398   1.220 -0.4465 -0.1406 -0.8135
   87RES   H23036522   4.151   1.255   1.022  0.9772  1.1194 -1.6925
   87RES   H23136523   4.310   1.185   1.031 -2.2802 -2.5145  0.8051
   87RES   H23236524   4.280   1.365   1.004  0.5378  1.3190  2.6007
   87RES   C23336525   4.816   1.532   1.462 -1.0795  0.3672  0.1578
   87RES   C23436526   4.750   1.573   1.592 -0.2788 -0.2721 -0.0947
   87RES   C23536527   4.821   1.501   1.710 -0.6311  0.4024 -1.0451
   87RES   C23636528   4.976   1.511   1.729  0.1919  0.5294  0.0178
   87RES   C23736529   5.015   1.485   1.871  0.2545  0.0082 -0.1403
   87RES   C23836530   5.169   1.493   1.884  0.3321 -0.1544  0.0128
   87RES   C23936531   5.223   1.462   2.027 -0.2425 -0.5471 -0.1049
   87RES   H24036532   4.910   1.579   1.432 -1.2093 -0.1665 -1.1227
   87RES   H24136533   4.840   1.426   1.472  1.5640  0.9622  0.5897
   87RES   H24236534   4.648   1.534   1.587 -0.3783 -0.3274  1.9548
   87RES   H24336535   4.801   1.394   1.698  0.6577  0.2518 -2.0305
   87RES   H24436536   4.772   1.531   1.802 -1.3585  0.1464 -1.3391
   87RES   H24536537   5.000   1.617   1.721  1.7167  0.2617  0.8369
   87RES   H24636538   5.032   1.450   1.658  0.1240  1.4322 -0.8237
   87RES   H24736539   4.978   1.388   1.905  0.2240  0.8641  2.3600
   87RES   H24836540   4.966   1.561   1.932 -0.8297  1.0102 -2.1865
   87RES   H24936541   5.209   1.424   1.809  0.6475 -0.6048  0.5884
   87RES   H25036542   5.203   1.592   1.851 -0.0032  1.1281  3.3709
   87RES   H25136543   5.196   1.365   2.068  2.5479 -2.0039 -1.5575
   87RES   H25236544   5.331   1.466   2.035 -0.2767 -0.3889  0.2579
   87RES   H25336545   5.185   1.542   2.090 -1.5001  1.0253 -2.7285
   87RES   C25436546   4.744   1.724   1.609  0.1818 -0.2070  0.0266
   87RES   C25536547   4.672   1.778   1.740 -0.1185 -0.0873  0.4703
   87RES   C25636548   4.573   1.895   1.711  0.0802  0.2841  0.1623
   87RES   C25736549   4.431   1.863   1.690  0.2108  0.0105  0.5988
   87RES   C25836550   4.387   1.769   1.574 -0.8675  0.4899  0.6044
   87RES   C25936551   4.245   1.702   1.594 -0.4000 -0.3401 -0.0756
   87RES   C26036552   4.218   1.579   1.507 -0.3853 -0.1204  0.8169
   87RES   H26136553   4.698   1.762   1.518 -0.2152 -0.1992  0.2295
   87RES   H26236554   4.848   1.758   1.614  0.5009 -1.3824  2.8445
   87RES   H26336555   4.608   1.698   1.777  0.1261  0.7569  2.7812
   87RES   H26436556   4.613   1.968   1.641  0.6996  0.0262  0.2415
   87RES   H26536557   4.563   1.955   1.801  0.7376  0.5024  0.0985
   87RES   H26636558   4.383   1.837   1.785  0.3039 -0.2319  0.5787
   87RES   H26736559   4.386   1.959   1.663  0.1901  0.3098  1.6376
   87RES   H26836560   4.453   1.682   1.578 -1.5282 -0.1905 -2.4787
   87RES   H26936561   4.401   1.799   1.470  0.3237  2.8114  1.4145
   87RES   H27036562   4.234   1.672   1.698 -1.3861  0.7008  0.1241
   87RES   H27136563   4.170   1.778   1.571  0.6459  0.8369  0.3192
   87RES   H27236564   4.287   1.494   1.506  1.4633  1.2127 -4.0016
   87RES   H27336565   4.116   1.549   1.531 -1.2963  3.2150  1.3636
   87RES   H27436566   4.217   1.625   1.408 -0.5872 -0.2430  0.7607
   87RES   C27536567   4.779   1.827   1.850  0.0606 -0.2289 -0.2039
   87RES   C27636568   4.726   1.833   2.001 -0.1817  0.1986  0.3816
   87RES   C27736569   4.810   1.923   2.097 -0.4554 -0.0946  0.2107
   87RES   C27836570   4.964   1.876   2.114 -0.2185  0.1550 -0.1719
   87RES   C27936571   5.057   1.998   2.136  0.1850 -0.5782  0.0364
   87RES   C28036572   5.074   2.079   2.006  0.3081  0.0885  0.4047
   87RES   C28136573   5.207   2.156   1.997 -0.0861 -0.1168  0.1316
   87RES   H28236574   4.819   1.925   1.825 -1.5048  0.2180 -1.0268
   87RES   H28336575   4.873   1.773   1.849 -0.7640 -1.6746 -0.9458
   87RES   H28436576   4.624   1.873   2.001 -0.1560  0.2637  0.3982
   87RES   H28536577   4.799   2.023   2.055 -4.8995 -0.1682  0.9685
   87RES   H28636578   4.757   1.932   2.191 -2.1756 -0.5320 -0.7054
   87RES   H28736579   5.005   1.822   2.029  1.3483 -0.7627  1.1528
   87RES   H28836580   4.977   1.806   2.197  0.0806  1.4506  0.8930
   87RES   H28936581   5.147   1.941   2.159 -1.4094 -2.4925  1.6760
   87RES   H29036582   5.045   2.057   2.227 -0.8626  0.6631 -0.8779
   87RES   H29136583   5.082   2.010   1.923 -1.2653 -0.2019  0.4837
   87RES   H29236584   4.985   2.136   1.983 -0.4987 -0.1236  2.8329
   87RES   H29336585   5.290   2.085   1.992  0.9549  0.9554  1.6505
   87RES   H29436586   5.224   2.210   2.090 -1.2254  0.4010  0.0477
   87RES   H29536587   5.212   2.218   1.907 -0.2573  0.2362  0.3662
   87RES   C29636588   4.709   1.689   2.058  0.0712 -0.0921  0.0019
   87RES   C29736589   4.637   1.669   2.195 -0.3686  0.1794  0.2028
   87RES   C29836590   4.686   1.533   2.258  0.1071 -0.2178 -0.9952
   87RES   C29936591   4.824   1.526   2.322  0.6534 -0.3604 -0.6673
   87RES   C30036592   4.876   1.379   2.320  0.5376  0.0091 -0.7335
   87RES   C30136593   5.027   1.357   2.352 -0.1639 -0.2733 -0.2643
   87RES   C30236594   5.060   1.209   2.382  0.9955 -0.7643  0.6597
   87RES   H30336595   4.654   1.628   1.986 -0.2989 -0.0608  0.2563
   87RES   H30436596   4.804   1.636   2.063  0.4258 -0.1962 -4.9480
   87RES   H30536597   4.675   1.736   2.272  0.4320  1.3120 -1.1706
   87RES   H30636598   4.612   1.489   2.324 -1.4796  1.5822 -1.5523
   87RES   H30736599   4.686   1.469   2.169 -2.1923 -0.9120 -0.5208
   87RES   H30836600   4.827   1.566   2.423  2.9729 -0.2576 -0.7630
   87RES   H30936601   4.903   1.573   2.264  1.6205 -0.9881  0.1183
   87RES   H31036602   4.848   1.335   2.224  0.3557  2.3562 -1.7699
   87RES   H31136603   4.816   1.324   2.393  1.2134  0.6770  0.3408
   87RES   H31236604   5.092   1.392   2.273  0.9448 -0.4454  0.5544
   87RES   H31336605   5.061   1.418   2.435  0.0754  0.5971 -1.0011
   87RES   H31436606   4.990   1.152   2.320 -1.7411 -1.1452  3.9453
   87RES   H31536607   5.158   1.177   2.345  0.4338 -1.7836  0.0160
   87RES   H31636608   5.027   1.193   2.484 -0.6773 -0.1338  0.2433
   87RES   C31736609   4.494   1.694   2.186 -0.1176 -0.2153  0.8415
   87RES   C31836610   4.426   1.766   2.305  0.3218 -0.1783 -0.3914
   87RES   C31936611   4.465   1.918   2.313  0.3043 -0.6587 -0.6531
   87RES   C32036612   4.429   1.975   2.454 -0.5213 -0.6056 -0.8464
   87RES   C32136613   4.448   2.128   2.473  0.2456  0.7732 -0.0223
   87RES   C32236614   4.445   2.169   2.615  0.1795 -0.6542  0.1602
   87RES   C32336615   4.413   2.316   2.611  0.8366 -0.5060  0.6133
   87RES   H32436616   4.452   1.596   2.162 -0.7545  0.3589 -0.4419
   87RES   H32536617   4.474   1.740   2.089  0.5208 -1.4292  0.1261
   87RES   H32636618   4.458   1.703   2.388  0.0662 -0.5470 -0.5737
   87RES   H32736619   4.411   1.981   2.242 -0.6497  0.0690  0.6955
   87RES   H32836620   4.570   1.936   2.292  0.2210  1.7859  0.8066
   87RES   H32936621   4.491   1.921   2.525 -1.7794 -0.2574  0.5285
   87RES   H33036622   4.333   1.954   2.500  0.8151 -3.6757  0.7010
   87RES   H33136623   4.383   2.184   2.405 -0.3554 -2.2885 -2.1157
   87RES   H33236624   4.551   2.138   2.441  0.9873 -1.7578  1.4850
   87RES   H33336625   4.544   2.162   2.658  1.2558  0.3255 -2.0565
   87RES   H33436626   4.364   2.115   2.665 -1.6138  1.9717  0.2160
   87RES   H33536627   4.502   2.377   2.600 -0.6677  2.2328  2.8583
   87RES   H33636628   4.377   2.343   2.711 -0.4589 -0.3719  0.1303
   87RES   H33736629   4.337   2.337   2.536  0.1618 -6.6237 -0.7198
   87RES   C33836630   4.278   1.739   2.279 -0.4459  0.0379  0.2445
   87RES   C33936631   4.214   1.610   2.323  0.0094  0.1486 -0.1240
   87RES   C34036632   4.077   1.568   2.256  0.4527  0.3381 -0.0488
   87RES   C34136633   4.107   1.499   2.124  0.1683  0.0232  0.4947
   87RES   C34236634   3.995   1.468   2.020  0.5347 -0.0262 -0.2579
   87RES   C34336635   3.862   1.413   2.082 -0.6638 -0.7205 -0.0973
   87RES   C34436636   3.748   1.403   1.976  0.0586 -0.3325  0.5302
   87RES   H34536637   4.261   1.757   2.173 -2.6710 -0.6742  0.4563
   87RES   H34636638   4.213   1.819   2.317  1.1482  0.8523  1.3309
   87RES   H34736639   4.288   1.531   2.308  1.8659  1.4074  1.9863
   87RES   H34836640   4.003   1.516   2.317 -0.5076 -1.8259 -2.9527
   87RES   H34936641   4.020   1.655   2.222  0.9082  0.4256 -0.5954
   87RES   H35036642   4.159   1.404   2.137 -0.2662 -0.6795 -2.5213
   87RES   H35136643   4.176   1.554   2.059 -0.1388 -1.2516 -0.9384
   87RES   H35236644   3.966   1.558   1.966  2.5829  0.5725 -0.4017
   87RES   H35336645   4.026   1.393   1.947  1.6827  1.7372 -1.6174
   87RES   H35436646   3.886   1.322   2.136  0.4703 -0.7929 -0.7293
   87RES   H35536647   3.831   1.486   2.157  0.5558  0.2856 -0.5593
   87RES   H35636648   3.653   1.363   2.010  0.0597  0.0921  1.0368
   87RES   H35736649   3.778   1.332   1.899  0.0506  1.3352 -1.0538
   87RES   H35836650   3.746   1.501   1.928 -3.6803  0.8122  2.8497
   87RES   C35936651   4.195   1.618   2.479  0.8076 -0.1209 -0.1537
   87RES   C36036652   4.185   1.482   2.554 -0.0839  0.3789  0.4305
   87RES   C36136653   4.326   1.418   2.566 -0.5528 -0.3530 -0.5523
   87RES   C36236654   4.427   1.509   2.644  0.3344 -1.0083 -0.4283
   87RES   C36336655   4.565   1.441   2.671 -0.2096 -0.5220 -0.6348
   87RES   C36436656   4.668   1.526   2.743  0.6973  0.4865  0.0942
   87RES   C36536657   4.802   1.458   2.752  0.6464  0.0700  0.3400
   87RES   H36636658   4.100   1.669   2.496  0.7295  0.4645 -2.1237
   87RES   H36736659   4.271   1.679   2.529 -0.1322  2.9828 -2.2885
   87RES   H36836660   4.123   1.409   2.502 -0.9757  0.6522  1.1051
   87RES   H36936661   4.326   1.321   2.615 -2.5858  0.6959  1.5724
   87RES   H37036662   4.375   1.380   2.476  1.7099  0.1499  0.4221
   87RES   H37136663   4.450   1.595   2.581  0.4815 -0.1721  0.7534
   87RES   H37236664   4.398   1.543   2.743  1.3433 -1.9245  0.1860
   87RES   H37336665   4.544   1.350   2.727  0.3752  1.2043  2.4501
   87RES   H37436666   4.614   1.420   2.576 -0.4657  2.5790 -1.5013
   87RES   H37536667   4.669   1.626   2.698  1.7143 -0.1918 -1.4552
   87RES   H37636668   4.633   1.543   2.844 -1.6366  1.1980 -0.8168
   87RES   H37736669   4.793   1.352   2.773 -0.4194  0.0975  0.0302
   87RES   H37836670   4.855   1.447   2.657  2.3261 -0.0377  1.2691
   87RES   H37936671   4.869   1.504   2.826  0.9528 -0.2866  0.2869
   87RES   C38036672   4.117   1.510   2.690 -0.8633  0.5415  0.1354
   87RES   C38136673   4.106   1.393   2.789  0.5286  0.2260 -0.3309
   87RES   C38236674   4.010   1.430   2.902  0.7374  0.7432 -0.1484
   87RES   C38336675   4.065   1.525   3.007 -0.3557 -0.4348  0.3479
   87RES   C38436676   3.960   1.546   3.120 -0.4947 -0.1579 -0.4264
   87RES   C38536677   4.020   1.632   3.239  0.3874  0.8385 -0.5762
   87RES   C38636678   3.919   1.691   3.328  0.0413  0.4021 -0.8710
   87RES   H38736679   4.163   1.592   2.745  0.4810  0.5730 -1.0045
   87RES   H38836680   4.018   1.550   2.668 -0.6128  1.1828  0.1646
   87RES   H38936681   4.205   1.379   2.834  0.5234  1.7316  0.1954
   87RES   H39036682   3.968   1.340   2.946  0.4821  0.5295 -0.8241
   87RES   H39136683   3.929   1.488   2.857  0.9563  0.1308 -1.3394
   87RES   H39236684   4.165   1.499   3.043  0.0298  2.5927  1.5991
   87RES   H39336685   4.083   1.616   2.950 -1.9134 -0.6957 -0.5764
   87RES   H39436686   3.878   1.597   3.068 -0.4561 -1.1603 -1.4787
   87RES   H39536687   3.924   1.455   3.169 -0.9152  0.3704  0.2673
   87RES   H39636688   4.093   1.707   3.208  0.7888  1.3546  1.5718
   87RES   H39736689   4.073   1.558   3.299 -1.2339  0.1567  0.0253
   87RES   H39836690   3.850   1.759   3.277  0.6639  2.1998  0.6372
   87RES   H39936691   3.966   1.740   3.413  1.0751 -1.7908 -0.1453
   87RES   H40036692   3.854   1.617   3.373 -0.0687 -0.3651 -2.2534
   87RES   C40136693   4.069   1.259   2.720 -0.0718 -0.6549  0.6788
   87RES   C40236694   3.926   1.250   2.662  1.0681  0.5416  0.2952
   87RES   C40336695   3.905   1.113   2.588 -0.1145 -0.1988 -0.1358
   87RES   C40436696   3.759   1.085   2.531 -0.8260  0.1732 -0.6719
   87RES   C40536697   3.741   0.979   2.424 -0.3416 -0.2904 -0.6881
   87RES   C40636698   3.773   1.006   2.280 -0.3447  0.5003 -0.1826
   87RES   C40736699   3.737   0.900   2.177 -0.1711  0.1742 -0.5381
   87RES   H40836700   4.065   1.180   2.794  0.6195 -0.0354  1.3953
   87RES   H40936701   4.140   1.237   2.640 -0.1391  0.2874  0.3523
   87RES   H41036702   3.912   1.329   2.589 -0.9429 -0.1640 -0.1157
   87RES   H41136703   3.946   1.039   2.656  1.9733 -0.0814 -1.2171
   87RES   H41236704   3.965   1.117   2.497 -0.6935  0.5264 -0.5020
   87RES   H41336705   3.712   1.170   2.482  1.1607  0.8104 -1.5360
   87RES   H41436706   3.698   1.065   2.619 -1.1281  0.0742 -0.9050
   87RES   H41536707   3.813   0.900   2.444  0.6980  0.6955 -0.4804
   87RES   H41636708   3.653   0.918   2.441  0.6289 -1.3773  0.4852
   87RES   H41736709   3.742   1.105   2.248  0.4886  1.2546  1.2508
   87RES   H41836710   3.881   1.019   2.275 -0.2773  0.2446  0.5339
   87RES   H41936711   3.793   0.921   2.086  1.0632 -1.1480 -0.1194
   87RES   H42036712   3.629   0.900   2.168 -0.1126 -3.3030 -2.0447
   87RES   H42136713   3.764   0.803   2.219  1.9612  0.3864 -1.3292
   87RES   H42236714   3.849   1.284   2.731  1.3759  0.7349  0.5514
   88RES     C136715   0.531   3.959   6.846  0.4791  0.0810 -0.2562
   88RES     C236716   0.439   4.080   6.822  0.0659 -0.0931 -0.1227
   88RES     C336717   0.330   4.094   6.933 -0.4115  0.2037 -0.0317
   88RES     C436718   0.253   4.229   6.939 -0.2496  1.0181  0.7180
   88RES     C536719   0.159   4.258   7.057 -0.3315 -0.3410 -0.5737
   88RES     C636720   0.048   4.156   7.084 -0.3236 -0.0994  0.3578
   88RES     C736721   7.629   4.195   7.047 -0.0292 -0.5933 -0.4167
   88RES     H836722   0.557   3.952   6.952  0.7128  1.3230 -0.2195
   88RES     H936723   0.621   3.975   6.787  1.3317  0.6074  1.1742
   88RES    H1036724   0.514   4.159   6.827  1.8495 -1.7674 -0.0348
   88RES    H1136725   0.256   4.015   6.918  0.4423 -1.3377  3.4831
   88RES    H1236726   0.372   4.084   7.033  0.5603 -1.1550 -0.5555
   88RES    H1336727   0.325   4.310   6.950 -0.8719  1.9334 -1.5780
   88RES    H1436728   0.203   4.231   6.842 -1.5008  0.1511  1.3373
   88RES    H1536729   0.104   4.348   7.030 -0.2479 -0.6095 -1.6695
   88RES    H1636730   0.218   4.264   7.148 -0.9114  1.3465 -0.3037
   88RES    H1736731   0.046   4.146   7.193 -0.7028  1.0574  0.4642
   88RES    H1836732   0.067   4.055   7.048 -2.3031 -0.8594  1.3697
   88RES    H1936733   7.561   4.131   7.104  1.0482  1.1095  2.9465
   88RES    H2036734   7.618   4.179   6.940 -0.7872  0.2464 -0.4761
   88RES    H2136735   7.611   4.301   7.065 -0.1873 -0.7381  0.3196
   88RES    H2236736   0.480   3.866   6.822  0.6305 -0.1681  0.3865
   88RES    C2336737   0.373   4.088   6.684 -0.1318  0.7324  0.3138
   88RES    C2436738   0.457   4.034   6.557 -0.1085 -0.4963 -0.1811
   88RES    C2536739   0.585   4.120   6.522  0.5939  0.4251  0.4520
   88RES    C2636740   0.686   4.036   6.440 -0.0013 -0.4400  0.0783
   88RES    C2736741   0.816   4.116   6.393 -0.1289 -0.4172 -0.3822
   88RES    C2836742   0.934   4.017   6.373 -0.3490  0.6391  0.0157
   88RES    C2936743   0.903   3.897   6.293 -0.2598  0.2691 -0.6045
   88RES    H3036744   0.277   4.039   6.698 -0.8830  2.4104  1.1830
   88RES    H3136745   0.341   4.191   6.669 -1.1774  1.2056  5.1717
   88RES    H3236746   0.483   3.931   6.579 -0.6894 -0.4271  0.8476
   88RES    H3336747   0.646   4.143   6.609  0.9995 -0.9803  0.5499
   88RES    H3436748   0.568   4.213   6.467  0.3827 -1.2039 -2.3178
   88RES    H3536749   0.644   4.014   6.342  1.2302 -0.5703 -0.4214
   88RES    H3636750   0.709   3.936   6.478  0.8155 -1.4155 -2.8996
   88RES    H3736751   0.848   4.185   6.472 -1.6890  0.8488 -0.8319
   88RES    H3836752   0.789   4.168   6.301  1.1360  0.5152 -0.2517
   88RES    H3936753   0.969   3.988   6.472  0.7538  0.6870 -0.3613
   88RES    H4036754   1.019   4.069   6.330 -0.1642  0.1028 -0.2597
   88RES    H4136755   0.984   3.825   6.310 -1.3002 -1.6587 -3.4289
   88RES    H4236756   0.808   3.845   6.301 -1.2732  2.0520 -0.8187
   88RES    H4336757   0.918   3.926   6.189  0.6391 -0.0035 -0.5611
   88RES    C4436758   0.372   4.031   6.419  0.7315 -0.2985 -0.0118
   88RES    C4536759   0.286   3.905   6.409 -0.3985 -0.2335  0.1236
   88RES    C4636760   0.168   3.931   6.305  0.6061  0.1093  0.4377
   88RES    C4736761   0.219   3.981   6.163  0.3090  0.2109 -0.3451
   88RES    C4836762   0.095   3.983   6.064  0.0503  0.5074 -1.1587
   88RES    C4936763   0.128   4.073   5.940  0.2683  0.1050  0.9817
   88RES    C5036764   0.239   4.019   5.849 -0.2465 -0.4679  0.1567
   88RES    H5136765   0.430   4.041   6.327  0.1192  0.0439 -0.3675
   88RES    H5236766   0.302   4.114   6.413  0.1524 -0.7036  1.0537
   88RES    H5336767   0.240   3.897   6.508 -1.0871 -0.3648 -0.2022
   88RES    H5436768   0.100   4.011   6.335  0.5040  0.1189  0.1781
   88RES    H5536769   0.105   3.842   6.305 -0.5048  0.8822  1.7546
   88RES    H5636770   0.255   4.083   6.178  1.4607 -0.1633 -0.5069
   88RES    H5736771   0.302   3.928   6.116  1.7080  0.6083  1.6392
   88RES    H5836772   0.013   4.024   6.124 -1.1516  0.5050 -2.7693
   88RES    H5936773   0.079   3.881   6.028  0.2385 -0.1586  0.5792
   88RES    H6036774   0.135   4.177   5.972 -0.3135  0.5635 -0.3091
   88RES    H6136775   0.041   4.089   5.876 -0.6055  0.9262  2.3615
   88RES    H6236776   0.226   3.912   5.834 -1.1282 -0.0375 -2.4100
   88RES    H6336777   0.336   4.034   5.895 -0.0543 -1.1722 -0.0192
   88RES    H6436778   0.235   4.056   5.746  1.4817  0.9235  0.5584
   88RES    C6536779   0.369   3.779   6.370 -0.4794  0.2545 -0.3073
   88RES    C6636780   0.297   3.643   6.370 -0.1672 -0.2190  0.0642
   88RES    C6736781   0.231   3.604   6.504 -0.2163 -0.6994  0.5262
   88RES    C6836782   0.091   3.544   6.485 -0.1959  0.0255 -0.2253
   88RES    C6936783   0.041   3.486   6.612  0.3677 -0.0227  0.0085
   88RES    C7036784   7.628   3.432   6.590 -0.4719 -0.4290  0.6371
   88RES    C7136785   7.550   3.383   6.713  0.6123  0.1766 -0.1341
   88RES    H7236786   0.418   3.793   6.274  2.9725  0.3552  1.4070
   88RES    H7336787   0.454   3.769   6.438 -0.8858 -1.7956 -0.0556
   88RES    H7436788   0.213   3.649   6.301  0.6272  0.1795 -0.8879
   88RES    H7536789   0.297   3.541   6.564  1.3507 -0.1765 -0.6413
   88RES    H7636790   0.225   3.687   6.575  1.0065  0.2669 -0.4772
   88RES    H7736791   0.035   3.631   6.451  0.1510 -0.3003 -1.6830
   88RES    H7836792   0.096   3.479   6.397  0.4634 -0.2902  0.0404
   88RES    H7936793   0.118   3.418   6.648  0.1337  0.6528  1.8288
   88RES    H8036794   0.022   3.554   6.694 -0.9096 -2.0427  1.4151
   88RES    H8136795   7.624   3.353   6.515 -2.0657 -1.1275  1.4244
   88RES    H8236796   7.566   3.512   6.548 -0.3946 -0.3228  0.7267
   88RES    H8336797   7.447   3.359   6.689  1.0857 -1.6622 -0.4420
   88RES    H8436798   7.599   3.298   6.761  3.4878  0.2547 -2.7831
   88RES    H8536799   7.527   3.461   6.785 -0.1737 -0.1783  0.0087
   88RES    C8636800   0.382   3.534   6.303 -0.0127 -0.3911  0.2078
   88RES    C8736801   0.347   3.506   6.156  0.0925  0.5979 -0.3359
   88RES    C8836802   0.367   3.628   6.068  0.1946 -0.2530  0.5638
   88RES    C8936803   0.517   3.669   6.037  0.3251 -0.3082 -0.1697
   88RES    C9036804   0.528   3.780   5.930  0.1129  0.4981  0.1507
   88RES    C9136805   0.658   3.847   5.926  0.3849  0.1893 -0.1509
   88RES    C9236806   0.655   3.965   5.826  0.0026  0.3536  0.5544
   88RES    H9336807   0.481   3.580   6.305 -0.2055  0.0080  0.7814
   88RES    H9436808   0.376   3.443   6.362  0.2741 -0.7546 -0.3239
   88RES    H9536809   0.242   3.479   6.145 -0.0446  1.5879 -1.5371
   88RES    H9636810   0.322   3.610   5.970 -0.4626  0.7896  0.6699
   88RES    H9736811   0.311   3.710   6.112 -0.8471 -0.3502 -0.5401
   88RES    H9836812   0.567   3.696   6.130  0.7647  2.0529 -1.0760
   88RES    H9936813   0.570   3.577   6.011 -0.4728 -1.0097  0.6198
   88RES   H10036814   0.454   3.853   5.964  1.7297  1.3986  1.7783
   88RES   H10136815   0.491   3.748   5.833  2.0427  1.6029 -0.9779
   88RES   H10236816   0.694   3.880   6.024 -0.0441  1.0292 -0.2707
   88RES   H10336817   0.736   3.785   5.881  2.2352  1.4347  1.2715
   88RES   H10436818   0.752   4.012   5.816 -0.6708  1.6663  0.1732
   88RES   H10536819   0.586   4.045   5.852  0.4221  0.8277  0.1904
   88RES   H10636820   0.635   3.937   5.723  0.8500 -1.0092  0.7512
   88RES   C10736821   0.426   3.376   6.099 -0.3803  0.0575 -1.3550
   88RES   C10836822   0.368   3.243   6.154 -0.2578  0.4527 -0.4124
   88RES   C10936823   0.254   3.187   6.071 -0.2584  0.4645 -0.3673
   88RES   C11036824   0.295   3.132   5.934  0.1352  0.3376  0.0907
   88RES   C11136825   0.186   3.060   5.864 -0.2698  0.0922 -0.8772
   88RES   C11236826   0.233   3.009   5.728  0.1130 -0.7120  0.1899
   88RES   C11336827   0.119   2.998   5.628 -0.3155  0.5829  0.2000
   88RES   H11436828   0.534   3.385   6.115  0.0635 -0.8237 -3.6808
   88RES   H11536829   0.426   3.371   5.990  1.9611 -0.0173 -1.3780
   88RES   H11636830   0.330   3.263   6.254 -0.0819  2.4456 -0.7299
   88RES   H11736831   0.174   3.261   6.061 -0.1914  0.4718 -0.8917
   88RES   H11836832   0.210   3.103   6.124 -0.7085  0.0974 -1.3076
   88RES   H11936833   0.327   3.207   5.861  3.3277  0.2261  1.3007
   88RES   H12036834   0.382   3.069   5.951  0.0507  0.0528 -0.5075
   88RES   H12136835   0.102   3.129   5.864  0.4799  1.0009  0.3436
   88RES   H12236836   0.159   2.986   5.939 -1.3277  0.7085 -0.6475
   88RES   H12336837   0.296   3.086   5.683  0.7753 -0.4995  1.4515
   88RES   H12436838   0.302   2.926   5.738 -1.8686 -2.3096  0.9406
   88RES   H12536839   0.051   2.917   5.656  1.3951 -1.5428 -1.6167
   88RES   H12636840   0.075   3.097   5.617 -0.7429  0.4794  0.9185
   88RES   H12736841   0.148   2.971   5.527  0.1033  1.6333  0.0335
   88RES   C12836842   0.471   3.128   6.184 -0.2280 -0.5867 -0.4290
   88RES   C12936843   0.423   3.009   6.273 -0.4846  0.4143  0.2564
   88RES   C13036844   0.368   3.055   6.406 -0.3376  0.1836  0.2166
   88RES   C13136845   0.458   3.126   6.505  0.1967 -0.0500 -0.6951
   88RES   C13236846   0.391   3.167   6.638 -0.0441 -0.1330 -0.2626
   88RES   C13336847   0.489   3.248   6.728  0.9516  0.3042  0.5487
   88RES   C13436848   0.436   3.275   6.869 -0.3466  0.4369 -0.1143
   88RES   H13536849   0.516   3.087   6.093  0.4763 -1.0664  0.1314
   88RES   H13636850   0.564   3.158   6.233 -0.4117  1.2948 -1.1897
   88RES   H13736851   0.347   2.953   6.219  0.0606 -0.5929  0.5019
   88RES   H13836852   0.350   2.958   6.452 -2.8174  0.3651 -0.2920
   88RES   H13936853   0.269   3.100   6.399 -1.3461 -1.4803  2.9021
   88RES   H14036854   0.489   3.222   6.464 -1.1150  0.1126 -1.3353
   88RES   H14136855   0.553   3.078   6.527  0.0216  1.2054  3.1988
   88RES   H14236856   0.366   3.072   6.685 -0.7256  0.6098  0.9093
   88RES   H14336857   0.295   3.218   6.635 -0.3167 -0.6516 -0.4325
   88RES   H14436858   0.487   3.341   6.672 -2.1673 -1.5530 -2.6505
   88RES   H14536859   0.589   3.210   6.745 -0.3696 -2.9807  1.3804
   88RES   H14636860   0.341   3.327   6.856  0.4766  2.4705  1.5057
   88RES   H14736861   0.505   3.337   6.926  1.9784 -0.3782 -1.9601
   88RES   H14836862   0.421   3.181   6.922  0.5047  1.1854  1.4819
   88RES   C14936863   0.527   2.897   6.306  0.0112 -0.2833  0.2824
   88RES   C15036864   0.569   2.810   6.181 -0.3511 -0.7576  0.3955
   88RES   C15136865   0.469   2.703   6.150  0.6642 -0.7748  0.0300
   88RES   C15236866   0.433   2.617   6.265  0.1721 -0.8619 -0.0825
   88RES   C15336867   0.347   2.502   6.221  0.5209  0.0231  0.5831
   88RES   C15436868   0.334   2.396   6.329  0.0727  0.6892 -0.5579
   88RES   C15536869   0.265   2.271   6.277  0.1924  0.6436  0.4143
   88RES   H15636870   0.614   2.949   6.347  0.0009 -1.3703  1.7380
   88RES   H15736871   0.514   2.835   6.395  0.0471  0.7194  0.9842
   88RES   H15836872   0.566   2.867   6.088  0.6232 -0.1933  0.7063
   88RES   H15936873   0.377   2.752   6.118  0.2765 -2.1057 -0.9165
   88RES   H16036874   0.498   2.639   6.067  3.1326 -2.8369  2.3931
   88RES   H16136875   0.384   2.680   6.339 -0.3256 -0.1577 -0.9931
   88RES   H16236876   0.530   2.582   6.298  0.4948  1.4007  1.4703
   88RES   H16336877   0.395   2.450   6.137 -2.7020 -2.9124  0.4406
   88RES   H16436878   0.249   2.532   6.184 -0.0986 -1.5014  0.9677
   88RES   H16536879   0.271   2.432   6.410  1.2073 -0.7529  0.9887
   88RES   H16636880   0.433   2.378   6.370  0.3687 -2.8779 -2.6318
   88RES   H16736881   0.181   2.273   6.208  1.4855  0.3461 -1.2170
   88RES   H16836882   0.259   2.193   6.353 -0.0945  1.5937  1.3842
   88RES   H16936883   0.333   2.216   6.212 -0.0140  0.2591  0.5197
   88RES   C17036884   0.710   2.747   6.190 -0.2715  1.0531 -0.6558
   88RES   C17136885   0.838   2.830   6.149 -0.3993 -0.1085 -0.0472
   88RES   C17236886   0.961   2.749   6.187 -0.3632  0.2533 -0.2867
   88RES   C17336887   0.987   2.629   6.096 -0.0084 -0.4053 -0.0754
   88RES   C17436888   1.128   2.572   6.123 -0.1094 -0.6333  0.6739
   88RES   C17536889   1.155   2.436   6.053 -0.5412 -0.0930 -0.0113
   88RES   C17636890   1.147   2.444   5.898 -0.4308  0.1019 -0.0454
   88RES   H17736891   0.714   2.660   6.124  0.8951  1.2616 -0.8702
   88RES   H17836892   0.718   2.711   6.293 -1.0832  1.7566 -0.3385
   88RES   H17936893   0.824   2.913   6.219 -0.3007  0.1185 -0.2972
   88RES   H18036894   0.955   2.716   6.290  0.1968 -1.2374 -0.7152
   88RES   H18136895   1.052   2.809   6.184 -0.4952  0.3998 -3.3927
   88RES   H18236896   0.975   2.667   5.995 -0.7617 -1.9712 -0.6038
   88RES   H18336897   0.906   2.560   6.121 -1.7638  1.0574 -1.5388
   88RES   H18436898   1.134   2.550   6.229 -1.9435 -1.9468  0.5233
   88RES   H18536899   1.210   2.641   6.103 -3.0477  2.1761 -2.2225
   88RES   H18636900   1.077   2.367   6.086 -0.0436 -1.0765 -0.8533
   88RES   H18736901   1.249   2.391   6.084  0.1641  0.8971 -0.6832
   88RES   H18836902   1.183   2.352   5.851 -0.2720  0.1355  0.0096
   88RES   H18936903   1.213   2.518   5.853 -2.3338  1.1038 -1.2593
   88RES   H19036904   1.045   2.463   5.864 -1.1765 -1.6334  1.1000
   88RES   C19136905   0.831   2.879   6.005 -0.2434 -0.3138 -0.5020
   88RES   C19236906   0.962   2.954   5.957  0.0146 -0.3117 -0.0871
   88RES   C19336907   0.961   2.954   5.797 -0.7032  0.0430  0.1441
   88RES   C19436908   0.983   2.810   5.747 -0.4222  0.2974  0.5286
   88RES   C19536909   1.029   2.804   5.597  0.0141 -0.5105 -0.0920
   88RES   C19636910   1.050   2.668   5.535 -0.1388  0.0216  1.1560
   88RES   C19736911   1.117   2.690   5.399 -0.0313  0.3837 -0.1556
   88RES   H19836912   0.755   2.956   5.993  0.5903  0.5414 -0.3894
   88RES   H19936913   0.803   2.798   5.939  2.7129 -1.6249 -0.2159
   88RES   H20036914   1.047   2.896   5.992  0.0931  0.1559  0.5080
   88RES   H20136915   1.041   3.016   5.758 -1.5316  2.1437  1.6552
   88RES   H20236916   0.862   2.979   5.758 -0.4465 -0.7092 -1.0144
   88RES   H20336917   0.892   2.751   5.754  0.4116 -1.1081 -0.3181
   88RES   H20436918   1.058   2.768   5.813  0.9023  2.9802  0.7944
   88RES   H20536919   0.962   2.862   5.534 -0.1819  0.0871  0.6611
   88RES   H20636920   1.129   2.848   5.601  0.0409 -0.6714  1.1760
   88RES   H20736921   0.962   2.604   5.529  1.1986 -1.7043 -0.9294
   88RES   H20836922   1.121   2.613   5.597 -0.9494 -0.8574  1.3156
   88RES   H20936923   1.072   2.622   5.327 -0.1820  2.9687 -2.5782
   88RES   H21036924   1.224   2.673   5.401 -0.3707 -2.0236 -0.3278
   88RES   H21136925   1.094   2.786   5.353 -0.4618  0.9171  1.1490
   88RES   C21236926   0.974   3.097   6.020 -0.7968 -0.6507  0.0037
   88RES   C21336927   1.116   3.162   6.019 -0.0915 -0.2689 -0.4845
   88RES   C21436928   1.123   3.304   5.953 -0.1052 -0.0436 -0.3531
   88RES   C21536929   1.025   3.410   6.009  0.3501  0.4004 -0.8343
   88RES   C21636930   1.008   3.541   5.937 -0.2129  0.0710  0.1395
   88RES   C21736931   1.139   3.626   5.943  0.1103  0.1948 -0.1501
   88RES   C21836932   1.108   3.764   5.882  0.0273 -0.1257 -0.0234
   88RES   H21936933   0.932   3.104   6.120  0.1198  0.3702  0.3233
   88RES   H22036934   0.906   3.153   5.956  0.9785  1.6265  0.0288
   88RES   H22136935   1.176   3.093   5.960 -3.9348 -2.8719 -1.5232
   88RES   H22236936   1.222   3.349   5.961  0.9017 -2.0557 -1.2953
   88RES   H22336937   1.106   3.303   5.846 -0.4139  2.1602 -0.3466
   88RES   H22436938   1.041   3.432   6.115  1.6192 -1.2618 -0.6547
   88RES   H22536939   0.924   3.369   6.005  0.4421  0.3255 -2.5641
   88RES   H22636940   0.984   3.534   5.831 -0.4457 -1.1269  0.2699
   88RES   H22736941   0.939   3.604   5.993 -0.2486 -0.4667  0.7024
   88RES   H22836942   1.165   3.634   6.048 -0.3080 -1.1779  0.0753
   88RES   H22936943   1.228   3.584   5.895  0.8615  2.5765 -0.8775
   88RES   H23036944   1.204   3.805   5.851 -0.1847 -0.1402 -0.6903
   88RES   H23136945   1.062   3.830   5.956 -1.3275 -1.6686  0.5384
   88RES   H23236946   1.037   3.759   5.800  0.7568 -0.2702 -0.6447
   88RES   C23336947   1.170   3.174   6.156  0.2659 -0.3050  0.2919
   88RES   C23436948   1.322   3.193   6.172 -0.1087  0.1031  0.1554
   88RES   C23536949   1.351   3.295   6.289 -0.0632 -0.7963  0.2174
   88RES   C23636950   1.312   3.247   6.425 -0.5761 -0.5828  0.2822
   88RES   C23736951   1.354   3.352   6.534  0.4354 -0.1774  0.0428
   88RES   C23836952   1.334   3.310   6.683  0.9546 -0.4612  0.0014
   88RES   C23936953   1.380   3.422   6.774 -0.7144  0.1688 -0.6096
   88RES   H24036954   1.139   3.087   6.214 -1.6104 -0.9431 -1.6045
   88RES   H24136955   1.120   3.254   6.211  2.2511  1.4740 -0.4170
   88RES   H24236956   1.363   3.244   6.085 -0.7176  3.2203  1.6065
   88RES   H24336957   1.291   3.383   6.268 -2.9092 -2.1187  2.4297
   88RES   H24436958   1.458   3.316   6.279 -0.0128 -1.3808 -0.5125
   88RES   H24536959   1.359   3.156   6.462 -1.0011 -0.9620 -0.1169
   88RES   H24636960   1.206   3.223   6.420 -0.5728 -0.7990  1.1467
   88RES   H24736961   1.307   3.447   6.510  1.8026  0.2039 -1.2102
   88RES   H24836962   1.460   3.373   6.519  0.6354 -1.4227 -0.3873
   88RES   H24936963   1.228   3.286   6.688  0.8247 -0.1166 -1.0583
   88RES   H25036964   1.388   3.216   6.698  0.7171 -0.4856  0.7294
   88RES   H25136965   1.358   3.404   6.880  0.8848 -0.8751 -0.4436
   88RES   H25236966   1.482   3.455   6.757  0.3568 -1.5175  2.1029
   88RES   H25336967   1.321   3.512   6.755 -1.0542 -0.4619 -2.6901
   88RES   C25436968   1.387   3.050   6.185  0.2511 -0.2265 -0.3157
   88RES   C25536969   1.535   3.048   6.206  0.4864 -0.3985 -0.1323
   88RES   C25636970   1.622   3.099   6.088 -0.5156  0.1458  0.7021
   88RES   C25736971   1.738   3.192   6.123 -0.1648  0.5024  0.0334
   88RES   C25836972   1.830   3.212   5.998 -0.3002 -0.3633 -0.4707
   88RES   C25936973   1.963   3.299   6.015  0.0211 -0.2007 -0.1056
   88RES   C26036974   2.060   3.274   5.889  0.2784 -0.2022 -0.1213
   88RES   H26136975   1.356   2.982   6.106  0.5277  0.4014 -0.9596
   88RES   H26236976   1.348   3.006   6.277 -2.2933  0.4373 -1.0504
   88RES   H26336977   1.553   3.108   6.296  0.7801 -0.8101  0.0836
   88RES   H26436978   1.559   3.167   6.030  1.8506  1.4413 -0.4082
   88RES   H26536979   1.656   3.021   6.020  0.7224 -1.3610  3.0048
   88RES   H26636980   1.713   3.292   6.160 -0.7892  1.1922 -2.1910
   88RES   H26736981   1.800   3.156   6.205 -1.2169 -0.1807  0.5486
   88RES   H26836982   1.768   3.250   5.917 -0.3103 -1.5294 -1.0212
   88RES   H26936983   1.861   3.114   5.962  2.0525  1.1797 -2.8083
   88RES   H27036984   1.943   3.406   6.020 -0.7224 -0.3399  0.0074
   88RES   H27136985   2.026   3.279   6.102 -0.3448 -1.0147 -0.0236
   88RES   H27236986   2.002   3.295   5.799 -0.5081  0.5245  0.5404
   88RES   H27336987   2.145   3.342   5.894 -0.3572  0.4508  2.8658
   88RES   H27436988   2.097   3.172   5.899 -0.2760 -0.4645 -0.6942
   88RES   C27536989   1.585   2.908   6.245  0.2400 -0.2471 -0.7657
   88RES   C27636990   1.525   2.859   6.384 -0.4068 -0.5231 -0.4489
   88RES   C27736991   1.644   2.803   6.462 -1.1393 -0.0299  0.0004
   88RES   C27836992   1.711   2.923   6.550 -0.5149 -0.7030 -0.2846
   88RES   C27936993   1.839   2.878   6.622  0.0068  0.7819  0.5748
   88RES   C28036994   1.921   2.977   6.698 -0.5360 -0.0476  0.1540
   88RES   C28136995   2.007   3.062   6.611  0.3277  0.5934  0.1499
   88RES   H28236996   1.694   2.913   6.247  0.1469  2.1975  1.2844
   88RES   H28336997   1.561   2.846   6.159  0.7335  0.1279 -1.1819
   88RES   H28436998   1.499   2.944   6.448  1.4877  0.0819 -0.4350
   88RES   H28536999   1.622   2.722   6.532 -0.7166  0.0517  0.2280
   88RES   H28637000   1.716   2.757   6.394  0.4135 -0.2629  1.7615
   88RES   H28737001   1.631   2.962   6.613 -0.5970  1.0489 -1.4434
   88RES   H28837002   1.750   3.004   6.487 -0.5375 -1.2215 -0.9700
   88RES   H28937003   1.900   2.824   6.549  0.2698 -0.1553  1.4889
   88RES   H29037004   1.811   2.799   6.692  2.2478 -2.7485 -2.2977
   88RES   H29137005   1.861   3.039   6.765  0.4195  1.4794 -0.3737
   88RES   H29237006   1.992   2.921   6.758  0.5621 -0.1822 -1.2387
   88RES   H29337007   2.088   3.110   6.665  1.4825  2.0947 -2.7539
   88RES   H29437008   1.935   3.136   6.576 -2.2036 -1.5932  0.5770
   88RES   H29537009   2.062   2.998   6.542 -1.5999 -1.4720  0.4817
   88RES   C29637010   1.412   2.752   6.379 -0.1795 -0.0563 -0.0681
   88RES   C29737011   1.337   2.731   6.514 -0.2097  0.5728 -0.3185
   88RES   C29837012   1.249   2.606   6.520  0.0103  0.8537 -0.5026
   88RES   C29937013   1.327   2.479   6.500  0.3370 -0.5924 -0.1556
   88RES   C30037014   1.231   2.356   6.492 -0.0530  0.4544  0.4589
   88RES   C30137015   1.310   2.233   6.465  0.3101 -0.2915 -0.2580
   88RES   C30237016   1.242   2.150   6.354 -0.4976 -0.0589  0.1596
   88RES   H30337017   1.346   2.777   6.296 -0.5665 -0.5272  0.0931
   88RES   H30437018   1.460   2.667   6.331 -1.0353  0.4782 -1.9317
   88RES   H30537019   1.419   2.730   6.587  0.8023  0.9109 -1.4290
   88RES   H30637020   1.191   2.598   6.612  0.4185  0.4542 -0.2773
   88RES   H30737021   1.169   2.617   6.448 -0.7610  2.5293  0.5866
   88RES   H30837022   1.391   2.476   6.588 -0.1842 -0.9307  0.2144
   88RES   H30937023   1.379   2.490   6.405  1.0639  0.8841  0.3888
   88RES   H31037024   1.163   2.367   6.408  1.2308 -0.3820 -0.7203
   88RES   H31137025   1.168   2.340   6.579 -0.1733  1.4406  0.5570
   88RES   H31237026   1.414   2.257   6.441  0.3547  0.8522  0.9859
   88RES   H31337027   1.327   2.173   6.555 -1.4900  0.7861  0.8276
   88RES   H31437028   1.242   2.204   6.259  0.1840 -0.6695 -0.1954
   88RES   H31537029   1.299   2.059   6.332  1.8021  1.3932 -0.1071
   88RES   H31637030   1.137   2.127   6.368 -0.3108 -0.1529  1.4550
   88RES   C31737031   1.249   2.858   6.550  0.1609 -0.0229 -0.3286
   88RES   C31837032   1.173   2.865   6.678  0.6023 -0.0044 -0.8189
   88RES   C31937033   1.269   2.893   6.798 -0.3511 -0.0073 -0.7884
   88RES   C32037034   1.238   2.820   6.924 -0.2292 -0.0061  0.3693
   88RES   C32137035   1.256   2.665   6.924  0.1877  0.0740 -0.0541
   88RES   C32237036   1.220   2.596   7.053 -0.2972 -0.3218 -0.2055
   88RES   C32337037   1.340   2.577   7.141  0.9710 -0.4831  0.0474
   88RES   H32437038   1.178   2.863   6.467  1.1334  1.3222 -1.1117
   88RES   H32537039   1.298   2.954   6.534  0.1432 -0.0392 -0.4865
   88RES   H32637040   1.121   2.773   6.705  2.7004 -0.8136  0.6807
   88RES   H32737041   1.262   3.000   6.818 -1.4807 -0.4970  1.5869
   88RES   H32837042   1.373   2.866   6.777  0.6879  2.9200  0.2405
   88RES   H32937043   1.137   2.858   6.938 -1.5155 -2.6208 -1.3800
   88RES   H33037044   1.307   2.863   6.996 -0.4519  2.3850 -0.8068
   88RES   H33137045   1.357   2.648   6.885  0.3611 -0.7317  0.7381
   88RES   H33237046   1.189   2.634   6.844 -1.6002  1.6949  0.7677
   88RES   H33337047   1.180   2.499   7.023 -0.5021 -0.8095  1.6132
   88RES   H33437048   1.135   2.637   7.108  2.7305  2.8873  2.3130
   88RES   H33537049   1.322   2.511   7.226 -1.3493  0.8123  0.6023
   88RES   H33637050   1.380   2.673   7.175 -2.5431  1.2053 -0.4041
   88RES   H33737051   1.419   2.535   7.078  0.3564 -0.8759 -0.4646
   88RES   C33837052   1.065   2.967   6.670 -0.6484  0.4333 -0.3902
   88RES   C33937053   0.951   2.943   6.566  0.1725  0.0728 -0.4261
   88RES   C34037054   0.852   3.060   6.555  1.0670  0.2579 -0.4022
   88RES   C34137055   0.915   3.183   6.490 -0.1664 -0.4143 -0.5371
   88RES   C34237056   0.820   3.295   6.465  0.7007  0.0181 -0.4040
   88RES   C34337057   0.886   3.404   6.373  0.0278  0.1267 -1.0327
   88RES   C34437058   0.798   3.521   6.353  0.6130  0.2743 -0.6201
   88RES   H34537059   1.124   3.056   6.649  1.4068 -0.7945  0.0623
   88RES   H34637060   1.019   2.980   6.767  1.4766  2.7657  0.3557
   88RES   H34737061   0.989   2.932   6.464  0.8896 -0.7871 -0.0714
   88RES   H34837062   0.767   3.022   6.498 -0.7693 -1.1686  3.1852
   88RES   H34937063   0.815   3.091   6.652 -1.1385  0.4985 -1.2852
   88RES   H35037064   0.964   3.157   6.396 -0.2666 -0.3193 -0.6155
   88RES   H35137065   0.990   3.212   6.564 -2.7101  1.6279  1.3518
   88RES   H35237066   0.728   3.259   6.421 -0.0567  2.1570 -0.6195
   88RES   H35337067   0.791   3.326   6.565 -0.9971 -1.0515 -0.5458
   88RES   H35437068   0.983   3.438   6.408  1.3661  1.0334 -5.3042
   88RES   H35537069   0.915   3.351   6.283  0.3999  1.1009 -1.4968
   88RES   H35637070   0.844   3.597   6.290 -0.1955 -0.3464 -1.9680
   88RES   H35737071   0.763   3.572   6.443 -1.8635 -1.2480 -0.6883
   88RES   H35837072   0.713   3.494   6.291 -0.4815  2.1075  0.0499
   88RES   C35937073   0.883   2.808   6.594 -0.1905  0.5011 -0.6118
   88RES   C36037074   0.809   2.773   6.718  0.2928  1.0602  0.9662
   88RES   C36137075   0.659   2.818   6.723  0.2629 -0.2874  0.6718
   88RES   C36237076   0.607   2.829   6.869  0.9256 -0.2080  0.0968
   88RES   C36337077   0.675   2.931   6.958 -0.5681 -0.0511  0.0435
   88RES   C36437078   0.604   2.935   7.092  0.2413 -0.6495  0.4377
   88RES   C36537079   0.669   3.032   7.194 -0.2167 -0.2158  0.2853
   88RES   H36637080   0.959   2.731   6.585 -0.4815 -0.0174  1.1285
   88RES   H36737081   0.815   2.794   6.509  1.1099 -0.9841 -1.4292
   88RES   H36837082   0.859   2.838   6.789  1.8501 -0.7305  1.5666
   88RES   H36937083   0.640   2.906   6.663 -1.6853 -0.0856  1.5372
   88RES   H37037084   0.607   2.731   6.682  2.4144 -0.2088 -2.4047
   88RES   H37137085   0.505   2.866   6.860  0.6542 -0.5676  1.5932
   88RES   H37237086   0.598   2.728   6.908  2.6468 -1.2521 -2.0610
   88RES   H37337087   0.784   2.920   6.966 -0.3809  2.4026  1.3543
   88RES   H37437088   0.666   3.027   6.907 -0.8255 -0.7412 -1.2181
   88RES   H37537089   0.503   2.968   7.068  0.3027 -0.8444 -0.1018
   88RES   H37637090   0.601   2.834   7.133  1.8121 -1.0266 -0.3259
   88RES   H37737091   0.626   3.030   7.294  2.1693 -1.5656  1.3514
   88RES   H37837092   0.773   3.004   7.214  0.1749  1.0523  0.0715
   88RES   H37937093   0.661   3.133   7.153  0.5533 -0.2681 -0.0147
   88RES   C38037094   0.836   2.629   6.779 -0.5183  0.5961  0.2722
   88RES   C38137095   0.780   2.504   6.708  0.1618 -0.2380  0.3776
   88RES   C38237096   0.844   2.474   6.572 -0.4127 -0.2747 -0.4453
   88RES   C38337097   0.788   2.350   6.502  0.0794 -0.3250 -0.2598
   88RES   C38437098   0.812   2.360   6.351 -0.1677  0.1014 -0.0438
   88RES   C38537099   0.783   2.229   6.282  0.6958  0.0040 -0.4495
   88RES   C38637100   0.790   2.229   6.128  0.0916  0.2767  0.1958
   88RES   H38737101   0.944   2.618   6.772 -0.4980  0.7688  0.2959
   88RES   H38837102   0.807   2.622   6.884 -0.3365 -0.9213  0.2340
   88RES   H38937103   0.676   2.524   6.683  0.3653  0.5255  0.1213
   88RES   H39037104   0.953   2.481   6.582 -0.1460 -0.1477 -3.0687
   88RES   H39137105   0.836   2.560   6.505  0.3718  1.1567  1.2368
   88RES   H39237106   0.835   2.258   6.537 -1.1548 -0.6057  0.7142
   88RES   H39337107   0.682   2.333   6.520  0.1322 -0.9228 -0.4994
   88RES   H39437108   0.745   2.439   6.319  0.5405  0.5021 -0.5385
   88RES   H39537109   0.913   2.391   6.322  0.9012 -3.0185  0.1170
   88RES   H39637110   0.679   2.208   6.305  1.0888 -1.2164  0.2028
   88RES   H39737111   0.838   2.142   6.315  2.8414  1.7775  0.7699
   88RES   H39837112   0.892   2.250   6.098 -0.5674  1.9822 -0.8824
   88RES   H39937113   0.733   2.315   6.094 -0.5550 -0.4812 -0.6764
   88RES   H40037114   0.755   2.136   6.082  1.6208  0.1154 -0.6507
   88RES   C40137115   0.784   2.383   6.802  0.0244  0.1466  0.0545
   88RES   C40237116   0.924   2.328   6.845  0.3004  0.4164 -0.8228
   88RES   C40337117   0.909   2.204   6.937  0.1869 -0.1960  0.0840
   88RES   C40437118   0.859   2.248   7.077 -0.2248  0.2903  0.0655
   88RES   C40537119   0.919   2.178   7.201  0.0288  0.1420 -0.4140
   88RES   C40637120   0.823   2.185   7.324  0.0751  0.3095  0.1637
   88RES   C40737121   0.881   2.112   7.446 -0.8219  0.0415  0.0183
   88RES   H40837122   0.731   2.298   6.759  0.3701  0.3114 -0.7082
   88RES   H40937123   0.715   2.402   6.884  1.1447  2.6525  0.4647
   88RES   H41037124   0.987   2.406   6.889  1.2508 -1.6113  1.4822
   88RES   H41137125   1.008   2.164   6.955  0.9079  1.2023 -0.6719
   88RES   H41237126   0.852   2.128   6.884 -0.7243  1.0317 -0.7281
   88RES   H41337127   0.750   2.256   7.083 -0.0117  2.7528  1.2266
   88RES   H41437128   0.869   2.356   7.084 -0.4797  0.4647 -1.9776
   88RES   H41537129   0.928   2.074   7.172 -0.6857 -0.3349  1.0188
   88RES   H41637130   1.012   2.222   7.238  0.0419 -1.3825  1.4688
   88RES   H41737131   0.819   2.293   7.341 -1.0604  0.2338  0.4230
   88RES   H41837132   0.719   2.166   7.296 -0.2702  0.0356  1.6016
   88RES   H41937133   0.814   2.125   7.531  0.2010 -1.2248  1.0436
   88RES   H42037134   0.978   2.129   7.492  0.0571  0.2261 -1.8639
   88RES   H42137135   0.875   2.004   7.433  0.3661  0.1282 -1.3900
   88RES   H42237136   0.984   2.281   6.767  1.1053  1.0620 -0.6000
   89RES     C137137   2.056   3.396   0.400  0.5139 -0.2096 -0.0135
   89RES     C237138   2.066   3.488   0.529 -0.2617  0.3916 -0.1914
   89RES     C337139   2.161   3.419   0.631  0.3902  0.3061 -0.1860
   89RES     C437140   2.119   3.285   0.677  0.3806 -0.0823 -0.3841
   89RES     C537141   2.229   3.232   0.771 -0.1654  0.1948 -0.0126
   89RES     C637142   2.192   3.097   0.822 -0.3160 -0.4779  0.7845
   89RES     C737143   2.285   3.054   0.936 -0.9060  0.2543 -0.3199
   89RES     H837144   2.011   3.465   0.329 -2.2584 -1.3687  0.5308
   89RES     H937145   1.984   3.314   0.396 -0.9416  1.0967 -1.9811
   89RES    H1037146   2.114   3.580   0.496 -0.3593  0.8704  0.9803
   89RES    H1137147   2.261   3.416   0.589 -0.5683 -0.9292 -2.4581
   89RES    H1237148   2.171   3.484   0.719 -0.5181  1.1790 -0.7130
   89RES    H1337149   2.029   3.298   0.737 -0.5078  2.2398 -2.1514
   89RES    H1437150   2.100   3.220   0.592  1.6651 -0.7926 -0.1454
   89RES    H1537151   2.232   3.292   0.862 -0.3013 -0.0129  0.1298
   89RES    H1637152   2.325   3.246   0.721 -0.1629 -1.8358 -0.6186
   89RES    H1737153   2.178   3.019   0.747 -1.0668 -0.4578  0.8994
   89RES    H1837154   2.092   3.108   0.863 -0.4044  2.0264 -0.0131
   89RES    H1937155   2.387   3.072   0.902 -1.6566  0.9957 -2.2938
   89RES    H2037156   2.267   2.953   0.973  1.3902 -0.6238 -1.5223
   89RES    H2137157   2.269   3.122   1.020  1.8778 -1.0114  1.3045
   89RES    H2237158   2.156   3.379   0.361  0.6692  1.9304 -0.6449
   89RES    C2337159   1.939   3.542   0.598 -0.1361 -0.3607  0.4522
   89RES    C2437160   1.958   3.652   0.698  0.1100  0.4996  0.0267
   89RES    C2537161   1.836   3.656   0.797 -0.2066  0.2648  0.6286
   89RES    C2637162   1.834   3.543   0.906 -0.2266 -0.7594  0.7005
   89RES    C2737163   1.721   3.546   1.010  0.1397  0.3991 -0.1422
   89RES    C2837164   1.623   3.430   0.996  0.0054 -0.5316  0.1825
   89RES    C2937165   1.656   3.290   1.048 -1.1516  0.9651 -0.2072
   89RES    H3037166   1.883   3.575   0.510 -2.2063 -2.8138  0.7637
   89RES    H3137167   1.879   3.459   0.634 -1.6175  1.6878  2.8472
   89RES    H3237168   2.051   3.633   0.751 -1.4936 -3.0373  1.6731
   89RES    H3337169   1.738   3.659   0.749  1.1245  1.9581 -2.0694
   89RES    H3437170   1.834   3.743   0.864  2.4514  1.9972 -1.4227
   89RES    H3537171   1.924   3.551   0.968  2.6210 -0.8340 -3.2393
   89RES    H3637172   1.835   3.449   0.851  1.3390 -0.8763  0.9073
   89RES    H3737173   1.680   3.647   1.004  0.6885  0.6863  0.7333
   89RES    H3837174   1.756   3.563   1.112 -1.4094  2.0634  0.1302
   89RES    H3937175   1.590   3.430   0.892  0.3152 -1.3319  0.0795
   89RES    H4037176   1.535   3.465   1.049 -0.0433 -0.3735 -0.0015
   89RES    H4137177   1.676   3.291   1.155  0.4876  1.4025 -0.5073
   89RES    H4237178   1.576   3.221   1.025 -0.4539  0.7003 -1.9129
   89RES    H4337179   1.736   3.242   0.992 -0.3658 -0.6458  2.2223
   89RES    C4437180   1.987   3.785   0.628  0.4041 -0.2526 -0.6838
   89RES    C4537181   2.069   3.895   0.705  1.2698  0.5348  0.1555
   89RES    C4637182   2.219   3.859   0.721 -0.2556 -0.6339  0.1522
   89RES    C4737183   2.295   3.829   0.587 -0.6192  0.5909 -0.1457
   89RES    C4837184   2.436   3.768   0.616  0.9744 -0.3787  0.0689
   89RES    C4937185   2.507   3.733   0.488  0.4257  0.7912  0.2101
   89RES    C5037186   2.660   3.724   0.516 -0.6349  0.3192 -0.3081
   89RES    H5137187   1.889   3.831   0.613  0.7317  1.2003  1.3310
   89RES    H5237188   2.031   3.774   0.529  2.6442 -0.8743  0.3486
   89RES    H5337189   2.035   3.922   0.805 -0.1840  0.1698 -0.2160
   89RES    H5437190   2.227   3.769   0.783 -0.1615 -0.1664  0.8311
   89RES    H5537191   2.267   3.947   0.765 -1.4457  0.3414 -0.4658
   89RES    H5637192   2.250   3.759   0.517 -0.0312 -0.3463  0.3956
   89RES    H5737193   2.302   3.925   0.536  0.3791  0.9405  0.6393
   89RES    H5837194   2.450   3.683   0.682 -3.0021  0.7078  2.4633
   89RES    H5937195   2.493   3.846   0.666 -0.3012  0.0780  0.8353
   89RES    H6037196   2.488   3.807   0.411 -1.4531 -0.9748 -1.0683
   89RES    H6137197   2.480   3.634   0.452  1.3502  0.0245  1.5781
   89RES    H6237198   2.690   3.797   0.590  0.7348 -2.2205  1.6943
   89RES    H6337199   2.705   3.739   0.418 -2.1220 -2.0799 -1.4173
   89RES    H6437200   2.681   3.632   0.570 -0.9150  1.1011  1.1562
   89RES    C6537201   2.046   4.032   0.632  0.3152 -0.3134 -0.2252
   89RES    C6637202   1.916   4.115   0.656 -0.3568  0.7404 -0.3503
   89RES    C6737203   1.913   4.170   0.803 -0.4422  0.2950  0.0559
   89RES    C6837204   1.861   4.320   0.818  0.0495 -0.4535 -0.3833
   89RES    C6937205   1.872   4.392   0.956  0.3022  0.1304  0.6905
   89RES    C7037206   1.798   4.525   0.947  0.2591 -0.7092  0.3112
   89RES    C7137207   1.648   4.527   0.988  0.2918 -0.2715  0.2586
   89RES    H7237208   2.133   4.094   0.653  0.2902  0.1923 -1.5784
   89RES    H7337209   2.059   4.019   0.525  1.6364 -0.0767 -0.1010
   89RES    H7437210   1.919   4.210   0.602 -2.4452  1.7303  1.2196
   89RES    H7537211   1.851   4.110   0.870  0.7855 -0.6387  0.3840
   89RES    H7637212   2.019   4.162   0.829 -0.3852 -3.2635 -0.9903
   89RES    H7737213   1.913   4.386   0.748  3.7164 -1.8730  0.8710
   89RES    H7837214   1.756   4.320   0.789  0.0554 -0.9371 -0.4122
   89RES    H7937215   1.832   4.326   1.033  1.6802 -1.3988  0.1434
   89RES    H8037216   1.975   4.414   0.984  0.1869  2.5809 -0.6749
   89RES    H8137217   1.808   4.564   0.845  0.6151  1.6198  1.2004
   89RES    H8237218   1.847   4.602   1.006 -2.4754  0.9141  0.5741
   89RES    H8337219   1.578   4.480   0.918  0.1011 -0.1557  0.3728
   89RES    H8437220   1.632   4.462   1.073  2.2966 -1.2333 -0.0730
   89RES    H8537221   1.606   4.624   1.013  0.5202  0.1688 -1.0167
   89RES    C8637222   1.775   4.062   0.621 -0.3268 -0.4338  0.2225
   89RES    C8737223   1.753   4.034   0.469 -0.0428  0.1522 -0.4922
   89RES    C8837224   1.637   3.935   0.443  0.4108 -0.2807 -0.1461
   89RES    C8937225   1.648   3.786   0.500 -0.4793 -0.1263 -0.0002
   89RES    C9037226   1.540   3.685   0.460  0.1228  0.2984 -0.2618
   89RES    C9137227   1.562   3.540   0.499  0.5366  0.4775 -0.2228
   89RES    C9237228   1.451   3.450   0.445 -0.7870  0.5051  0.8683
   89RES    H9337229   1.754   3.973   0.679 -0.2674 -0.9144 -0.4914
   89RES    H9437230   1.697   4.132   0.655 -0.8281 -0.6171 -0.5440
   89RES    H9537231   1.842   3.979   0.437  0.9665  2.1540 -1.2143
   89RES    H9637232   1.551   3.977   0.495  0.1246 -2.3352  1.0962
   89RES    H9737233   1.608   3.932   0.338  1.2349 -1.6399 -0.3475
   89RES    H9837234   1.736   3.741   0.453 -0.2205 -0.4629  0.7983
   89RES    H9937235   1.655   3.787   0.609 -0.1496  0.2322 -0.0233
   89RES   H10037236   1.531   3.667   0.353  0.5058 -1.3126 -0.0388
   89RES   H10137237   1.444   3.729   0.486  0.4059  0.4932  0.4742
   89RES   H10237238   1.653   3.496   0.458  0.0507 -2.8132  2.0313
   89RES   H10337239   1.557   3.529   0.607  1.1225 -2.6757 -0.4694
   89RES   H10437240   1.467   3.342   0.451  3.0106  0.9686  0.3222
   89RES   H10537241   1.445   3.444   0.336  0.8358  2.2519  0.6697
   89RES   H10637242   1.351   3.462   0.487 -2.0241  0.1958 -1.8485
   89RES   C10737243   1.738   4.167   0.392  0.3378  0.2318 -0.6153
   89RES   C10837244   1.780   4.167   0.247  0.6492 -0.6418 -0.3937
   89RES   C10937245   1.742   4.306   0.172 -0.2407 -0.3170  0.9866
   89RES   C11037246   1.590   4.321   0.160  0.3290 -0.7120  0.5518
   89RES   C11137247   1.542   4.400   0.039  0.1039 -0.8904 -0.3259
   89RES   C11237248   1.403   4.457   0.054 -0.2255  0.7856  0.1494
   89RES   C11337249   1.384   4.562   7.670 -0.1567 -0.7301 -0.4378
   89RES   H11437250   1.788   4.249   0.443 -0.7486 -0.1744  1.1557
   89RES   H11537251   1.632   4.192   0.392 -0.0353 -1.2608  0.6534
   89RES   H11637252   1.723   4.084   0.206  0.6943 -0.5901 -0.5610
   89RES   H11737253   1.776   4.294   0.070 -2.0271  3.0590 -0.0848
   89RES   H11837254   1.781   4.402   0.206 -0.0608 -0.3215  0.7899
   89RES   H11937255   1.545   4.222   0.160 -2.2946  0.4346 -0.7648
   89RES   H12037256   1.559   4.360   0.257 -0.4298 -1.3790  0.5713
   89RES   H12137257   1.560   4.341   7.675 -2.1148  0.3576 -1.6433
   89RES   H12237258   1.605   4.488   0.023 -0.5397 -0.1154  1.2996
   89RES   H12337259   1.337   4.374   0.028 -0.4613  1.0140  0.0261
   89RES   H12437260   1.370   4.484   0.155  0.1733 -1.7692  1.0191
   89RES   H12537261   1.297   4.627   7.686  0.3329  0.6116 -3.0663
   89RES   H12637262   1.472   4.625   7.663 -0.0993 -0.4861  1.8374
   89RES   H12737263   1.361   4.508   7.578  0.7013 -2.3347  0.2608
   89RES   C12837264   1.935   4.143   0.223 -0.3984  0.1891  0.3297
   89RES   C12937265   1.960   4.068   0.092  0.2264 -0.6094 -0.4168
   89RES   C13037266   1.986   3.914   0.102  0.1750 -0.1792  0.3052
   89RES   C13137267   1.860   3.832   0.103  0.1289  0.2886 -0.2036
   89RES   C13237268   1.879   3.681   0.149  0.4881  0.6860 -0.1730
   89RES   C13337269   1.754   3.607   0.112 -0.1839  0.0662 -0.4449
   89RES   C13437270   1.738   3.465   0.161 -0.3743 -0.0209 -0.2700
   89RES   H13537271   1.995   4.234   0.229  2.5529 -1.7116  0.4877
   89RES   H13637272   1.966   4.082   0.308  0.5057 -1.2576 -1.0023
   89RES   H13737273   1.876   4.088   0.026  0.1399 -2.2552 -0.8218
   89RES   H13837274   2.033   3.901   0.199  0.4450 -2.0397 -0.0536
   89RES   H13937275   2.059   3.879   0.029 -0.3555 -2.4553  0.8278
   89RES   H14037276   1.812   3.835   0.005 -0.9787  0.6051  0.3425
   89RES   H14137277   1.793   3.884   0.172  0.3344  1.6812 -1.0280
   89RES   H14237278   1.903   3.673   0.255 -0.8098 -1.4112 -0.0032
   89RES   H14337279   1.967   3.643   0.096  0.3750 -1.5682  1.2033
   89RES   H14437280   1.736   3.607   0.004 -0.1448  1.4115 -0.4563
   89RES   H14537281   1.672   3.660   0.162 -0.0856  0.0416 -0.2562
   89RES   H14637282   1.757   3.470   0.269  0.5308  0.5547 -0.4433
   89RES   H14737283   1.811   3.406   0.106  0.2163  0.4726 -0.0275
   89RES   H14837284   1.637   3.426   0.162  0.0480 -1.1395 -1.5363
   89RES   C14937285   2.072   4.133   0.015 -0.0696  0.4352 -0.3864
   89RES   C15037286   2.042   4.279   7.686 -0.9848  0.3792 -0.0404
   89RES   C15137287   1.937   4.294   7.570  0.7951 -0.0064  0.0532
   89RES   C15237288   1.883   4.441   7.557  0.0767 -0.1904  0.4004
   89RES   C15337289   1.789   4.456   7.435  0.0168 -0.1846 -0.0037
   89RES   C15437290   1.723   4.594   7.410  0.0377  0.5252 -0.1943
   89RES   C15537291   1.632   4.595   7.287 -0.0783  0.1622 -0.4666
   89RES   H15637292   2.161   4.128   0.078 -0.2291  0.1664 -0.1814
   89RES   H15737293   2.103   4.076   7.654 -0.3291  1.0389 -0.8677
   89RES   H15837294   1.997   4.340   0.038  1.4041  3.1856 -0.7587
   89RES   H15937295   1.994   4.269   7.481 -0.7753 -0.2135 -0.9203
   89RES   H16037296   1.858   4.219   7.575 -0.6526  1.3732 -1.2755
   89RES   H16137297   1.966   4.510   7.544  0.6157 -0.3012  3.0451
   89RES   H16237298   1.845   4.473   7.654 -0.0106  2.5091 -0.4736
   89RES   H16337299   1.711   4.381   7.442 -0.2144 -0.0320 -0.8420
   89RES   H16437300   1.846   4.443   7.342  1.3243  3.5325  0.1820
   89RES   H16537301   1.802   4.668   7.392 -0.3877  1.2849  0.9367
   89RES   H16637302   1.667   4.625   7.499  0.3114  0.1274  0.1169
   89RES   H16737303   1.532   4.564   7.317 -0.5794  0.4389 -1.8495
   89RES   H16837304   1.673   4.522   7.217 -0.7262  0.4910 -1.1991
   89RES   H16937305   1.613   4.691   7.239  1.9403 -0.8467 -3.4018
   89RES   C17037306   2.173   4.355   7.647 -0.4273  0.5327 -0.3822
   89RES   C17137307   2.196   4.484   0.007 -0.5184  0.0021  0.0860
   89RES   C17237308   2.234   4.440   0.146 -0.3034  0.6340 -0.1462
   89RES   C17337309   2.253   4.550   0.252 -0.0842  0.2541  0.3785
   89RES   C17437310   2.291   4.483   0.381  0.2282  0.0955 -0.9246
   89RES   C17537311   2.189   4.392   0.453 -0.5246 -0.8320  0.2135
   89RES   C17637312   2.225   4.343   0.593 -0.6389 -0.4720  0.4160
   89RES   H17737313   2.179   4.368   7.539 -0.6722 -2.1234 -0.7405
   89RES   H17837314   2.248   4.279   7.664 -0.6128  0.9487  2.6432
   89RES   H17937315   2.104   4.541   0.019 -0.3598  0.1986  0.4038
   89RES   H18037316   2.329   4.388   0.136  0.0247  1.2806 -0.3452
   89RES   H18137317   2.164   4.366   0.187  0.2378  0.5536  0.6274
   89RES   H18237318   2.162   4.610   0.255 -0.4476 -0.0709 -2.5845
   89RES   H18337319   2.339   4.608   0.220  0.4568 -1.1820 -0.8100
   89RES   H18437320   2.319   4.565   0.446  0.5045 -1.3880  0.8731
   89RES   H18537321   2.384   4.433   0.353  2.1583  2.4244  1.1426
   89RES   H18637322   2.159   4.306   0.393  2.4539 -1.5106 -0.4123
   89RES   H18737323   2.097   4.446   0.473  0.2391  0.8952 -0.8136
   89RES   H18837324   2.134   4.314   0.646 -1.2848 -1.1370 -1.0233
   89RES   H18937325   2.269   4.425   0.649  1.1451 -1.1130 -0.0124
   89RES   H19037326   2.289   4.255   0.588  0.7318  0.3918  2.0927
   89RES   C19137327   2.308   4.569   7.664 -0.4772  0.1853  0.9103
   89RES   C19237328   2.248   4.652   7.551  0.0504 -0.3860  0.4973
   89RES   C19337329   2.171   4.773   7.605 -0.2657 -0.2121 -0.4168
   89RES   C19437330   2.075   4.836   7.505 -0.0192  0.4457 -0.4765
   89RES   C19537331   2.062   4.989   7.528 -0.2001  0.5699  0.8552
   89RES   C19637332   1.964   5.054   7.435  0.0978  0.3283  0.5566
   89RES   C19737333   1.812   5.015   7.428 -0.0121  0.1206  0.9982
   89RES   H19837334   2.379   4.499   7.619  1.7143  3.1889 -0.4548
   89RES   H19937335   2.360   4.636   0.006  0.2433  0.8505 -0.2650
   89RES   H20037336   2.187   4.602   7.477  0.5050  0.2137 -0.2901
   89RES   H20137337   2.249   4.846   7.628 -0.7618  0.5924 -1.2206
   89RES   H20237338   2.118   4.759   7.699  3.1477 -2.6574  1.2659
   89RES   H20337339   1.994   4.766   7.524  1.1044 -0.4986  0.8619
   89RES   H20437340   2.115   4.823   7.404 -0.5839 -1.9114 -0.4197
   89RES   H20537341   2.034   5.001   7.633  1.0667 -0.7027  1.3609
   89RES   H20637342   2.154   5.047   7.518 -1.0139  2.0336  1.6491
   89RES   H20737343   2.008   5.035   7.337 -0.6304 -2.7526  0.7522
   89RES   H20837344   1.974   5.162   7.443  1.2631  0.2486  0.2259
   89RES   H20937345   1.761   5.080   7.357  1.1120  0.1244  0.1957
   89RES   H21037346   1.764   5.041   7.523  0.6853 -0.5511  1.5418
   89RES   H21137347   1.792   4.910   7.409 -0.0838  0.6272 -1.8348
   89RES   C21237348   2.360   4.710   7.460 -1.1083 -0.0033  0.7298
   89RES   C21337349   2.429   4.613   7.353 -0.8095 -0.2382 -0.0260
   89RES   C21437350   2.331   4.536   7.259 -0.5284  0.6575 -0.5062
   89RES   C21537351   2.241   4.634   7.172  0.2416 -0.2258  1.0859
   89RES   C21637352   2.176   4.567   7.045 -0.0378  1.0141 -0.6315
   89RES   C21737353   2.154   4.414   7.047  0.3195  0.0084 -1.2849
   89RES   C21837354   2.050   4.372   7.151 -0.1283  0.4505 -0.2658
   89RES   H21937355   2.434   4.744   7.533  0.3126  0.1151 -0.7210
   89RES   H22037356   2.333   4.799   7.403  0.7565  0.2051  0.1344
   89RES   H22137357   2.489   4.541   7.409  1.3538  1.6020  0.0848
   89RES   H22237358   2.392   4.471   7.196 -0.0626  2.7294 -2.2678
   89RES   H22337359   2.275   4.465   7.321  1.8649 -1.9270 -1.2308
   89RES   H22437360   2.304   4.715   7.135 -0.8291  0.1416  0.0253
   89RES   H22537361   2.169   4.695   7.226  0.8257 -0.7675  2.4773
   89RES   H22637362   2.084   4.617   7.013 -1.7376 -0.6849  1.4346
   89RES   H22737363   2.252   4.581   6.969  1.1011 -2.7827 -0.2626
   89RES   H22837364   2.120   4.379   6.949  1.5723 -2.3216 -0.9200
   89RES   H22937365   2.252   4.369   7.062 -0.3450 -0.6309  1.3377
   89RES   H23037366   2.072   4.403   7.253  1.8001 -2.5929  0.2891
   89RES   H23137367   2.054   4.263   7.156  0.9806  0.3995 -1.7371
   89RES   H23237368   1.950   4.403   7.122 -0.9398  0.4478  2.4439
   89RES   C23337369   2.543   4.692   7.271  0.5331 -0.2351  0.4389
   89RES   C23437370   2.629   4.622   7.162 -0.8754  0.7379  0.2671
   89RES   C23537371   2.721   4.728   7.086 -0.5063 -0.0291 -0.1543
   89RES   C23637372   2.640   4.802   6.979 -0.0949  0.1601 -0.1105
   89RES   C23737373   2.584   4.724   6.862  0.2230  0.5291 -0.1393
   89RES   C23837374   2.512   4.802   6.760 -0.1215  0.0161  0.5999
   89RES   C23937375   2.606   4.896   6.682 -0.9085  0.0496  0.1503
   89RES   H24037376   2.612   4.727   7.348  0.7426  1.3934 -0.4476
   89RES   H24137377   2.504   4.780   7.220  0.1981 -1.0101 -0.6669
   89RES   H24237378   2.557   4.573   7.097 -0.8774 -1.2604  1.7252
   89RES   H24337379   2.820   4.693   7.061 -0.5989 -0.6938  0.3946
   89RES   H24437380   2.758   4.790   7.168  2.2947  1.5376 -2.5188
   89RES   H24537381   2.711   4.878   6.949  0.0756 -0.1787 -0.5701
   89RES   H24637382   2.555   4.853   7.024 -1.2270  0.3091 -2.3436
   89RES   H24737383   2.506   4.661   6.905  0.0393  0.6043 -0.3615
   89RES   H24837384   2.664   4.664   6.819  1.1619 -0.4315  2.8262
   89RES   H24937385   2.451   4.733   6.701  0.1741  0.1440  0.1421
   89RES   H25037386   2.431   4.862   6.800  0.2040 -0.5057  2.0956
   89RES   H25137387   2.554   4.948   6.601  2.1888 -1.0118 -2.6385
   89RES   H25237388   2.644   4.971   6.752  2.3849 -1.4173  0.0343
   89RES   H25337389   2.688   4.839   6.638 -0.9639  0.8099 -0.9532
   89RES   C25437390   2.700   4.506   7.226 -0.0668 -0.1801 -0.9789
   89RES   C25537391   2.755   4.402   7.120 -0.8378  0.0002  0.1572
   89RES   C25637392   2.644   4.302   7.067 -0.1283 -0.3966  0.1636
   89RES   C25737393   2.606   4.205   7.178 -0.7399  0.3693  0.2253
   89RES   C25837394   2.463   4.147   7.165  0.7880 -0.7476  0.9750
   89RES   C25937395   2.429   4.069   7.037 -0.1713  0.3349 -0.0554
   89RES   C26037396   2.291   4.023   7.018 -0.0135  1.0042 -0.3866
   89RES   H26137397   2.632   4.448   7.289 -0.3868  2.2604  1.0376
   89RES   H26237398   2.774   4.545   7.296 -1.5687 -0.3926  0.7992
   89RES   H26337399   2.785   4.449   7.026  0.9959 -0.4651  0.5005
   89RES   H26437400   2.666   4.237   6.982 -1.2037  0.9964 -1.2086
   89RES   H26537401   2.556   4.358   7.037  1.4665  0.2532 -3.6019
   89RES   H26637402   2.682   4.127   7.188 -1.5918 -0.3929  0.8362
   89RES   H26737403   2.603   4.248   7.279  1.2286 -1.0130  0.9199
   89RES   H26837404   2.392   4.229   7.172 -0.4285 -1.3584 -3.1600
   89RES   H26937405   2.458   4.076   7.248  0.5900 -0.5126  1.1640
   89RES   H27037406   2.444   4.136   6.953 -0.3410 -0.2368 -0.5437
   89RES   H27137407   2.482   3.975   7.022 -1.9166 -0.8390  0.9299
   89RES   H27237408   2.278   3.939   7.086  1.3990 -2.0979 -3.7613
   89RES   H27337409   2.213   4.096   7.041  1.0006  1.5345  1.4889
   89RES   H27437410   2.281   3.994   6.914 -1.4083  0.0218  0.0042
   89RES   C27537411   2.880   4.326   7.180 -0.4533 -0.0136  0.7204
   89RES   C27637412   3.006   4.418   7.177 -0.1443  0.2572 -0.7712
   89RES   C27737413   3.107   4.370   7.075 -0.2400  0.0627 -0.4895
   89RES   C27837414   3.045   4.386   6.934 -0.9069 -0.1432 -0.3360
   89RES   C27937415   3.144   4.349   6.827  0.3351 -0.4087 -0.4386
   89RES   C28037416   3.076   4.356   6.685 -0.6467  0.1268  0.2746
   89RES   C28137417   3.168   4.310   6.570 -0.0021 -0.0066  0.6567
   89RES   H28237418   2.893   4.232   7.127 -2.2059 -0.7168  1.5077
   89RES   H28337419   2.849   4.296   7.280 -0.0864  0.7739  1.0753
   89RES   H28437420   2.970   4.517   7.150 -1.4055  0.3323  1.0615
   89RES   H28537421   3.191   4.440   7.074 -0.0279 -0.1436  1.3877
   89RES   H28637422   3.134   4.267   7.098  0.0361  0.1737 -0.3150
   89RES   H28737423   3.017   4.491   6.925 -2.5781 -0.8300 -4.4555
   89RES   H28837424   2.952   4.330   6.926 -0.7182 -0.3945 -0.8218
   89RES   H28937425   3.185   4.250   6.845  0.5466 -0.4359 -1.0450
   89RES   H29037426   3.239   4.404   6.828  0.9898 -1.5180 -0.2751
   89RES   H29137427   2.991   4.289   6.692 -1.0307  0.4851 -0.9045
   89RES   H29237428   3.042   4.458   6.666 -4.9113 -1.0808  0.9814
   89RES   H29337429   3.267   4.355   6.571  0.0193 -0.0541  0.7303
   89RES   H29437430   3.123   4.301   6.471  1.6564  0.6496 -0.1713
   89RES   H29537431   3.182   4.202   6.584  1.3773  0.4283  3.0916
   89RES   C29637432   3.078   4.440   7.315 -0.4311 -0.7565  0.0498
   89RES   C29737433   3.172   4.560   7.328 -0.7247 -0.0606  0.0590
   89RES   C29837434   3.264   4.530   7.445 -0.8123 -0.0892  0.2910
   89RES   C29937435   3.208   4.500   7.588 -0.3853 -0.1043 -0.2054
   89RES   C30037436   3.316   4.429   7.677 -0.7292  0.2424  0.0034
   89RES   C30137437   3.234   4.367   0.070 -0.0697  0.6957 -0.4288
   89RES   C30237438   3.194   4.469   0.179  0.5383  0.1816 -0.4169
   89RES   H30337439   2.989   4.464   7.374  0.3512 -1.5627  1.6140
   89RES   H30437440   3.116   4.348   7.361 -1.6496 -0.6975  1.2381
   89RES   H30537441   3.233   4.569   7.238 -2.1549 -0.7193 -0.9903
   89RES   H30637442   3.326   4.448   7.409 -2.0486 -0.4456 -1.1064
   89RES   H30737443   3.333   4.613   7.458 -1.7709  0.6689  0.6732
   89RES   H30837444   3.120   4.436   7.577  0.4605 -0.6633 -4.5720
   89RES   H30937445   3.183   4.590   7.645 -0.6210 -1.1897  1.4355
   89RES   H31037446   3.390   4.498   7.717  0.7646 -2.1444  1.4234
   89RES   H31137447   3.355   4.347   7.617 -1.7388 -0.3586  0.1403
   89RES   H31237448   3.145   4.316   0.034  0.8504 -0.6731 -0.8190
   89RES   H31337449   3.288   4.284   0.116 -0.7729  0.5580  0.1482
   89RES   H31437450   3.286   4.504   0.226  0.1170 -1.0056  1.3305
   89RES   H31537451   3.128   4.541   0.130  2.3668  1.6384 -0.7936
   89RES   H31637452   3.140   4.419   0.260 -0.5290  0.7449 -0.7631
   89RES   C31737453   3.098   4.700   7.341 -0.4933  0.4337 -0.0577
   89RES   C31837454   3.171   4.818   7.258 -0.1579  0.3399  0.6242
   89RES   C31937455   3.123   4.806   7.110  0.4094  0.0603 -0.5282
   89RES   C32037456   3.215   4.865   6.999  0.1343  0.2087  0.3057
   89RES   C32137457   3.168   4.842   6.855 -0.1491  0.5827  0.1693
   89RES   C32237458   3.029   4.904   6.823  0.0596 -0.5479 -0.5063
   89RES   C32337459   3.009   4.889   6.672  0.2317 -1.1005  0.6540
   89RES   H32437460   3.081   4.732   7.444 -0.1895 -0.9225  0.4260
   89RES   H32537461   2.996   4.685   7.305 -0.6992  4.4432 -1.3846
   89RES   H32637462   3.279   4.802   7.267 -0.2341 -0.6425 -0.0705
   89RES   H32737463   3.029   4.860   7.098  0.8380  0.9990  0.3426
   89RES   H32837464   3.118   4.701   7.079  2.7508  0.3557 -2.0146
   89RES   H32937465   3.316   4.824   7.009 -0.4255 -1.0042  1.0936
   89RES   H33037466   3.220   4.974   7.000 -2.1219  0.3329 -0.0102
   89RES   H33137467   3.169   4.736   6.828 -0.3803  0.4188  0.8073
   89RES   H33237468   3.241   4.881   6.784  0.7532  0.3575  0.9636
   89RES   H33337469   3.032   5.011   6.845  4.2507 -0.1791 -2.3144
   89RES   H33437470   2.950   4.859   6.883  1.5574 -2.9352 -0.2338
   89RES   H33537471   3.072   4.964   6.623  1.5856 -3.2538 -1.0019
   89RES   H33637472   2.900   4.896   6.663  0.0984 -0.6896  2.5558
   89RES   H33737473   3.050   4.797   6.631  1.5780 -0.1993 -0.0531
   89RES   C33837474   3.134   4.949   7.318  0.1155  0.2096 -0.1369
   89RES   C33937475   3.221   4.993   7.438 -0.2479  0.4457  0.4195
   89RES   C34037476   3.158   5.091   7.542 -0.6562 -0.3683  0.1340
   89RES   C34137477   3.032   5.038   7.608  0.4916  0.0994 -0.5318
   89RES   C34237478   2.971   5.145   7.701  0.1517  0.1244 -0.3344
   89RES   C34337479   2.830   5.098   0.027 -0.0729 -0.4737  0.3360
   89RES   C34437480   2.770   5.198   0.123  0.3398 -0.0747 -0.0069
   89RES   H34537481   3.032   4.937   7.356  0.4739  1.3361  1.2381
   89RES   H34637482   3.134   5.037   7.254 -2.2171 -1.5775 -2.7459
   89RES   H34737483   3.242   4.902   7.495 -1.7468 -0.4563 -0.4264
   89RES   H34837484   3.224   5.125   7.621  0.2790 -0.6840 -0.4939
   89RES   H34937485   3.150   5.189   7.496  0.6372 -0.8023 -1.0443
   89RES   H35037486   3.058   4.945   7.658  2.8991  1.1020  0.1306
   89RES   H35137487   2.960   5.000   7.536  1.4092 -1.2518 -0.7517
   89RES   H35237488   3.039   5.164   0.058 -0.5568  1.0378  0.0354
   89RES   H35337489   2.954   5.238   7.647  0.3741  0.0417 -0.5511
   89RES   H35437490   2.764   5.078   7.669  1.1718  1.4243 -1.1464
   89RES   H35537491   2.843   5.005   0.081 -1.8443 -0.2402  1.2047
   89RES   H35637492   2.835   5.221   0.207 -0.6420 -2.9620  1.6028
   89RES   H35737493   2.684   5.157   0.175  0.3323  0.9594  0.8080
   89RES   H35837494   2.722   5.285   0.079 -0.9823 -1.6640 -1.7847
   89RES   C35937495   3.350   5.050   7.383 -0.0914 -0.0258 -0.6864
   89RES   C36037496   3.472   5.045   7.470  0.1698  0.8954 -0.2206
   89RES   C36137497   3.530   4.905   7.478  0.0985  0.0913  0.2926
   89RES   C36237498   3.615   4.858   7.358 -0.3740 -0.3612 -0.6629
   89RES   C36337499   3.696   4.727   7.393 -0.6231  0.3553  0.1974
   89RES   C36437500   3.798   4.688   7.290  0.4125 -0.3713 -0.0755
   89RES   C36537501   3.884   4.569   7.338  0.6110  0.0592 -0.2323
   89RES   H36637502   3.319   5.150   7.355  0.0636 -0.6535 -3.2535
   89RES   H36737503   3.368   4.989   7.294 -0.1013 -0.7385 -0.2052
   89RES   H36837504   3.438   5.070   7.570 -1.5939  0.3376 -0.6613
   89RES   H36937505   3.592   4.897   7.568 -1.8453 -1.7574  1.5158
   89RES   H37037506   3.447   4.837   7.498 -1.5231  2.0439  0.3288
   89RES   H37137507   3.547   4.834   7.275 -1.9096 -0.6428  0.6496
   89RES   H37237508   3.682   4.938   7.328  0.8404 -0.7425  0.9628
   89RES   H37337509   3.721   4.740   7.498 -2.3892  1.5546  0.4936
   89RES   H37437510   3.626   4.646   7.413  0.8600 -0.4041  2.4052
   89RES   H37537511   3.759   4.656   7.193  1.3812 -1.9649  0.0430
   89RES   H37637512   3.862   4.775   7.272 -0.3368 -0.0617 -1.3416
   89RES   H37737513   3.830   4.480   7.372  0.0456  1.4095  2.5600
   89RES   H37837514   3.963   4.537   7.270 -0.7283  1.2713 -2.4252
   89RES   H37937515   3.940   4.593   7.428  0.7790  0.9256 -0.5677
   89RES   C38037516   3.587   5.139   7.429  0.1125  0.3815  0.4372
   89RES   C38137517   3.556   5.288   7.486 -0.1164 -0.3430  0.2873
   89RES   C38237518   3.597   5.291   7.637 -0.0550  0.1876 -0.0758
   89RES   C38337519   3.523   5.410   7.706 -0.1014  0.3023 -0.3700
   89RES   C38437520   3.372   5.410   7.722 -0.1819  0.4238 -0.6155
   89RES   C38537521   3.320   5.503   0.101  0.8670  0.9664 -0.0013
   89RES   C38637522   3.362   5.477   0.245 -0.4086 -0.0928 -0.0307
   89RES   H38737523   3.687   5.101   7.453  1.1601  0.0971 -3.9545
   89RES   H38837524   3.587   5.141   7.320 -3.2308  0.6207  0.4177
   89RES   H38937525   3.449   5.307   7.481 -0.1827 -0.4355  1.3250
   89RES   H39037526   3.704   5.312   7.645  0.3063 -0.9861 -1.5726
   89RES   H39137527   3.569   5.201   7.691  0.5486  0.6285  0.9832
   89RES   H39237528   3.567   5.418   0.079 -1.7154 -2.0994  0.5827
   89RES   H39337529   3.564   5.500   7.660  1.5152 -0.9112 -1.3304
   89RES   H39437530   3.340   5.446   7.624  1.3193  0.7645 -1.0003
   89RES   H39537531   3.340   5.307   0.011  2.2841 -0.1856  0.7199
   89RES   H39637532   3.212   5.502   0.095  0.8128 -2.1558  0.8282
   89RES   H39737533   3.367   5.599   0.082  3.4759 -0.3678 -0.5045
   89RES   H39837534   3.470   5.474   0.261 -0.1788  0.8254 -1.3829
   89RES   H39937535   3.338   5.374   0.273 -1.4991  0.3712  0.7872
   89RES   H40037536   3.299   5.537   0.311 -1.2981 -0.7885 -0.2329
   89RES   C40137537   3.626   5.394   7.401  0.1407 -0.2717  0.6398
   89RES   C40237538   3.552   5.424   7.268 -0.2553 -0.3603  0.1006
   89RES   C40337539   3.646   5.498   7.167  0.9091  0.4035  0.7293
   89RES   C40437540   3.626   5.649   7.166  0.1889  0.2439  0.4311
   89RES   C40537541   3.705   5.722   7.059 -0.6580  0.1575 -0.0832
   89RES   C40637542   3.657   5.865   7.059  0.0207  0.5089 -0.8732
   89RES   C40737543   3.756   5.958   6.981 -0.6805  0.6563  0.8436
   89RES   H40837544   3.727   5.362   7.376  1.2134  3.3018  0.2336
   89RES   H40937545   3.641   5.484   7.460 -3.2268  0.1501  0.9715
   89RES   H41037546   3.460   5.480   7.287 -0.1142 -0.5079  1.2806
   89RES   H41137547   3.631   5.460   7.065  2.0743  0.9814  0.3340
   89RES   H41237548   3.752   5.480   7.187  1.3399  0.0076 -1.7316
   89RES   H41337549   3.644   5.687   7.267 -1.5696  0.4055  0.6883
   89RES   H41437550   3.522   5.672   7.145  0.5049  1.2127 -0.1146
   89RES   H41537551   3.807   5.712   7.096 -1.2167 -1.6866  1.0259
   89RES   H41637552   3.694   5.680   6.959 -1.7712  2.6204 -1.0139
   89RES   H41737553   3.556   5.869   7.018 -0.3477  0.5428  0.0301
   89RES   H41837554   3.655   5.905   7.160 -0.3329 -1.5558 -0.0411
   89RES   H41937555   3.758   5.924   6.878 -3.7398  1.1621  0.5697
   89RES   H42037556   3.856   5.947   7.023 -0.1657 -0.2118 -0.5622
   89RES   H42137557   3.738   6.065   6.984  0.8561  0.9919 -0.9432
   89RES   H42237558   3.516   5.329   7.230 -0.3827  0.4299 -1.7662
   90RES     C137559   1.988   5.978   7.532  0.3263 -0.0243  0.0999
   90RES     C237560   2.076   5.855   7.518  0.5935  0.3205  0.2291
   90RES     C337561   2.144   5.848   7.382  0.3119 -0.2016 -0.1136
   90RES     C437562   2.214   5.971   7.356 -0.4253  0.2008 -0.4601
   90RES     C537563   2.276   5.962   7.213 -0.7857 -0.4650  1.0803
   90RES     C637564   2.299   6.103   7.168  0.6295 -0.0004 -0.0095
   90RES     C737565   2.379   6.114   7.038  0.0798 -0.1225 -0.5753
   90RES     H837566   1.920   5.990   7.616 -0.4601  0.0388 -0.5465
   90RES     H937567   1.924   5.992   7.445 -0.5173 -0.0688  0.7043
   90RES    H1037568   2.155   5.848   7.594  0.6990  0.9489  0.1753
   90RES    H1137569   2.202   5.756   7.387 -0.1337 -0.5578 -1.3269
   90RES    H1237570   2.072   5.834   7.301 -0.5114 -0.1008  0.5873
   90RES    H1337571   2.155   6.062   7.364  1.9417  1.5992  1.7123
   90RES    H1437572   2.298   5.976   7.426 -0.3295  0.9935 -0.6287
   90RES    H1537573   2.208   5.909   7.146  1.4273 -1.2988 -0.5911
   90RES    H1637574   2.369   5.905   7.217 -1.2273 -1.4736 -1.5299
   90RES    H1737575   2.357   6.163   7.239 -2.4909  2.3097  0.7224
   90RES    H1837576   2.199   6.147   7.164 -0.1638 -1.8942 -2.6016
   90RES    H1937577   2.406   6.215   7.007 -1.0778  0.4261  0.1606
   90RES    H2037578   2.316   6.077   6.957 -0.3783 -1.2575  0.2849
   90RES    H2137579   2.468   6.051   7.040  1.6885  2.0171 -2.1904
   90RES    H2237580   2.048   6.068   7.543  0.4780 -0.4554  3.0946
   90RES    C2337581   1.989   5.725   7.548 -0.1314 -0.3777  0.3308
   90RES    C2437582   2.069   5.590   7.560  0.4514  0.4500  0.1037
   90RES    C2537583   1.966   5.468   7.555 -0.0455 -0.0236 -0.1514
   90RES    C2637584   1.887   5.444   7.687 -1.1515 -0.1630 -0.4033
   90RES    C2737585   1.822   5.309   7.678 -0.4050  0.0730  0.6685
   90RES    C2837586   1.727   5.261   0.063 -0.3276  0.1950 -0.2533
   90RES    C2937587   1.793   5.246   0.197  0.1578 -0.1480 -0.6750
   90RES    H3037588   1.936   5.737   7.642  1.4473 -2.4307  1.5362
   90RES    H3137589   1.903   5.712   7.482  2.3442 -2.8135 -2.6346
   90RES    H3237590   2.126   5.577   7.468  0.3429  1.9576 -0.1905
   90RES    H3337591   2.023   5.384   7.515  1.7412  1.4477 -0.8098
   90RES    H3437592   1.893   5.494   7.479  0.5484  0.7660 -0.4577
   90RES    H3537593   1.813   5.521   7.704  0.5483  0.8907  2.6059
   90RES    H3637594   1.949   5.448   0.050  1.6479  0.6074 -2.3170
   90RES    H3737595   1.889   5.224   7.678  1.2252  1.3385  1.1728
   90RES    H3837596   1.778   5.310   7.578  0.0843  1.5680  0.4620
   90RES    H3937597   1.676   5.171   0.030 -2.6124  1.5254 -0.4445
   90RES    H4037598   1.651   5.338   0.072  0.5470  1.0633 -0.2217
   90RES    H4137599   1.789   5.336   0.258 -1.4502  0.3231 -1.4483
   90RES    H4237600   1.746   5.174   0.265 -1.7984  1.0616 -0.6935
   90RES    H4337601   1.896   5.213   0.191 -0.4628 -2.6510  1.3319
   90RES    C4437602   2.168   5.588   7.679 -0.3908 -0.3092  0.5460
   90RES    C4537603   2.237   5.458   7.716  0.5990  0.2286  0.3774
   90RES    C4637604   2.344   5.427   7.610 -0.2149  0.5388 -0.3421
   90RES    C4737605   2.373   5.270   7.594 -0.0091  0.0951  0.5108
   90RES    C4837606   2.480   5.244   7.485  0.3655  0.1306 -0.0575
   90RES    C4937607   2.480   5.109   7.407  0.5980  0.5386  0.2759
   90RES    C5037608   2.374   5.097   7.288  0.2053 -0.3298 -0.1128
   90RES    H5137609   2.110   5.625   0.038  0.3545  1.3072  0.3755
   90RES    H5237610   2.240   5.667   7.659 -1.9556  1.2530  0.9353
   90RES    H5337611   2.164   5.377   7.714  0.9903 -0.1172 -0.0564
   90RES    H5437612   2.438   5.480   7.624 -0.1239 -0.1712  1.9261
   90RES    H5537613   2.326   5.467   7.510  0.3789  0.0441 -0.6495
   90RES    H5637614   2.412   5.219   7.682 -1.0215  0.4383  1.1645
   90RES    H5737615   2.279   5.222   7.566  1.8735 -2.3209 -1.9817
   90RES    H5837616   2.581   5.272   7.515  0.1990  0.7181 -0.0417
   90RES    H5937617   2.444   5.312   7.408  0.6658  0.1473 -0.1835
   90RES    H6037618   2.483   5.018   7.467 -0.4584  0.0483 -0.3855
   90RES    H6137619   2.584   5.107   7.374 -0.0546 -0.3270 -1.7789
   90RES    H6237620   2.397   5.171   7.211  0.9139 -2.4737 -2.0150
   90RES    H6337621   2.273   5.109   7.326  0.6979  1.2790  0.7944
   90RES    H6437622   2.387   4.997   7.246  2.1458  0.5624 -1.7275
   90RES    C6537623   2.285   5.466   0.132  0.4780  0.4208  0.0425
   90RES    C6637624   2.377   5.357   0.194  0.4211 -0.3847  0.0175
   90RES    C6737625   2.298   5.224   0.196 -0.0286  0.4664  0.5763
   90RES    C6837626   2.392   5.096   0.204  0.1755  0.3672  0.0510
   90RES    C6937627   2.325   4.953   0.213 -0.0950 -0.1326 -0.3756
   90RES    C7037628   2.232   4.937   0.337  0.3670 -0.1423 -0.2609
   90RES    C7137629   2.082   4.921   0.295 -0.5922 -0.2000  0.1142
   90RES    H7237630   2.328   5.564   0.151 -1.8670  1.2375  1.3341
   90RES    H7337631   2.196   5.473   0.195  1.0345 -0.4801  0.9489
   90RES    H7437632   2.464   5.351   0.128 -0.7324 -0.7350 -1.4797
   90RES    H7537633   2.226   5.223   0.278 -1.5531 -1.3639 -0.7562
   90RES    H7637634   2.231   5.213   0.111  0.7795  0.4067 -0.0608
   90RES    H7737635   2.446   5.097   0.110 -0.9952 -3.4058 -0.7342
   90RES    H7837636   2.473   5.106   0.275  0.0906  0.0049  0.2003
   90RES    H7937637   2.271   4.918   0.125 -1.3752 -3.4988  1.6431
   90RES    H8037638   2.404   4.881   0.232  0.2200 -0.2937 -2.1924
   90RES    H8137639   2.258   5.013   0.410 -0.3813  0.7574 -0.9213
   90RES    H8237640   2.262   4.844   0.385 -0.6128 -0.3491 -0.0560
   90RES    H8337641   2.054   4.997   0.221  1.2432  1.3505  0.9698
   90RES    H8437642   2.067   4.820   0.257  1.2555 -0.6276  0.4896
   90RES    H8537643   2.013   4.934   0.378  0.8157  4.9808  0.6335
   90RES    C8637644   2.416   5.392   0.345 -0.5681  0.1572 -0.1786
   90RES    C8737645   2.507   5.514   0.362  0.4701 -0.1660  0.5325
   90RES    C8837646   2.498   5.578   0.508 -0.1683 -0.1907  0.4598
   90RES    C8937647   2.501   5.489   0.628 -0.1649 -0.2494 -0.1201
   90RES    C9037648   2.536   5.569   0.755 -0.8660 -0.1043  0.4043
   90RES    C9137649   2.565   5.486   0.882 -0.5854 -0.5163  0.2493
   90RES    C9237650   2.615   5.570   0.989  0.6009 -0.3857 -0.2208
   90RES    H9337651   2.324   5.415   0.399 -1.8571 -2.6471 -1.0486
   90RES    H9437652   2.466   5.306   0.390  0.9877  1.5194  0.7508
   90RES    H9537653   2.476   5.585   0.286  3.1568 -0.3010 -0.7521
   90RES    H9637654   2.579   5.651   0.521 -0.5320  0.4776 -0.9108
   90RES    H9737655   2.405   5.634   0.511  0.0111  0.1957 -0.8204
   90RES    H9837656   2.405   5.439   0.641 -0.5593  0.7605  0.9542
   90RES    H9937657   2.572   5.409   0.610 -1.1299 -1.5273  1.6400
   90RES   H10037658   2.452   5.637   0.765 -0.5927  0.4083 -0.6945
   90RES   H10137659   2.626   5.628   0.736 -1.4620  1.1916  1.4891
   90RES   H10237660   2.471   5.440   0.909 -1.1214  0.7983  0.6849
   90RES   H10337661   2.641   5.412   0.856  2.0797  1.5705  1.7613
   90RES   H10437662   2.553   5.657   1.011  1.6204 -0.2489  2.2889
   90RES   H10537663   2.713   5.608   0.961 -0.0843  0.1083 -1.9459
   90RES   H10637664   2.620   5.496   1.070  1.7464  0.3136  0.3638
   90RES   C10737665   2.649   5.473   0.327 -0.9249 -0.2590  0.2451
   90RES   C10837666   2.748   5.593   0.308  0.9149  0.7174 -0.6438
   90RES   C10937667   2.898   5.554   0.309  0.3096  0.2460  0.0157
   90RES   C11037668   2.958   5.510   0.439 -0.1032 -0.0017 -0.2259
   90RES   C11137669   2.975   5.606   0.555  0.1831  0.2708 -0.3522
   90RES   C11237670   3.025   5.549   0.687  0.3085 -0.1059 -0.5955
   90RES   C11337671   3.060   5.650   0.801  0.2229 -0.6512  0.6341
   90RES   H11437672   2.653   5.407   0.240  0.6625 -0.1275  0.1960
   90RES   H11537673   2.679   5.405   0.407  1.4826  0.5769  0.0915
   90RES   H11637674   2.748   5.658   0.395  0.4509 -1.7906  1.2688
   90RES   H11737675   2.955   5.637   0.266  1.1131 -0.1867  0.2369
   90RES   H11837676   2.913   5.474   0.237  2.0070  0.3324  0.2519
   90RES   H11937677   2.895   5.425   0.464  1.3749 -0.8324  0.7345
   90RES   H12037678   3.055   5.469   0.413 -0.1579 -0.2983  0.0459
   90RES   H12137679   2.884   5.659   0.582 -1.1425 -2.5469  0.9607
   90RES   H12237680   3.053   5.672   0.515 -0.8938  0.4055 -2.2978
   90RES   H12337681   2.958   5.473   0.726  1.6270 -0.5402  0.8686
   90RES   H12437682   3.118   5.495   0.668 -0.0257 -0.8900 -0.0456
   90RES   H12537683   3.104   5.616   0.895 -0.0847  0.2854  1.1229
   90RES   H12637684   3.128   5.729   0.769  0.2662 -1.5820 -1.6086
   90RES   H12737685   2.967   5.701   0.826  0.1281 -0.1977 -0.6146
   90RES   C12837686   2.715   5.692   0.190 -1.1157  0.1411  0.5553
   90RES   C12937687   2.715   5.634   0.046  0.1691 -0.3062 -0.1119
   90RES   C13037688   2.857   5.634   7.706 -0.2493 -0.2555  0.0968
   90RES   C13137689   2.863   5.566   7.570  0.2977 -0.3822 -0.4371
   90RES   C13237690   3.005   5.561   7.512 -0.4888  0.3082  0.0855
   90RES   C13337691   2.991   5.522   7.366 -0.4245  0.0560  0.0226
   90RES   C13437692   3.128   5.500   7.306 -0.4012  0.6454  0.9791
   90RES   H13537693   2.618   5.739   0.209 -0.7800  1.0321  0.1182
   90RES   H13637694   2.790   5.771   0.199  1.1118 -1.9462  0.7445
   90RES   H13737695   2.671   5.534   0.048  0.2552 -0.3673 -1.1689
   90RES   H13837696   2.929   5.576   0.037 -0.2243 -0.1509  0.1714
   90RES   H13937697   2.882   5.740   7.702 -1.6506  0.1527  1.4709
   90RES   H14037698   2.800   5.623   7.502  1.5819 -2.4034 -3.4796
   90RES   H14137699   2.824   5.464   7.571 -0.7344 -0.0233 -1.9876
   90RES   H14237700   3.064   5.489   7.569 -1.3943 -0.0529  0.5871
   90RES   H14337701   3.054   5.657   7.527  0.1274  0.0994 -0.5935
   90RES   H14437702   2.932   5.597   7.312 -0.2280  1.3628  1.5969
   90RES   H14537703   2.934   5.429   7.368  1.8407 -1.4436 -2.5991
   90RES   H14637704   3.191   5.588   7.319  1.0136  0.1805 -2.2590
   90RES   H14737705   3.118   5.486   7.199  0.7619  2.6300  0.6066
   90RES   H14837706   3.177   5.415   7.355 -0.5609  0.1643  0.3105
   90RES   C14937707   2.613   5.704   7.679 -0.2262 -0.5255 -0.8571
   90RES   C15037708   2.619   5.864   7.678  0.1897  0.5136 -0.4343
   90RES   C15137709   2.494   5.912   0.019 -0.4149 -0.7515  0.5904
   90RES   C15237710   2.484   6.060   0.045  0.0023  0.2452  0.4460
   90RES   C15337711   2.392   6.108   0.148  0.4594  0.4500 -0.3391
   90RES   C15437712   2.334   6.241   0.140 -0.3471 -0.5296  0.7317
   90RES   C15537713   2.236   6.266   0.254 -0.2911 -0.3393  0.5700
   90RES   H15637714   2.618   5.665   7.577  0.4389 -0.4141 -0.8646
   90RES   H15737715   2.509   5.686   7.707 -0.4590 -0.1011 -1.4366
   90RES   H15837716   2.706   5.894   0.011  1.0062 -1.7947 -0.3677
   90RES   H15937717   2.409   5.879   7.687 -0.9085 -1.9597  1.9376
   90RES   H16037718   2.475   5.871   0.118  0.1994 -1.7590  0.2940
   90RES   H16137719   2.454   6.105   7.677 -1.9347 -2.6610 -0.3556
   90RES   H16237720   2.585   6.098   0.060  0.7294 -1.6241  0.3368
   90RES   H16337721   2.434   6.088   0.246  0.6298 -1.7868 -0.8434
   90RES   H16437722   2.308   6.038   0.148  1.1114 -0.3596 -1.9218
   90RES   H16537723   2.276   6.253   0.049  2.0264  2.9207 -0.4318
   90RES   H16637724   2.413   6.316   0.149 -1.0455  0.3181 -0.0338
   90RES   H16737725   2.144   6.208   0.238 -1.8323  1.9650  0.8240
   90RES   H16837726   2.205   6.370   0.251 -0.3165 -0.3481  0.5313
   90RES   H16937727   2.274   6.245   0.354  3.3828 -0.4431 -0.7821
   90RES   C17037728   2.648   5.919   7.537 -0.2851  0.0534  0.0296
   90RES   C17137729   2.731   6.043   7.517 -0.2352  0.0039 -0.6457
   90RES   C17237730   2.872   6.033   7.571 -0.8671 -0.9252 -0.4122
   90RES   C17337731   2.988   5.985   7.483  0.1104 -0.5527  0.7103
   90RES   C17437732   3.123   5.948   7.547  0.8263 -0.7522 -0.4115
   90RES   C17537733   3.231   5.897   7.461 -0.2267  0.2000 -0.3687
   90RES   C17637734   3.356   5.841   7.522  1.0362 -0.0902  0.2295
   90RES   H17737735   2.553   5.934   7.485  0.2723 -0.1316 -1.0603
   90RES   H17837736   2.706   5.846   7.481  0.2281  1.2731 -1.0751
   90RES   H17937737   2.692   6.110   7.593  1.6003 -0.1198  0.4352
   90RES   H18037738   2.872   5.960   7.651  2.0321 -0.6357 -0.1130
   90RES   H18137739   2.917   6.126   7.606 -1.4881  0.1394 -2.3264
   90RES   H18237740   2.995   6.061   7.405  1.0849 -3.2639 -1.9078
   90RES   H18337741   2.954   5.903   7.420 -0.5367  1.0141 -1.0278
   90RES   H18437742   3.116   5.859   7.610 -3.3724  1.0154  1.8327
   90RES   H18537743   3.148   6.039   7.601 -2.8083  0.1715 -0.1726
   90RES   H18637744   3.259   5.965   7.381  1.2334  0.2377  0.1473
   90RES   H18737745   3.184   5.814   7.408 -0.5190 -0.5143  0.9668
   90RES   H18837746   3.375   5.914   7.601 -1.8015  1.5589 -0.5298
   90RES   H18937747   3.447   5.832   7.463  0.4541 -1.9664 -0.4315
   90RES   H19037748   3.326   5.744   7.562 -0.9499  0.3051 -0.2468
   90RES   C19137749   2.718   6.108   7.380  0.1611  1.0250 -0.1409
   90RES   C19237750   2.777   6.250   7.354 -0.0794 -0.5124 -0.2962
   90RES   C19337751   2.777   6.296   7.204  0.1584  0.6629 -1.3974
   90RES   C19437752   2.851   6.201   7.105  0.4797  0.3189 -0.1523
   90RES   C19537753   2.839   6.240   6.956  0.1625 -0.6959 -0.0418
   90RES   C19637754   2.933   6.179   6.855  0.0445  0.4311 -0.7308
   90RES   C19737755   2.918   6.211   6.713  0.0552  0.0164  0.4016
   90RES   H19837756   2.613   6.120   7.354 -0.1199  2.8463  1.7139
   90RES   H19937757   2.760   6.032   7.315 -3.2037 -0.1256 -1.0702
   90RES   H20037758   2.885   6.249   7.374 -0.0830  1.6667 -0.0792
   90RES   H20137759   2.813   6.398   7.192  2.2512 -0.0839 -1.7060
   90RES   H20237760   2.675   6.283   7.168 -0.9490  1.3839  1.3175
   90RES   H20337761   2.821   6.096   7.111 -2.6923  1.1570 -0.7920
   90RES   H20437762   2.956   6.210   7.132  1.1464 -0.1117 -2.4682
   90RES   H20537763   2.739   6.222   6.916  0.8979 -0.3115 -2.0968
   90RES   H20637764   2.853   6.348   6.947 -0.3119 -0.4430  2.0257
   90RES   H20737765   2.913   6.072   6.867 -3.8550  1.2576  0.9088
   90RES   H20837766   3.041   6.186   6.869 -0.1682  0.4591  0.9314
   90RES   H20937767   2.939   6.314   6.684  0.4401  0.0720  0.8795
   90RES   H21037768   2.816   6.185   6.684 -0.3072  0.7414  1.0119
   90RES   H21137769   2.983   6.151   6.649 -0.7374  1.1558 -1.5472
   90RES   C21237770   2.705   6.355   7.446  0.5805  0.2451 -0.1629
   90RES   C21337771   2.768   6.496   7.458  0.4134  0.0631 -0.7220
   90RES   C21437772   2.695   6.592   7.363  0.2466  0.5640  0.0721
   90RES   C21537773   2.770   6.727   7.344  1.1022  0.0512 -0.4294
   90RES   C21637774   2.700   6.834   7.268 -0.2911 -0.0784 -0.5001
   90RES   C21737775   2.800   6.908   7.180 -0.1084  0.1010  0.5690
   90RES   C21837776   2.760   7.051   7.154 -0.1758 -0.6506 -0.3271
   90RES   H21937777   2.683   6.306   7.541  0.6599 -0.7780 -0.6730
   90RES   H22037778   2.605   6.358   7.402  0.0257 -0.4701  1.0084
   90RES   H22137779   2.872   6.489   7.425  0.2364  0.7113 -1.4264
   90RES   H22237780   2.696   6.547   7.264  1.7267  0.3429  0.1783
   90RES   H22337781   2.594   6.610   7.398  1.0229  1.3802  1.9935
   90RES   H22437782   2.860   6.706   7.287  1.0112  2.9756 -1.7465
   90RES   H22537783   2.807   6.773   7.436  0.3792  2.1155 -1.1493
   90RES   H22637784   2.628   6.790   7.199 -0.1596 -0.9464 -0.0976
   90RES   H22737785   2.646   6.889   7.345  2.0330  0.6511  0.6801
   90RES   H22837786   2.904   6.915   7.212 -0.1146  0.5293  0.4983
   90RES   H22937787   2.818   6.857   7.086  1.1779  0.8476  0.4045
   90RES   H23037788   2.830   7.091   7.082  1.0353  0.6095  1.5018
   90RES   H23137789   2.784   7.109   7.244 -0.0857 -0.9260 -0.1725
   90RES   H23237790   2.656   7.061   7.122  0.7116  0.7819 -2.8572
   90RES   C23337791   2.756   6.543   7.604  0.3534 -0.2730  0.1782
   90RES   C23437792   2.834   6.461   7.719 -0.3512 -0.0854 -0.9357
   90RES   C23537793   2.974   6.526   0.020  0.0784 -0.2792 -0.5076
   90RES   C23637794   3.064   6.522   7.625  0.5738 -0.4071 -0.6351
   90RES   C23737795   3.201   6.554   7.666 -0.7192 -0.0521 -0.3616
   90RES   C23837796   3.308   6.580   7.553 -0.0773 -0.3499  0.4427
   90RES   C23937797   3.446   6.600   7.600 -0.0970  0.2265 -0.8633
   90RES   H24037798   2.649   6.548   7.624  0.8344  2.2258  2.5342
   90RES   H24137799   2.777   6.649   7.622 -1.9250 -0.3183  3.5807
   90RES   H24237800   2.865   6.361   7.689 -1.4545 -0.5448 -0.5648
   90RES   H24337801   3.026   6.475   0.101  0.9069  1.9572  0.4364
   90RES   H24437802   2.954   6.631   0.043 -0.2105  0.1691 -2.6711
   90RES   H24537803   3.033   6.600   7.555  0.3429  0.9094  0.8932
   90RES   H24637804   3.064   6.432   7.564  0.8929 -0.2177 -0.9187
   90RES   H24737805   3.226   6.478   0.014 -2.1375 -2.0367 -1.8767
   90RES   H24837806   3.192   6.645   7.724 -0.6495 -0.9684  1.1195
   90RES   H24937807   3.308   6.510   7.468  0.7316 -0.3728  0.4560
   90RES   H25037808   3.270   6.667   7.499  0.3993 -0.4422 -0.0553
   90RES   H25137809   3.454   6.682   7.671 -1.4770  1.1122 -1.6949
   90RES   H25237810   3.471   6.509   7.654  2.8661  0.5969 -1.4968
   90RES   H25337811   3.513   6.619   7.516  0.7279 -0.8557 -0.4560
   90RES   C25437812   2.768   6.447   0.127 -0.2913  0.0043  1.6755
   90RES   C25537813   2.822   6.350   0.238 -0.3772  0.4824  0.0975
   90RES   C25637814   2.863   6.214   0.185 -0.3146  0.2889  0.0023
   90RES   C25737815   2.917   6.118   0.286 -0.2769 -0.4560  0.9587
   90RES   C25837816   2.998   6.006   0.226  0.0378 -0.1498 -0.0910
   90RES   C25937817   3.059   5.914   0.331 -0.2614 -0.2141  0.3193
   90RES   C26037818   3.158   5.807   0.273  1.0777 -0.6937  0.0209
   90RES   H26137819   2.666   6.413   0.107 -0.0550 -0.7694  1.7465
   90RES   H26237820   2.761   6.544   0.175  0.3985  0.5062  0.7786
   90RES   H26337821   2.909   6.401   0.281  0.6273 -1.6370  0.6761
   90RES   H26437822   2.946   6.227   0.117  0.4577 -0.7841  0.7268
   90RES   H26537823   2.781   6.164   0.133 -1.6051 -0.7064  2.8507
   90RES   H26637824   2.983   6.176   0.350 -0.1760 -0.2735  0.6871
   90RES   H26737825   2.834   6.093   0.352  0.0076  2.0116  2.3089
   90RES   H26837826   3.080   6.039   0.163  1.0366  1.9675  2.2096
   90RES   H26937827   2.937   5.938   0.166  1.2992 -0.3283 -1.1678
   90RES   H27037828   3.120   5.969   0.403  0.0555 -1.1481  0.7800
   90RES   H27137829   2.979   5.863   0.385  0.7015 -1.6938  0.3822
   90RES   H27237830   3.184   5.720   0.334 -1.4119 -1.9623 -0.6722
   90RES   H27337831   3.114   5.755   0.188  0.0058  1.5377 -0.8232
   90RES   H27437832   3.254   5.841   0.235  0.3597  1.5581  0.1874
   90RES   C27537833   2.696   6.341   0.341  0.2059  0.0835  0.0118
   90RES   C27637834   2.720   6.320   0.494 -1.0342 -0.2030 -0.3697
   90RES   C27737835   2.588   6.288   0.559 -0.6760 -0.4213  0.3636
   90RES   C27837836   2.574   6.140   0.603  0.1696 -0.2278 -0.1182
   90RES   C27937837   2.447   6.096   0.669 -0.3203 -0.5640 -0.5650
   90RES   C28037838   2.423   5.940   0.684  0.4216  0.6798 -0.1124
   90RES   C28137839   2.310   5.910   0.785 -0.7887  0.2022 -1.0753
   90RES   H28237840   2.615   6.275   0.309 -2.0974  2.5203  0.6169
   90RES   H28337841   2.651   6.440   0.340  2.4173  1.1234 -2.2891
   90RES   H28437842   2.779   6.229   0.505  1.3657  1.5576  2.2248
   90RES   H28537843   2.586   6.362   0.639  1.0444  1.4470 -1.2798
   90RES   H28637844   2.499   6.318   0.502  0.1816  2.5930  0.5339
   90RES   H28737845   2.659   6.117   0.668 -1.0186 -3.5577  0.3571
   90RES   H28837846   2.588   6.078   0.514  0.1942 -0.3129 -0.0554
   90RES   H28937847   2.362   6.122   0.607 -0.9352 -3.2190 -0.8708
   90RES   H29037848   2.443   6.149   0.764  0.3265  0.6317 -1.1841
   90RES   H29137849   2.395   5.898   0.588 -0.3956 -1.1738  0.9161
   90RES   H29237850   2.510   5.886   0.721 -1.5095 -2.5028 -0.0539
   90RES   H29337851   2.315   5.965   0.878  2.8502  1.8318 -2.1442
   90RES   H29437852   2.297   5.802   0.788 -0.4240  0.1609 -0.9548
   90RES   H29537853   2.221   5.949   0.735 -2.0942  0.0215  1.0836
   90RES   C29637854   2.788   6.443   0.558 -0.3318  0.3341 -0.7604
   90RES   C29737855   2.872   6.424   0.685 -0.0356 -0.1966 -0.1381
   90RES   C29837856   2.935   6.560   0.728  0.0327 -0.9531 -0.7178
   90RES   C29937857   2.831   6.676   0.760  0.0402  1.0549  1.0425
   90RES   C30037858   2.873   6.796   0.833 -0.2662 -0.2312 -0.6940
   90RES   C30137859   2.907   6.766   0.972 -0.2783 -0.0630 -0.0778
   90RES   C30237860   2.922   6.893   1.057 -0.6163  0.4240  0.2727
   90RES   H30337861   2.864   6.471   0.484  0.0505 -1.1966 -0.9594
   90RES   H30437862   2.726   6.531   0.574  0.0141  0.2824  0.9647
   90RES   H30537863   2.794   6.392   0.754  1.3010  0.1394  1.5474
   90RES   H30637864   2.981   6.536   0.824  0.0978  0.9194 -0.2635
   90RES   H30737865   3.001   6.589   0.646 -0.2950 -1.5706 -1.2110
   90RES   H30837866   2.745   6.641   0.816  0.8267 -0.1751  1.4939
   90RES   H30937867   2.778   6.710   0.671  0.1047  1.1117  1.0250
   90RES   H31037868   2.782   6.856   0.829 -0.3417 -0.4753 -2.9731
   90RES   H31137869   2.944   6.865   0.788 -0.1993  0.1340 -0.0424
   90RES   H31237870   2.833   6.705   1.024  0.6341 -2.2127 -1.2383
   90RES   H31337871   3.001   6.712   0.976 -0.0968  0.1901 -0.8967
   90RES   H31437872   2.825   6.937   1.076 -0.5594 -0.2360  2.2303
   90RES   H31537873   2.967   6.872   1.155 -0.2580  1.0088  0.2357
   90RES   H31637874   2.980   6.964   0.998 -0.2066  1.0079  1.3465
   90RES   C31737875   2.985   6.315   0.677  0.1621  0.3214  0.2305
   90RES   C31837876   3.065   6.285   0.808  0.2681 -0.6004 -0.7507
   90RES   C31937877   2.984   6.272   0.936 -0.3602 -0.2347 -0.0208
   90RES   C32037878   2.868   6.175   0.925 -0.5554  0.5422 -0.0066
   90RES   C32137879   2.838   6.105   1.050 -0.6001 -0.5003  0.0176
   90RES   C32237880   2.738   5.993   1.044  0.0976  0.3349  0.1551
   90RES   C32337881   2.601   6.048   1.012 -0.3243  0.4783 -0.3375
   90RES   H32437882   3.050   6.336   0.593 -0.6345  1.6537 -0.0716
   90RES   H32537883   2.941   6.220   0.648 -0.8043  0.5340  0.9467
   90RES   H32637884   3.113   6.379   0.836  1.8186 -1.6745  0.2748
   90RES   H32737885   2.942   6.369   0.964 -0.7811  0.3241 -2.4319
   90RES   H32837886   3.053   6.260   1.019  0.5583 -0.5793 -0.8298
   90RES   H32937887   2.884   6.103   0.844  0.8331  2.6654 -1.6834
   90RES   H33037888   2.776   6.229   0.900  0.5685  2.3602 -0.2638
   90RES   H33137889   2.809   6.188   1.116 -1.7864  0.4034 -1.5993
   90RES   H33237890   2.928   6.058   1.089 -1.3984 -0.2882  2.2006
   90RES   H33337891   2.722   5.946   1.141 -1.9937 -0.0921 -0.3920
   90RES   H33437892   2.763   5.913   0.974 -0.4289  0.8291 -0.6071
   90RES   H33537893   2.577   6.076   0.909 -1.6450  1.1932  0.1659
   90RES   H33637894   2.575   6.131   1.078  0.4689  0.6853 -0.2772
   90RES   H33737895   2.522   5.978   1.037  0.2870  0.5726  1.9242
   90RES   C33837896   3.167   6.172   0.797 -0.2537 -0.2081  0.0246
   90RES   C33937897   3.258   6.173   0.670 -0.2564  0.4618  1.0347
   90RES   C34037898   3.369   6.060   0.690 -0.0091  0.1415  0.5532
   90RES   C34137899   3.316   5.910   0.702 -0.2725  0.5185 -0.2522
   90RES   C34237900   3.436   5.812   0.694  0.0651  0.0544 -0.1424
   90RES   C34337901   3.396   5.667   0.683  0.0311 -0.5254  0.3962
   90RES   C34437902   3.518   5.570   0.686 -0.3531 -0.0048 -0.0412
   90RES   H34537903   3.110   6.080   0.812 -1.1478  0.4375  0.6383
   90RES   H34637904   3.224   6.187   0.888 -0.4789 -1.9456  0.4627
   90RES   H34737905   3.189   6.136   0.594 -1.5984 -1.8579  3.3152
   90RES   H34837906   3.441   6.055   0.609  0.9371  0.0736  1.3964
   90RES   H34937907   3.433   6.084   0.774  0.1127  0.3505  0.4023
   90RES   H35037908   3.252   5.889   0.617  1.0014 -1.6858 -0.7213
   90RES   H35137909   3.261   5.889   0.793  1.4367  1.1648  0.9478
   90RES   H35237910   3.499   5.853   0.615  1.5349 -2.7676 -0.4873
   90RES   H35337911   3.493   5.816   0.787  2.5523 -0.5782 -1.5803
   90RES   H35437912   3.336   5.651   0.772 -0.9355  1.0287  0.0469
   90RES   H35537913   3.324   5.657   0.601 -0.3978  0.7454  0.6090
   90RES   H35637914   3.580   5.583   0.598 -2.5006 -1.4939 -1.8299
   90RES   H35737915   3.487   5.467   0.703  0.2326  0.2207  2.6261
   90RES   H35837916   3.578   5.595   0.774 -0.9266 -2.5401  1.1145
   90RES   C35937917   3.326   6.313   0.643 -0.7441  0.0134  0.0520
   90RES   C36037918   3.386   6.332   0.507 -0.5787 -0.4346  0.2430
   90RES   C36137919   3.274   6.330   0.398  0.1633  0.0469  0.0423
   90RES   C36237920   3.318   6.327   0.249  0.2404  0.6640 -0.0139
   90RES   C36337921   3.414   6.217   0.211  0.0096 -0.2272 -0.4230
   90RES   C36437922   3.446   6.205   0.057  0.7425 -0.1558  0.0770
   90RES   C36537923   3.549   6.084   0.029 -0.6289 -0.6154  0.0156
   90RES   H36637924   3.400   6.336   0.719  0.2288  0.0819 -0.9058
   90RES   H36737925   3.260   6.400   0.650 -0.3020  0.3390  0.2497
   90RES   H36837926   3.453   6.247   0.492  0.7022  0.2852  1.7033
   90RES   H36937927   3.193   6.258   0.414  0.0484  0.4064  1.1147
   90RES   H37037928   3.218   6.421   0.420 -0.2669 -0.2137  0.0445
   90RES   H37137929   3.220   6.310   0.205 -0.9515 -1.2972  3.1968
   90RES   H37237930   3.348   6.429   0.224  2.3130  0.4774  1.5509
   90RES   H37337931   3.507   6.234   0.265 -0.3344 -0.7327  0.3469
   90RES   H37437932   3.380   6.125   0.258 -1.9107 -0.5466 -2.3352
   90RES   H37537933   3.360   6.181   7.722  0.6403  0.5458 -0.0664
   90RES   H37637934   3.494   6.295   0.017 -1.0487  1.3102  1.1228
   90RES   H37737935   3.517   5.986   0.066 -2.8720 -0.4322 -1.3265
   90RES   H37837936   3.552   6.077   7.647  1.4152  0.6457 -0.0293
   90RES   H37937937   3.649   6.123   0.047 -1.7286  2.4885 -0.2528
   90RES   C38037938   3.466   6.463   0.504  0.1114 -0.0863  0.3933
   90RES   C38137939   3.600   6.474   0.589 -0.7486  0.1053 -0.0463
   90RES   C38237940   3.683   6.342   0.594 -0.2293  0.4943 -0.0680
   90RES   C38337941   3.824   6.335   0.660 -0.5631  1.1577 -0.8649
   90RES   C38437942   3.916   6.225   0.603 -0.0886 -0.2454 -0.4951
   90RES   C38537943   4.042   6.206   0.668  0.1468 -0.4423 -0.1647
   90RES   C38637944   4.133   6.097   0.594 -0.4006 -0.5837 -0.0772
   90RES   H38737945   3.489   6.479   0.398  0.3390 -1.3176  0.2412
   90RES   H38837946   3.399   6.546   0.523  1.5410  1.1941 -0.0328
   90RES   H38937947   3.578   6.499   0.692  0.2626  1.3207 -0.1218
   90RES   H39037948   3.685   6.293   0.497  2.0909 -0.3763  0.3880
   90RES   H39137949   3.617   6.273   0.648  0.9221 -1.1075 -0.6833
   90RES   H39237950   3.887   6.422   0.638 -0.0709  1.0022 -0.0800
   90RES   H39337951   3.811   6.321   0.767  1.8639  1.6213 -0.4640
   90RES   H39437952   3.855   6.135   0.602 -2.8422  1.5519  0.2755
   90RES   H39537953   3.929   6.250   0.498  0.7144 -1.4043 -0.6847
   90RES   H39637954   4.036   6.180   0.774  2.1899  1.4932  0.4624
   90RES   H39737955   4.100   6.298   0.670 -2.6578  1.4126 -2.2405
   90RES   H39837956   4.099   5.995   0.613 -1.6756 -0.0589  0.4737
   90RES   H39937957   4.235   6.112   0.631 -1.3840 -0.1739  2.5459
   90RES   H40037958   4.135   6.102   0.485 -4.6724 -2.1846 -0.3195
   90RES   C40137959   3.685   6.590   0.530  0.3925  0.5288  0.0700
   90RES   C40237960   3.757   6.561   0.403 -0.8875  0.0573 -0.0120
   90RES   C40337961   3.734   6.675   0.298 -0.1602  0.4065 -0.8967
   90RES   C40437962   3.848   6.695   0.197  0.3544  0.0628 -0.4550
   90RES   C40537963   3.890   6.573   0.106 -0.0683 -0.1006 -0.4120
   90RES   C40637964   3.794   6.557   7.715 -0.2259 -0.1143  0.6900
   90RES   C40737965   3.810   6.430   7.632  0.2023 -0.6258 -0.5080
   90RES   H40837966   3.768   6.624   0.591  0.6968 -0.6205  0.3098
   90RES   H40937967   3.628   6.682   0.521  1.5251  1.3420  1.1650
   90RES   H41037968   3.730   6.464   0.363 -1.4173  0.8975 -1.7643
   90RES   H41137969   3.711   6.774   0.339  1.0557  0.5440 -0.5412
   90RES   H41237970   3.646   6.644   0.242  0.0121 -0.2079 -0.8229
   90RES   H41337971   3.941   6.722   0.247  0.6181 -3.0160  0.8247
   90RES   H41437972   3.819   6.785   0.143 -0.3956 -0.4521 -0.9331
   90RES   H41537973   3.986   6.594   0.059 -1.0705  0.4575 -2.2805
   90RES   H41637974   3.899   6.486   0.171 -3.5077  0.4631  0.9202
   90RES   H41737975   3.691   6.541   0.022 -0.4436  0.3522  0.2472
   90RES   H41837976   3.796   6.646   7.652 -1.2329 -0.0995  0.6724
   90RES   H41937977   3.792   6.351   7.705  0.0972  1.5143  1.8664
   90RES   H42037978   3.913   6.425   7.598  0.2489 -1.1962 -0.2972
   90RES   H42137979   3.739   6.429   7.549  0.5096  0.9270 -0.7964
   90RES   H42237980   3.860   6.542   0.433 -0.3911  1.0442 -1.0304
   91RES     C137981   5.437   1.374   4.025 -0.5809 -0.5398 -0.2996
   91RES     C237982   5.478   1.281   3.914 -0.0429 -1.0576  0.2570
   91RES     C337983   5.498   1.364   3.783  0.5711 -0.8291 -0.4822
   91RES     C437984   5.384   1.453   3.740 -0.3180 -0.3884 -0.1776
   91RES     C537985   5.395   1.506   3.592 -0.2859  0.1127 -0.1696
   91RES     C637986   5.328   1.412   3.491 -0.3382 -0.5423 -0.6103
   91RES     C737987   5.386   1.386   3.350 -0.3574 -0.3957  0.4377
   91RES     H837988   5.490   1.469   4.033 -3.0499  1.0734 -2.1776
   91RES     H937989   5.440   1.321   4.121 -1.2343  0.0424  0.0509
   91RES    H1037990   5.572   1.240   3.952 -0.3337 -2.5072 -0.5616
   91RES    H1137991   5.580   1.436   3.789 -0.3450  0.2575 -0.7536
   91RES    H1237992   5.527   1.308   3.694 -0.0524  0.1246 -1.2928
   91RES    H1337993   5.290   1.402   3.761 -0.3780 -0.1919  0.0383
   91RES    H1437994   5.381   1.546   3.798 -1.7936  0.8975 -2.2321
   91RES    H1537995   5.497   1.519   3.557 -0.6636 -1.0688 -1.7878
   91RES    H1637996   5.356   1.608   3.590 -0.0615  0.2008 -0.0870
   91RES    H1737997   5.231   1.459   3.477  0.8279  1.5429 -2.0353
   91RES    H1837998   5.297   1.324   3.548 -0.1713  1.3828  2.5636
   91RES    H1937999   5.473   1.319   3.351 -0.5352 -0.6946 -1.9707
   91RES    H2038000   5.429   1.478   3.311 -2.7305  0.1797 -0.9247
   91RES    H2138001   5.306   1.359   3.282  0.3507 -1.1382 -0.1056
   91RES    H2238002   5.333   1.409   4.023 -0.4270  0.0722  1.2852
   91RES    C2338003   5.376   1.161   3.903 -0.3043  0.5560 -0.1452
   91RES    C2438004   5.404   1.039   3.814  0.7056 -0.0323  0.3808
   91RES    C2538005   5.275   0.962   3.792 -0.1287  0.3214  0.2254
   91RES    C2638006   5.189   1.019   3.673 -0.5540 -0.3642 -0.5111
   91RES    C2738007   5.247   0.999   3.534 -0.2088  0.1060  0.4895
   91RES    C2838008   5.150   1.038   3.421 -0.2762  0.3129  1.1793
   91RES    C2938009   5.202   1.036   3.274 -0.5924  0.1194  0.2065
   91RES    H3038010   5.340   1.117   3.996  1.7949 -0.0606  0.3807
   91RES    H3138011   5.286   1.203   3.857 -1.5514 -1.2178  0.6082
   91RES    H3238012   5.437   1.084   3.721  0.2449  1.6630  1.0199
   91RES    H3338013   5.215   0.952   3.883  1.2957 -0.9342  1.0635
   91RES    H3438014   5.294   0.860   3.758 -0.6956 -0.4481  2.1516
   91RES    H3538015   5.170   1.126   3.689  1.2385  0.1833 -1.8537
   91RES    H3638016   5.093   0.967   3.670 -2.1008  2.3771 -0.8910
   91RES    H3738017   5.300   0.907   3.508  0.0480  0.4382 -0.1764
   91RES    H3838018   5.326   1.074   3.537 -0.3354  0.2826 -0.6263
   91RES    H3938019   5.131   1.144   3.440  0.2799  0.1258  2.8640
   91RES    H4038020   5.055   0.985   3.423 -0.0130 -0.1931  0.3854
   91RES    H4138021   5.124   1.064   3.203  0.3931 -1.9031 -1.7347
   91RES    H4238022   5.280   1.111   3.265  1.4110 -1.5203  3.0862
   91RES    H4338023   5.234   0.941   3.232 -2.1265 -1.3547  2.2826
   91RES    C4438024   5.517   0.947   3.875  0.2355 -0.1536 -0.1675
   91RES    C4538025   5.585   0.866   3.777 -0.2165  1.1344 -0.0034
   91RES    C4638026   5.635   0.942   3.645  0.1541  1.0748 -0.4218
   91RES    C4738027   5.739   1.054   3.665  0.3739 -0.0016  0.3885
   91RES    C4838028   5.791   1.115   3.535  0.1411 -0.1611 -0.4458
   91RES    C4938029   5.900   1.227   3.547  0.1888 -0.1604  0.6250
   91RES    C5038030   5.853   1.347   3.632  0.0353  0.5037 -0.1175
   91RES    H5138031   5.471   0.880   3.947 -0.0273  1.9890  1.7167
   91RES    H5238032   5.579   1.009   3.940 -1.5001  1.4524 -0.0260
   91RES    H5338033   5.512   0.791   3.748  0.9444 -1.4089  3.3328
   91RES    H5438034   5.544   0.979   3.597  0.9499  1.6728 -1.4733
   91RES    H5538035   5.675   0.890   3.559  1.1456  1.7751 -0.3918
   91RES    H5638036   5.715   1.127   3.743 -1.4915  1.1475 -1.2051
   91RES    H5738037   5.820   0.999   3.713  1.7278  0.6064 -1.1834
   91RES    H5838038   5.705   1.162   3.487 -0.3537 -1.2166 -0.6030
   91RES    H5938039   5.828   1.035   3.471 -0.4509 -1.2022  0.4792
   91RES    H6038040   5.929   1.262   3.448  1.5168 -1.5549  0.5098
   91RES    H6138041   5.996   1.196   3.589  1.1236  0.7717 -0.7731
   91RES    H6238042   5.853   1.330   3.740 -0.3322  1.5836  0.0683
   91RES    H6338043   5.758   1.390   3.600  0.1511  0.8328 -0.0207
   91RES    H6438044   5.922   1.431   3.627 -1.3447  2.1409  4.7747
   91RES    C6538045   5.704   0.782   3.826 -0.3742  0.4772  0.6308
   91RES    C6638046   5.683   0.679   3.943 -0.2217  0.5788  0.2359
   91RES    C6738047   5.820   0.636   4.002 -0.5805 -0.2222 -0.0254
   91RES    C6838048   5.881   0.746   4.093 -0.0184  0.3677 -0.1746
   91RES    C6938049   6.001   0.697   4.170 -0.0496  0.2231  0.2751
   91RES    C7038050   6.031   0.781   4.293 -0.6654 -0.4572 -0.8980
   91RES    C7138051   6.149   0.725   4.379 -0.1310  0.6919  0.0025
   91RES    H7238052   5.743   0.723   3.742 -1.7943  1.0270 -0.4302
   91RES    H7338053   5.777   0.855   3.861 -0.8113 -0.6075  3.9368
   91RES    H7438054   5.612   0.722   4.014 -2.1726 -0.3539 -1.0900
   91RES    H7538055   5.802   0.542   4.055 -0.4748 -0.2458 -0.0318
   91RES    H7638056   5.891   0.611   3.923  0.8220 -1.6040  1.6315
   91RES    H7738057   5.898   0.834   4.032  1.0721  0.4242  0.2131
   91RES    H7838058   5.806   0.779   4.166 -0.3203 -1.7942  0.5450
   91RES    H7938059   5.954   0.606   4.207  0.0417 -0.2851 -0.8413
   91RES    H8038060   6.087   0.690   4.103 -0.4884  2.3648 -0.5558
   91RES    H8138061   5.944   0.805   4.354  1.1144  3.6067  0.2246
   91RES    H8238062   6.052   0.882   4.260 -0.7949  0.4430  1.6886
   91RES    H8338063   6.115   0.638   4.434 -0.6194  0.2234 -1.0184
   91RES    H8438064   6.230   0.697   4.312 -0.0608 -1.7111  1.0567
   91RES    H8538065   6.198   0.794   4.447  3.8169 -0.1194 -1.8516
   91RES    C8638066   5.593   0.561   3.886 -0.7418 -0.8489  0.2325
   91RES    C8738067   5.525   0.478   3.998 -0.0886  0.8939  0.9882
   91RES    C8838068   5.398   0.549   4.055 -0.3303  0.5063  0.2343
   91RES    C8938069   5.267   0.570   3.971 -0.4922 -0.3907  0.4099
   91RES    C9038070   5.163   0.667   4.021 -0.3339  0.2261 -0.5086
   91RES    C9138071   5.080   0.617   4.139  0.2866  1.0339 -0.1349
   91RES    C9238072   4.986   0.728   4.194  0.3722  0.4398  0.0362
   91RES    H9338073   5.514   0.583   3.814  0.8827 -0.0943 -1.3539
   91RES    H9438074   5.653   0.487   3.833 -0.7481 -1.2197  0.7386
   91RES    H9538075   5.595   0.464   4.081  0.9181  3.2208  0.5956
   91RES    H9638076   5.357   0.495   4.141 -3.8584  0.5418 -1.3278
   91RES    H9738077   5.420   0.645   4.102 -0.2554  0.0759  1.0776
   91RES    H9838078   5.295   0.590   3.867 -1.3507  0.3359  0.3142
   91RES    H9938079   5.212   0.475   3.966 -1.4297  0.2126 -1.1590
   91RES   H10038080   5.106   0.680   3.930 -1.6239 -2.1198 -0.0586
   91RES   H10138081   5.210   0.759   4.056 -0.3786 -0.2903  0.9668
   91RES   H10238082   5.022   0.533   4.099 -0.4147  1.7978 -0.7540
   91RES   H10338083   5.145   0.582   4.219 -1.1892 -0.2822  0.5251
   91RES   H10438084   5.035   0.786   4.272 -0.6405  2.4053 -0.7530
   91RES   H10538085   4.898   0.680   4.238  1.1304 -0.4400  0.6040
   91RES   H10638086   4.954   0.796   4.115 -1.6803  0.8819  1.2052
   91RES   C10738087   5.495   0.327   3.953  0.3842 -0.9334 -0.6764
   91RES   C10838088   5.489   0.240   4.074 -0.4830  0.4451 -0.4257
   91RES   C10938089   5.385   0.128   4.070  0.0774  0.0425 -0.1046
   91RES   C11038090   5.240   0.185   4.087 -0.4352 -0.5555 -0.0375
   91RES   C11138091   5.128   0.089   4.115  0.1536 -0.0184  0.1178
   91RES   C11238092   4.984   0.162   4.112 -0.3604 -0.1307  0.0381
   91RES   C11338093   4.924   0.201   3.970  0.6466 -0.0159  0.3101
   91RES   H11438094   5.577   0.282   3.897  0.9824 -1.7359  0.8245
   91RES   H11538095   5.408   0.314   3.888  1.0517  3.0455 -2.5440
   91RES   H11638096   5.456   0.295   4.162 -0.6947 -0.6813  0.2094
   91RES   H11738097   5.398   0.057   4.151  0.0547  0.2457  0.0793
   91RES   H11838098   5.395   0.073   3.977  1.2663  1.5115 -0.8672
   91RES   H11938099   5.229   0.268   4.157 -0.9676 -1.8439  1.4225
   91RES   H12038100   5.214   0.227   3.990  0.5740 -0.5972 -0.3410
   91RES   H12138101   5.138   0.038   4.211 -0.4936  0.7970  0.6242
   91RES   H12238102   5.133   0.007   4.043  0.1647  0.0369  0.0551
   91RES   H12338103   4.911   0.087   4.143  0.2344 -0.5735  0.3601
   91RES   H12438104   4.969   0.242   4.184  1.0963 -1.1454  1.5053
   91RES   H12538105   4.820   0.209   3.999 -0.1849 -2.7067 -1.7425
   91RES   H12638106   4.958   0.298   3.934  2.3603 -0.4154  0.8003
   91RES   H12738107   4.931   0.124   3.893 -4.4747  0.6365 -1.0097
   91RES   C12838108   5.633   0.180   4.096  0.7025  0.0648 -0.3638
   91RES   C12938109   5.666   0.151   4.243 -0.7570 -1.0190  0.2831
   91RES   C13038110   5.722   0.276   4.315 -0.1731 -0.1883  0.1045
   91RES   C13138111   5.612   0.362   4.374  0.4029  0.7354 -0.1094
   91RES   C13238112   5.688   0.468   4.456 -0.0555  0.2146 -0.2908
   91RES   C13338113   5.593   0.579   4.490 -0.2902 -0.0253  0.3962
   91RES   C13438114   5.669   0.708   4.547  0.4956  0.3089  0.3752
   91RES   H13538115   5.649   0.092   4.033  0.2801 -0.7228  0.6030
   91RES   H13638116   5.709   0.246   4.056  1.5480 -1.4868 -1.3740
   91RES   H13738117   5.575   0.117   4.291  0.7385 -0.5939  3.5381
   91RES   H13838118   5.786   0.335   4.249  0.5342  0.7447  1.5802
   91RES   H13938119   5.782   0.243   4.400  1.6199 -2.6111 -2.0381
   91RES   H14038120   5.540   0.303   4.430  2.2957 -1.5166  0.0300
   91RES   H14138121   5.559   0.421   4.299  1.3006 -0.7212 -1.9371
   91RES   H14238122   5.764   0.514   4.392  0.5471 -0.4753 -0.0795
   91RES   H14338123   5.741   0.420   4.538  0.3175 -0.0048 -0.6567
   91RES   H14438124   5.520   0.548   4.565  1.5698  2.5028  3.4148
   91RES   H14538125   5.525   0.599   4.407 -1.5686 -1.7652  1.0030
   91RES   H14638126   5.598   0.784   4.579 -1.2625 -1.0388 -0.2022
   91RES   H14738127   5.736   0.745   4.470 -0.3205 -1.5106 -1.2825
   91RES   H14838128   5.731   0.688   4.633 -1.3566 -2.0497  1.2421
   91RES   C14938129   5.757   0.022   4.255  0.0970  0.0829  0.1952
   91RES   C15038130   5.688   7.607   4.246 -1.0948  0.3714 -0.6598
   91RES   C15138131   5.631   7.562   4.381 -0.2291 -0.1603  0.4769
   91RES   C15238132   5.737   7.495   4.479 -0.4508 -0.2033 -0.1137
   91RES   C15338133   5.688   7.498   4.629  0.1761 -0.3246  1.5640
   91RES   C15438134   5.797   7.462   4.727  0.0347 -0.6390 -0.2089
   91RES   C15538135   5.754   7.455   4.869  0.1365 -0.9888 -0.7641
   91RES   H15638136   5.833   0.022   4.177  1.7385  0.0386  1.7674
   91RES   H15738137   5.818   0.026   4.345  2.2835 -0.8270 -1.2058
   91RES   H15838138   5.595   7.622   4.192 -1.4609  1.2819  0.2086
   91RES   H15938139   5.588   7.656   4.414  0.0179  0.2527 -0.3675
   91RES   H16038140   5.544   7.499   4.364  0.4510 -1.2238  0.8552
   91RES   H16138141   5.837   7.539   4.486 -0.3576 -0.2804 -0.8579
   91RES   H16238142   5.748   7.392   4.444 -0.9263 -0.6080  0.9362
   91RES   H16338143   5.603   7.431   4.643  0.5345 -1.1030  0.0951
   91RES   H16438144   5.658   7.600   4.654  1.5497  0.3060  0.7020
   91RES   H16538145   5.886   7.524   4.717  0.6906 -1.8995 -2.6932
   91RES   H16638146   5.830   7.359   4.710 -0.5347 -0.9278  0.4050
   91RES   H16738147   5.826   7.396   4.925 -1.4780 -1.5271  0.7901
   91RES   H16838148   5.653   7.414   4.872 -0.3539  0.1400 -1.4423
   91RES   H16938149   5.755   7.549   4.924  1.9311 -0.3204 -1.9043
   91RES   C17038150   5.777   7.510   4.164  0.1061 -0.1457  0.3930
   91RES   C17138151   5.715   7.363   4.155  1.1193  0.0292  0.3929
   91RES   C17238152   5.597   7.338   4.047  0.3398 -0.6660  0.2125
   91RES   C17338153   5.644   7.372   3.902  0.7252  0.2315  0.2891
   91RES   C17438154   5.517   7.376   3.810 -0.7454  0.0778  0.9026
   91RES   C17538155   5.560   7.391   3.662  0.0368  0.6305 -0.6058
   91RES   C17638156   5.448   7.403   3.562 -0.1233  0.5308 -0.5950
   91RES   H17738157   5.874   7.506   4.214  0.2233  0.3431  0.2056
   91RES   H17838158   5.796   7.547   4.063 -0.1459  1.9527  1.0776
   91RES   H17938159   5.665   7.338   4.249  0.9255 -0.2599  0.2125
   91RES   H18038160   5.507   7.395   4.072 -0.3499 -1.3261 -0.7212
   91RES   H18138161   5.568   7.233   4.049 -2.3238 -0.0210 -1.8807
   91RES   H18238162   5.717   7.306   3.853 -0.1435  0.3636 -1.2059
   91RES   H18338163   5.682   7.474   3.900 -0.6465  0.7730  1.9545
   91RES   H18438164   5.449   7.456   3.837 -1.4637  0.3401 -1.5413
   91RES   H18538165   5.455   7.286   3.816 -0.0300 -0.8380 -3.3103
   91RES   H18638166   5.622   7.303   3.648 -0.1301  0.4632 -0.2901
   91RES   H18738167   5.625   7.478   3.649  0.4294  0.8593  2.4744
   91RES   H18838168   5.495   7.390   3.465 -1.1200  1.2325 -1.1873
   91RES   H18938169   5.396   7.498   3.549  0.3776  0.6576 -1.7310
   91RES   H19038170   5.388   7.313   3.577  2.6860 -1.2726  0.1547
   91RES   C19138171   5.821   7.256   4.133  0.0926 -0.3928 -0.7144
   91RES   C19238172   5.901   7.215   4.261 -0.4470 -0.2672  0.4218
   91RES   C19338173   5.816   7.127   4.351 -0.7194 -0.2738  0.3169
   91RES   C19438174   5.873   7.124   4.487  0.7600  0.0717  0.2019
   91RES   C19538175   5.771   7.070   4.592 -0.0123 -0.2419 -0.1938
   91RES   C19638176   5.847   7.028   4.722  0.3019 -0.0588 -0.7097
   91RES   C19738177   5.746   7.003   4.840  0.0441 -0.2538 -0.0481
   91RES   H19838178   5.889   7.297   4.058  0.6138  1.1532  0.5895
   91RES   H19938179   5.777   7.166   4.089 -0.5032 -0.8197  0.7323
   91RES   H20038180   5.921   7.309   4.314  0.8154 -2.0605  3.2395
   91RES   H20138181   5.788   7.035   4.300 -1.2047  1.1375 -2.0097
   91RES   H20238182   5.722   7.182   4.363 -0.2281  0.3127  1.5987
   91RES   H20338183   5.900   7.226   4.513  1.4137 -0.1529  0.4235
   91RES   H20438184   5.965   7.066   4.477 -0.2040 -1.9328  2.1888
   91RES   H20538185   5.703   7.151   4.619 -3.0620 -2.6047 -0.4801
   91RES   H20638186   5.704   6.998   4.544  0.6455  0.4753 -2.2371
   91RES   H20738187   5.931   7.096   4.730 -1.3269  1.9552 -0.3780
   91RES   H20838188   5.892   6.932   4.695 -0.6144 -0.2968 -1.4700
   91RES   H20938189   5.666   6.933   4.816 -0.6121 -0.2250  1.9545
   91RES   H21038190   5.684   7.092   4.847 -1.6168 -1.2851 -1.2337
   91RES   H21138191   5.793   6.967   4.932 -0.2256 -0.0358  0.1731
   91RES   C21238192   6.054   7.173   4.236  0.3553 -0.1885 -0.2446
   91RES   C21338193   6.081   7.030   4.203 -0.3460  0.2757  0.3398
   91RES   C21438194   6.052   7.009   4.050  0.1320 -0.1954 -0.2835
   91RES   C21538195   6.059   6.866   3.999  0.2483 -0.5007  0.0312
   91RES   C21638196   5.949   6.767   4.048 -0.3606  0.5210  0.2676
   91RES   C21738197   5.972   6.633   3.983 -0.4582 -0.6990  0.0123
   91RES   C21838198   5.872   6.520   4.018  0.2667 -0.5893 -0.1961
   91RES   H21938199   6.110   7.191   4.328  1.2613 -0.9655 -0.6330
   91RES   H22038200   6.106   7.232   4.162 -0.3962 -2.1555 -2.4207
   91RES   H22138201   6.012   6.967   4.258 -1.7730  3.0547  1.8518
   91RES   H22238202   5.952   7.042   4.022  0.9979  1.7690 -1.1380
   91RES   H22338203   6.119   7.080   4.002  1.6991 -0.1707  1.8601
   91RES   H22438204   6.160   6.829   4.014  0.4311  0.2329  0.6446
   91RES   H22538205   6.044   6.868   3.891  1.5043 -1.2688 -0.1613
   91RES   H22638206   5.951   6.759   4.157  1.6657  2.3357  0.3955
   91RES   H22738207   5.851   6.804   4.017 -1.4419 -2.3178  0.2095
   91RES   H22838208   5.984   6.646   3.876  1.1957  2.1335  0.5100
   91RES   H22938209   6.069   6.591   4.011  0.0522 -0.0468 -0.7686
   91RES   H23038210   5.779   6.552   3.972 -0.1406 -0.6890  0.5475
   91RES   H23138211   5.865   6.492   4.123  1.0101 -0.0580 -0.0010
   91RES   H23238212   5.893   6.427   3.965  1.5118 -0.8285  0.6881
   91RES   C23338213   6.227   6.997   4.245  0.5618 -0.2946  0.7963
   91RES   C23438214   6.224   6.937   4.391 -0.3396  0.1492  0.2318
   91RES   C23538215   6.165   6.799   4.402 -0.2239 -0.3887 -0.5124
   91RES   C23638216   6.235   6.696   4.314  0.0536  1.2885  0.6720
   91RES   C23738217   6.164   6.556   4.305 -0.4258 -0.2172  0.5695
   91RES   C23838218   6.241   6.455   4.217 -0.3099 -0.3202  0.4763
   91RES   C23938219   6.170   6.322   4.216 -0.4715  0.7301 -0.0097
   91RES   H24038220   6.292   7.084   4.246 -0.2392  0.3845 -1.7480
   91RES   H24138221   6.278   6.932   4.174  1.2044  1.9949 -0.8834
   91RES   H24238222   6.160   7.006   4.447 -1.6873 -0.1128 -0.9682
   91RES   H24338223   6.058   6.802   4.382 -0.5181 -4.1308  0.1433
   91RES   H24438224   6.181   6.765   4.504 -2.0481 -0.2446 -0.1716
   91RES   H24538225   6.334   6.664   4.346 -1.4521 -0.2355  4.0085
   91RES   H24638226   6.248   6.727   4.211 -0.5933 -1.4446 -0.2817
   91RES   H24738227   6.065   6.568   4.261 -0.9351  1.0288  1.9987
   91RES   H24838228   6.147   6.503   4.398 -0.5534  0.2048  0.7895
   91RES   H24938229   6.256   6.497   4.118  1.6167 -0.7933  0.5470
   91RES   H25038230   6.341   6.450   4.260  0.7883  1.5969 -1.7718
   91RES   H25138231   6.201   6.244   4.148 -0.6698 -0.8384  1.6649
   91RES   H25238232   6.195   6.278   4.312  1.1899  0.9826 -0.3115
   91RES   H25338233   6.062   6.333   4.200 -0.7902 -0.2837  1.3389
   91RES   C25438234   6.367   6.939   4.456 -0.0082  0.5019 -0.4625
   91RES   C25538235   6.386   6.901   4.611 -0.5358 -0.2735 -0.2040
   91RES   C25638236   6.271   6.946   4.703 -0.2638 -0.7644 -0.4567
   91RES   C25738237   6.288   6.911   4.846 -0.4686 -0.4421  0.2006
   91RES   C25838238   6.160   6.919   4.931  0.4603  0.6875  0.7236
   91RES   C25938239   6.177   6.850   5.064  0.5439  1.0221  0.0982
   91RES   C26038240   6.046   6.820   5.144  0.2705  0.4955 -0.1828
   91RES   H26138241   6.412   7.037   4.435  1.0864  0.1243  0.1025
   91RES   H26238242   6.429   6.873   4.395 -0.4661  1.2573 -1.7850
   91RES   H26338243   6.376   6.793   4.617  1.5966 -0.6099 -2.3838
   91RES   H26438244   6.179   6.901   4.665 -0.2644 -0.4861 -0.7872
   91RES   H26538245   6.257   7.050   4.675 -1.3539 -0.9196 -0.5393
   91RES   H26638246   6.328   6.811   4.860 -3.1227 -1.3192  1.9932
   91RES   H26738247   6.358   6.979   4.895 -1.7126 -0.7230  2.4497
   91RES   H26838248   6.078   6.869   4.879  0.3882  0.3137  1.1945
   91RES   H26938249   6.125   7.021   4.943  0.5330  0.9698 -1.1710
   91RES   H27038250   6.227   6.754   5.046 -2.8576 -0.8827  0.3277
   91RES   H27138251   6.253   6.895   5.128 -0.4054 -1.2797  3.0239
   91RES   H27238252   6.005   6.910   5.190  0.4061  0.4081  0.1142
   91RES   H27338253   5.964   6.775   5.090 -0.5021  0.4576  1.0051
   91RES   H27438254   6.072   6.751   5.225 -0.3693  1.1204  0.5647
   91RES   C27538255   6.519   6.946   4.678  0.0661  0.3840  0.2274
   91RES   C27638256   6.652   6.909   4.602 -0.3867  0.3786 -0.0902
   91RES   C27738257   6.690   6.765   4.649  0.3602 -0.5531  0.5629
   91RES   C27838258   6.801   6.689   4.571  1.1043  0.3427  0.1832
   91RES   C27938259   6.868   6.577   4.646  0.2468 -0.5159  0.2313
   91RES   C28038260   6.935   6.477   4.546 -0.4789  0.6099 -0.0590
   91RES   C28138261   7.033   6.382   4.621  0.3575  0.1080 -0.2513
   91RES   H28238262   6.531   6.909   4.780  0.7260  1.9152  0.7185
   91RES   H28338263   6.522   7.054   4.695 -1.3195  0.4195  0.3126
   91RES   H28438264   6.620   6.911   4.498 -1.3398  1.5997  0.2160
   91RES   H28538265   6.729   6.774   4.750 -0.1454  0.0118  0.7092
   91RES   H28638266   6.595   6.712   4.647 -0.5178  0.9799  1.0680
   91RES   H28738267   6.879   6.764   4.554  1.8611 -0.8712 -1.8589
   91RES   H28838268   6.762   6.656   4.475  0.7503 -0.0664  0.4668
   91RES   H28938269   6.784   6.533   4.700 -2.1285  1.0957 -2.0069
   91RES   H29038270   6.941   6.619   4.715  0.8433 -1.3044  0.0829
   91RES   H29138271   6.860   6.412   4.502  1.1188 -1.5406  0.2867
   91RES   H29238272   6.983   6.513   4.455 -2.1728  0.8145 -0.8865
   91RES   H29338273   7.081   6.321   4.543  1.8347  2.0180 -0.8757
   91RES   H29438274   6.976   6.309   4.678  0.3017 -0.0194 -0.4703
   91RES   H29538275   7.107   6.432   4.683  0.0000  0.8357 -0.4130
   91RES   C29638276   6.759   7.017   4.630  0.3367 -0.0588 -0.0506
   91RES   C29738277   6.734   7.147   4.549 -1.0260  0.1678 -0.1531
   91RES   C29838278   6.766   7.131   4.397  0.6587  0.5839 -0.0690
   91RES   C29938279   6.905   7.081   4.356  0.5947  0.3768 -0.0674
   91RES   C30038280   6.924   7.093   4.207 -0.4252 -0.1271  0.4576
   91RES   C30138281   7.074   7.095   4.169 -0.3481  0.2091 -0.5620
   91RES   C30238282   7.098   7.108   4.019 -0.8780  0.4236 -0.1999
   91RES   H30338283   6.774   7.049   4.733 -0.4156 -0.1958  0.1032
   91RES   H30438284   6.858   6.982   4.599 -0.0705 -0.5498 -0.7991
   91RES   H30538285   6.631   7.181   4.548 -0.4607  1.9393 -0.6463
   91RES   H30638286   6.692   7.068   4.347 -0.2838  0.9801  0.7945
   91RES   H30738287   6.762   7.231   4.355 -0.0989  0.4415 -0.3519
   91RES   H30838288   6.924   6.977   4.386  0.5256  0.3942  0.0405
   91RES   H30938289   6.986   7.130   4.410  0.1653  1.3062 -0.2555
   91RES   H31038290   6.884   7.191   4.179  0.4267 -0.6381 -2.7614
   91RES   H31138291   6.869   7.009   4.164  0.8961 -0.8819  0.2314
   91RES   H31238292   7.115   7.185   4.215  1.2151 -1.0637  0.6097
   91RES   H31338293   7.125   7.005   4.204  0.6804  1.2697  0.7383
   91RES   H31438294   7.042   7.040   3.956  0.6918 -0.6779 -0.4455
   91RES   H31538295   7.086   7.210   3.981 -1.4568  0.4049 -0.0684
   91RES   H31638296   7.203   7.082   4.002 -1.2278 -1.0084 -0.2350
   91RES   C31738297   6.809   7.258   4.624 -0.3679 -0.5379  0.1766
   91RES   C31838298   6.790   7.407   4.570  0.0047  0.7892 -0.4080
   91RES   C31938299   6.685   7.473   4.662  0.4134  0.1298 -0.1784
   91RES   C32038300   6.535   7.422   4.664  0.9056 -0.1318  0.5590
   91RES   C32138301   6.469   7.437   4.520  0.9908  0.1807  0.2938
   91RES   C32238302   6.322   7.400   4.511  0.4938  0.2379 -0.4809
   91RES   C32338303   6.226   7.478   4.603  0.1446 -0.1661 -0.2252
   91RES   H32438304   6.916   7.237   4.616 -0.3322 -0.4770  0.4801
   91RES   H32538305   6.780   7.251   4.728  0.4230 -0.4638  0.4098
   91RES   H32638306   6.755   7.410   4.466  0.3068  2.3239 -0.4886
   91RES   H32738307   6.674   7.580   4.642 -3.4786 -0.3294 -0.9406
   91RES   H32838308   6.736   7.469   4.758  0.0641 -0.6021 -0.0170
   91RES   H32938309   6.476   7.478   4.737 -0.1463 -0.3679 -0.0979
   91RES   H33038310   6.530   7.322   4.709 -1.7943 -0.0182  0.6188
   91RES   H33138311   6.529   7.393   4.440 -1.0620 -2.8049  0.3234
   91RES   H33238312   6.466   7.542   4.491 -2.7081 -0.6930 -2.9344
   91RES   H33338313   6.310   7.294   4.532  1.1738 -0.4779 -3.4352
   91RES   H33438314   6.282   7.411   4.410 -1.2833  0.4959  0.2189
   91RES   H33538315   6.227   7.586   4.588 -2.2447 -0.3505 -1.9165
   91RES   H33638316   6.224   7.455   4.710 -1.1153 -0.7578 -0.3569
   91RES   H33738317   6.122   7.460   4.574 -0.1129  3.5345 -1.9077
   91RES   C33838318   6.918   7.482   4.583  0.2196  0.4315 -0.2803
   91RES   C33938319   6.928   7.621   4.515 -0.1143 -0.2451 -0.1852
   91RES   C34038320   6.882   7.619   4.362  0.3518  0.1347  0.2116
   91RES   C34138321   6.945   7.523   4.271  0.6144  0.6365  0.7024
   91RES   C34238322   6.903   7.550   4.125 -0.0423  0.1708 -0.2424
   91RES   C34338323   6.986   7.450   4.029 -0.2296 -0.5942 -0.3445
   91RES   C34438324   7.009   7.506   3.897  0.1296 -0.1890  0.1080
   91RES   H34538325   7.003   7.423   4.547  0.1519 -0.7117  1.4047
   91RES   H34638326   6.940   7.507   4.686  2.2272  2.3607 -1.1349
   91RES   H34738327   6.865   7.696   4.563 -0.3613  1.0396 -2.3921
   91RES   H34838328   6.774   7.607   4.359  0.4249 -0.5231  0.0346
   91RES   H34938329   6.895   7.719   4.322  1.0850 -0.5574 -1.3149
   91RES   H35038330   6.937   7.420   4.305 -3.1182  0.8946  0.8812
   91RES   H35138331   7.049   7.554   4.270  0.3515  1.5506 -0.8113
   91RES   H35238332   6.795   7.544   4.113 -0.0297  0.6066 -0.6176
   91RES   H35338333   6.928   7.651   4.090 -0.2959  1.0611  2.0842
   91RES   H35438334   7.082   7.420   4.073  0.3721  0.2643 -1.0648
   91RES   H35538335   6.930   7.357   4.037 -2.1494  0.3854 -2.0237
   91RES   H35638336   7.050   7.439   3.821  2.6136  1.3995  0.0032
   91RES   H35738337   7.087   7.582   3.897 -1.4087  1.4252 -0.6249
   91RES   H35838338   6.917   7.548   3.858  0.9310  0.0840 -1.5063
   91RES   C35938339   7.077   7.672   4.532 -0.2086  0.1734  0.2275
   91RES   C36038340   7.091   0.095   4.555 -0.5879 -0.0672 -0.2310
   91RES   C36138341   7.039   0.151   4.689  0.2389 -0.2026  0.4552
   91RES   C36238342   7.002   0.296   4.680  0.5076 -0.1843 -0.6720
   91RES   C36338343   6.958   0.347   4.821  0.1010 -0.0885 -0.1370
   91RES   C36438344   6.894   0.484   4.815  0.1230 -0.0592  0.1395
   91RES   C36538345   6.868   0.537   4.952 -0.3892 -0.2905 -0.0567
   91RES   H36638346   7.141   7.628   4.455 -0.1571  0.8807 -0.1460
   91RES   H36738347   7.131   7.625   4.614  1.0796  0.5749 -0.3683
   91RES   H36838348   7.015   0.134   4.486  1.1493 -0.8746 -2.6703
   91RES   H36938349   6.952   0.090   4.716 -0.8899  0.4266 -1.6272
   91RES   H37038350   7.097   0.140   4.781  1.9766  1.7855 -0.3634
   91RES   H37138351   7.088   0.357   4.654  0.7969 -0.1786  0.2849
   91RES   H37238352   6.932   0.304   4.596  2.0327 -1.8707 -2.1469
   91RES   H37338353   6.892   0.277   4.872  0.6178 -0.7407 -0.3654
   91RES   H37438354   7.043   0.350   4.890  0.1257  0.4365 -0.1901
   91RES   H37538355   6.958   0.553   4.759 -0.0834  0.9843  1.1638
   91RES   H37638356   6.795   0.478   4.769 -0.1523 -0.6736  0.8126
   91RES   H37738357   6.798   0.489   5.022  0.3610  0.3982  1.1845
   91RES   H37838358   6.958   0.571   5.004  0.3960  2.3399 -2.9666
   91RES   H37938359   6.814   0.631   4.938  2.1427  0.8641 -2.4869
   91RES   C38038360   7.233   0.149   4.517 -0.0369 -0.6241 -0.2192
   91RES   C38138361   7.272   0.163   4.372  0.1591 -0.2503  0.3792
   91RES   C38238362   7.175   0.249   4.284  0.5580 -0.3806 -0.5491
   91RES   C38338363   7.216   0.260   4.141 -0.0900  0.7318 -0.0161
   91RES   C38438364   7.120   0.333   4.052 -0.4998  0.2028  0.2301
   91RES   C38538365   7.164   0.365   3.909 -0.4707 -0.4401  0.4732
   91RES   C38638366   7.150   0.254   3.809 -0.4883 -0.4991 -0.5994
   91RES   H38738367   7.255   0.241   4.572  1.1838  0.2381 -2.1169
   91RES   H38838368   7.295   0.075   4.568  0.3396 -1.0865 -1.3279
   91RES   H38938369   7.253   0.066   4.328  0.7487  0.0608 -0.5725
   91RES   H39038370   7.154   0.345   4.330 -1.5617 -1.6307  1.1751
   91RES   H39138371   7.083   0.191   4.293  0.0153  0.5351 -0.1012
   91RES   H39238372   7.307   0.314   4.118 -0.9877  1.1534 -2.7720
   91RES   H39338373   7.224   0.158   4.103  0.9943  0.7046  0.2892
   91RES   H39438374   7.019   0.292   4.044 -0.6084  0.5587 -0.2330
   91RES   H39538375   7.108   0.433   4.094 -1.3988 -0.2630  1.1456
   91RES   H39638376   7.266   0.400   3.927 -0.4656 -0.3586  0.2902
   91RES   H39738377   7.116   0.457   3.875 -0.8847 -1.1768 -0.9443
   91RES   H39838378   7.178   0.157   3.852  0.3365 -0.2777 -0.6137
   91RES   H39938379   7.202   0.266   3.714  1.8325 -0.6397  0.6001
   91RES   H40038380   7.043   0.239   3.798 -0.8500  0.1194  1.7887
   91RES   C40138381   7.422   0.209   4.348  1.0326 -0.6170 -0.2416
   91RES   C40238382   7.524   0.131   4.425  0.2911 -0.0551 -0.6301
   91RES   C40338383   7.668   0.155   4.390  0.5402  0.3100 -0.0770
   91RES   C40438384   0.037   0.057   4.456 -0.1521  0.5761  0.3243
   91RES   C40538385   0.177   0.069   4.388 -0.3026  0.9602 -0.3678
   91RES   C40638386   0.188   0.004   4.257 -0.3476 -0.2124 -0.1714
   91RES   C40738387   0.332   7.703   4.215 -0.3278 -0.6147  0.0745
   91RES   H40838388   7.430   0.309   4.390 -1.9064  0.0193 -1.0559
   91RES   H40938389   7.447   0.215   4.242 -0.3275 -0.2155 -0.5513
   91RES   H41038390   7.491   0.028   4.413  0.8220 -0.3945  0.7118
   91RES   H41138391   7.698   0.256   4.415 -0.7911  0.4424  1.0602
   91RES   H41238392   7.687   0.158   4.283  0.7541  1.5233 -0.0045
   91RES   H41338393   7.726   7.681   4.447 -0.4331  0.7583 -0.5656
   91RES   H41438394   0.037   0.084   4.562 -2.0745  0.6720  0.3173
   91RES   H41538395   0.208   0.173   4.378  0.8013  0.6151 -0.5499
   91RES   H41638396   0.248   0.030   4.460  1.1137  1.7045 -1.3419
   91RES   H41738397   0.136   7.636   4.244  1.2472 -1.1835  0.3906
   91RES   H41838398   0.139   0.073   4.187 -1.4500 -1.5088 -0.7004
   91RES   H41938399   0.387   0.070   4.206 -1.2723 -0.0034  0.6032
   91RES   H42038400   0.338   7.640   4.126  3.1615 -0.4617  0.1084
   91RES   H42138401   0.379   7.644   4.294 -1.2192  0.3798  1.3640
   91RES   H42238402   7.502   0.151   4.530  2.4789  1.2027 -0.3733
   92RES     C138403   6.307   1.139   5.916  0.6311 -0.4579  0.2827
   92RES     C238404   6.255   1.022   5.997 -0.0568  0.5536 -0.4425
   92RES     C338405   6.105   0.988   5.967  0.8956 -0.0378  0.3327
   92RES     C438406   6.064   0.955   5.816 -0.2827 -0.5294 -0.5530
   92RES     C538407   5.911   0.952   5.789 -1.1562 -0.0804  0.1548
   92RES     C638408   5.873   0.875   5.657  0.1049 -0.3002  0.0903
   92RES     C738409   5.724   0.887   5.631  0.0682  0.4248  0.2052
   92RES     H838410   6.266   1.230   5.960 -0.3585 -1.5713  1.7311
   92RES     H938411   6.273   1.130   5.813  0.4333 -0.1182  0.3197
   92RES    H1038412   6.315   0.940   5.957 -1.7847 -0.7632 -0.4114
   92RES    H1138413   6.074   0.913   6.038  0.2070  1.4643  1.6465
   92RES    H1238414   6.047   1.078   5.990  2.6341  0.8172  1.4996
   92RES    H1338415   6.102   1.035   5.752 -0.3221 -0.9882 -1.1524
   92RES    H1438416   6.117   0.864   5.787  0.2165 -0.9502  1.5671
   92RES    H1538417   5.865   1.051   5.792 -0.5561  0.2015  0.0663
   92RES    H1638418   5.853   0.895   5.862 -1.7244  0.5611  0.2011
   92RES    H1738419   5.895   0.769   5.658  0.0019 -0.3218 -0.0726
   92RES    H1838420   5.920   0.932   5.577 -0.1852 -1.2127 -0.7290
   92RES    H1938421   5.665   0.827   5.701  1.3938  0.3948  1.3182
   92RES    H2038422   5.693   0.867   5.528  0.7508  1.4685 -0.2094
   92RES    H2138423   5.686   0.988   5.645 -0.0893  0.1336  2.0231
   92RES    H2238424   6.415   1.146   5.917  0.6579 -0.8389  0.1112
   92RES    C2338425   6.278   1.055   6.149 -0.3014 -0.0879  0.0309
   92RES    C2438426   6.428   1.059   6.196  0.3431  0.8670  0.3901
   92RES    C2538427   6.523   0.955   6.140  0.3971  0.5189 -0.1843
   92RES    C2638428   6.472   0.804   6.141  0.2441 -0.8205 -0.1046
   92RES    C2738429   6.536   0.723   6.027 -0.3384  0.2294  0.8407
   92RES    C2838430   6.693   0.715   6.032  0.5032  0.4782  0.6052
   92RES    C2938431   6.734   0.626   5.918  0.2421  0.3229  0.3715
   92RES    H3038432   6.233   1.153   6.165  0.2733  0.3611 -1.0524
   92RES    H3138433   6.230   0.977   6.209  0.7279 -1.0697 -0.3970
   92RES    H3238434   6.463   1.157   6.164 -0.7145  1.2058  0.2488
   92RES    H3338435   6.615   0.952   6.197  0.2105  0.9308  0.1383
   92RES    H3438436   6.568   0.981   6.044  0.3468 -1.0043 -0.6341
   92RES    H3538437   6.365   0.793   6.120  0.4969 -2.6575 -0.5328
   92RES    H3638438   6.483   0.756   6.237  0.4960 -0.5717 -0.0076
   92RES    H3738439   6.507   0.767   5.932  0.7787 -1.8515 -0.5121
   92RES    H3838440   6.495   0.622   6.027 -1.0754  0.5074 -1.0881
   92RES    H3938441   6.730   0.671   6.125  1.6598 -1.5656 -0.7997
   92RES    H4038442   6.748   0.809   6.022 -1.1328  1.3901 -0.0898
   92RES    H4138443   6.688   0.527   5.914 -1.0959  0.9455 -0.0135
   92RES    H4238444   6.688   0.656   5.824 -0.9789  0.6842  1.0786
   92RES    H4338445   6.841   0.617   5.900  0.3143  0.2477  0.8256
   92RES    C4438446   6.427   1.055   6.345 -0.0989 -0.0338  0.3390
   92RES    C4538447   6.355   1.166   6.430 -0.7474 -0.5077 -0.6322
   92RES    C4638448   6.320   1.110   6.573  0.2131 -0.0731  0.0088
   92RES    C4738449   6.419   1.038   6.667  0.0892 -0.2571  0.5932
   92RES    C4838450   6.354   0.964   6.787  0.0154  0.0962  0.7692
   92RES    C4938451   6.457   0.894   6.887  1.1826  0.2291 -0.9738
   92RES    C5038452   6.388   0.794   6.981 -0.3724  0.2528  0.1897
   92RES    H5138453   6.527   1.045   6.388 -0.6040 -2.2244  1.0766
   92RES    H5238454   6.369   0.967   6.374 -0.4198  0.9653  2.8553
   92RES    H5338455   6.258   1.187   6.386 -1.8051 -0.9245  1.4404
   92RES    H5438456   6.237   1.039   6.565 -2.5378  3.0091 -0.0512
   92RES    H5538457   6.276   1.193   6.628 -0.4975  0.5378 -1.4388
   92RES    H5638458   6.473   0.963   6.609  0.4019 -0.5405  1.2444
   92RES    H5738459   6.480   1.117   6.709 -1.0460  0.8582  0.1950
   92RES    H5838460   6.288   0.883   6.757 -1.3756  1.3523  0.3233
   92RES    H5938461   6.289   1.032   6.842 -1.8851 -1.4075  0.4237
   92RES    H6038462   6.506   0.967   6.950  0.4994 -0.5963  0.5411
   92RES    H6138463   6.540   0.843   6.838  2.1757 -0.8149  1.6984
   92RES    H6238464   6.302   0.846   7.023  0.1750  1.7311 -0.5020
   92RES    H6338465   6.455   0.757   7.059  0.9106  1.5625 -0.2740
   92RES    H6438466   6.343   0.707   6.933 -0.4439  0.6746 -0.5111
   92RES    C6538467   6.450   1.292   6.441  0.3336  0.3916  0.5324
   92RES    C6638468   6.371   1.419   6.460 -0.0127  0.1150  0.9815
   92RES    C6738469   6.277   1.459   6.337  0.1248  0.0182  0.9082
   92RES    C6838470   6.348   1.492   6.212 -0.1869 -0.0308  0.0227
   92RES    C6938471   6.258   1.503   6.087  0.6315  0.0783 -0.0887
   92RES    C7038472   6.334   1.553   5.967 -0.4548  0.1754  0.4872
   92RES    C7138473   6.248   1.611   5.864 -0.3704 -0.7430  0.2512
   92RES    H7238474   6.516   1.285   6.527  0.0322  1.8936  0.9147
   92RES    H7338475   6.528   1.292   6.365  0.1787  0.0625  0.3755
   92RES    H7438476   6.310   1.406   6.550 -0.8903 -1.2765  0.2016
   92RES    H7538477   6.200   1.384   6.319  0.6595 -0.6141  1.2747
   92RES    H7638478   6.229   1.552   6.369 -0.0175  0.1793  0.2396
   92RES    H7738479   6.395   1.589   6.230  0.3818 -0.2909 -0.0829
   92RES    H7838480   6.427   1.421   6.188 -0.3818 -1.0487  2.2986
   92RES    H7938481   6.215   1.407   6.058 -2.8353  1.2912  0.8158
   92RES    H8038482   6.170   1.562   6.113  1.0464  0.2469  0.9406
   92RES    H8138483   6.388   1.477   5.911 -0.4986  1.2236 -1.0032
   92RES    H8238484   6.406   1.627   6.000 -1.4684  0.7747  1.3825
   92RES    H8338485   6.190   1.699   5.891 -0.8530 -1.3784  1.3420
   92RES    H8438486   6.298   1.625   5.768  1.6579 -2.3443  1.0367
   92RES    H8538487   6.171   1.538   5.835 -2.0391  0.4962  1.4268
   92RES    C8638488   6.463   1.540   6.485 -0.3880  0.1325 -0.5437
   92RES    C8738489   6.519   1.553   6.629 -0.1607  0.4844  0.4617
   92RES    C8838490   6.634   1.654   6.638 -0.1524 -0.5840  0.2073
   92RES    C8938491   6.765   1.590   6.588  0.0136  0.3754  0.3358
   92RES    C9038492   6.881   1.687   6.597  0.2403 -0.2455 -0.1346
   92RES    C9138493   7.014   1.629   6.541  0.2207 -0.1305 -0.0678
   92RES    C9238494   7.132   1.725   6.552 -1.2805 -0.9401  0.4136
   92RES    H9338495   6.543   1.549   6.411  0.9429  0.5517  0.9217
   92RES    H9438496   6.416   1.638   6.474 -1.7616 -0.3214  1.1705
   92RES    H9538497   6.555   1.454   6.655  1.7838  1.1413  0.3362
   92RES    H9638498   6.604   1.738   6.574 -1.8888 -1.1224  0.2792
   92RES    H9738499   6.641   1.692   6.740 -2.9822  2.1724 -0.5228
   92RES    H9838500   6.775   1.501   6.650 -1.6224  0.8006  1.2549
   92RES    H9938501   6.749   1.560   6.484  1.3026  1.1910 -0.1088
   92RES   H10038502   6.898   1.711   6.702  2.5086  0.0462 -0.5466
   92RES   H10138503   6.850   1.785   6.561 -0.9519 -0.4739  0.2506
   92RES   H10238504   7.046   1.543   6.601 -0.5843  1.0826  2.1420
   92RES   H10338505   6.996   1.598   6.439 -1.9524 -2.1229  0.8866
   92RES   H10438506   7.142   1.772   6.454 -2.6508  0.7228  1.0340
   92RES   H10538507   7.225   1.671   6.564 -1.3370 -0.7334  1.8692
   92RES   H10638508   7.130   1.792   6.637 -0.1865 -0.9357  0.4416
   92RES   C10738509   6.414   1.579   6.738  0.0976  0.4258 -0.3186
   92RES   C10838510   6.323   1.705   6.736 -0.8328 -0.0002  0.4060
   92RES   C10938511   6.192   1.689   6.816 -0.4085  0.5250  0.2557
   92RES   C11038512   6.081   1.625   6.733  0.2972 -0.0307  0.1735
   92RES   C11138513   6.030   1.710   6.622 -0.3456 -0.0957  0.7851
   92RES   C11238514   5.916   1.654   6.541 -0.4173 -0.9382  0.4323
   92RES   C11338515   5.786   1.639   6.618 -0.4624 -0.7131 -0.1766
   92RES   H11438516   6.451   1.579   6.840  2.0589  1.4700 -1.0058
   92RES   H11538517   6.349   1.492   6.734  0.2664  0.3262 -0.9345
   92RES   H11638518   6.275   1.721   6.639  0.2282 -2.2492 -0.5419
   92RES   H11738519   6.138   1.780   6.840 -1.4902 -0.0667  0.1150
   92RES   H11838520   6.212   1.626   6.903 -0.7191  1.8886  1.3185
   92RES   H11938521   6.118   1.526   6.705  0.4242  0.2393 -0.6372
   92RES   H12038522   6.009   1.604   6.812  2.1565 -2.7975  1.2161
   92RES   H12138523   6.108   1.724   6.547 -3.1779  0.8690 -2.0809
   92RES   H12238524   5.998   1.808   6.655  2.5927  1.4018 -0.5977
   92RES   H12338525   5.911   1.714   6.451 -2.6007 -2.1678 -0.3212
   92RES   H12438526   5.939   1.564   6.484 -3.7874 -0.6856 -1.4954
   92RES   H12538527   5.767   1.740   6.655  0.0402  0.8084 -3.8021
   92RES   H12638528   5.705   1.588   6.567 -0.3148 -1.7554  0.6319
   92RES   H12738529   5.795   1.579   6.708  0.6690  1.3972  1.1685
   92RES   C12838530   6.392   1.840   6.782  0.5574 -0.3161  0.2208
   92RES   C12938531   6.407   1.943   6.669 -0.0751  0.8061  0.1486
   92RES   C13038532   6.501   2.064   6.699 -0.2327 -0.2843  0.3228
   92RES   C13138533   6.630   2.029   6.773 -1.2390 -0.0980  0.7138
   92RES   C13238534   6.748   2.124   6.731 -0.4050 -0.1129  0.2488
   92RES   C13338535   6.802   2.110   6.586 -0.2285 -0.3770  0.9338
   92RES   C13438536   6.928   2.192   6.568 -0.2423  0.4692 -0.2855
   92RES   H13538537   6.343   1.883   6.869  0.3045 -0.8171  0.3288
   92RES   H13638538   6.495   1.823   6.815  0.7689 -2.1725 -1.3367
   92RES   H13738539   6.443   1.896   6.578  1.4572  0.2404  1.0086
   92RES   H13838540   6.446   2.138   6.759  0.8504  1.0836 -0.3424
   92RES   H13938541   6.528   2.107   6.603 -0.2049 -2.2361 -0.5549
   92RES   H14038542   6.655   1.928   6.738 -0.1324 -0.3716  2.2754
   92RES   H14138543   6.621   2.030   6.881 -2.1843 -1.6526  0.6637
   92RES   H14238544   6.836   2.109   6.793 -0.9876  1.3380  1.4682
   92RES   H14338545   6.723   2.228   6.753  2.1525  1.1506 -2.5645
   92RES   H14438546   6.727   2.133   6.510  0.1198 -0.5493  0.5369
   92RES   H14538547   6.820   2.003   6.584 -2.4246 -0.7460 -2.3944
   92RES   H14638548   6.897   2.297   6.561  1.0600  0.8638 -0.2846
   92RES   H14738549   6.984   2.182   6.475  0.3229 -1.2099  0.2212
   92RES   H14838550   6.989   2.180   6.658  0.4729 -0.9763 -0.9610
   92RES   C14938551   6.266   2.002   6.650 -0.1879  0.8758 -0.3298
   92RES   C15038552   6.243   2.062   6.505 -0.7518  0.6217 -0.5225
   92RES   C15138553   6.143   2.183   6.507  0.3329 -0.1302  0.4428
   92RES   C15238554   6.195   2.304   6.586 -0.6113  0.7940 -0.0035
   92RES   C15338555   6.107   2.430   6.581  0.4605  0.0185  0.3236
   92RES   C15438556   6.105   2.508   6.452 -0.2408 -0.4949 -0.3623
   92RES   C15538557   6.007   2.476   6.339 -0.3096  0.2836 -0.0667
   92RES   H15638558   6.185   1.933   6.675 -0.3239 -0.0503 -3.1215
   92RES   H15738559   6.239   2.071   6.730 -1.2282 -1.6093  1.5315
   92RES   H15838560   6.339   2.106   6.479  0.3950 -1.2315  0.4965
   92RES   H15938561   6.125   2.202   6.401 -0.2400  0.7733  0.6975
   92RES   H16038562   6.048   2.150   6.548 -0.2449  0.7867 -0.1401
   92RES   H16138563   6.286   2.332   6.533 -0.3251  2.3370  1.2681
   92RES   H16238564   6.223   2.275   6.687 -0.9245 -0.6077 -0.3150
   92RES   H16338565   6.151   2.491   6.660 -2.0290 -0.5797  2.2558
   92RES   H16438566   6.004   2.415   6.614 -0.2191  0.9380 -1.3313
   92RES   H16538567   6.205   2.501   6.411  0.5125  2.4346  0.8554
   92RES   H16638568   6.102   2.612   6.484 -2.1149 -0.5005 -0.4396
   92RES   H16738569   6.027   2.528   6.245 -0.9069  0.3181 -0.1745
   92RES   H16838570   5.905   2.500   6.366 -1.0518  0.9908 -3.3084
   92RES   H16938571   6.025   2.371   6.317  1.7863  0.5544  0.2367
   92RES   C17038572   6.215   1.952   6.400  1.0489 -0.7495  0.0699
   92RES   C17138573   6.249   1.987   6.258 -0.1090  0.0905 -0.4598
   92RES   C17238574   6.401   2.010   6.236 -0.5759  0.5134 -0.7271
   92RES   C17338575   6.491   1.890   6.258  0.4609  0.0620  0.0724
   92RES   C17438576   6.640   1.929   6.235 -0.4121  0.3141 -0.6185
   92RES   C17538577   6.736   1.823   6.281 -0.1125 -0.2658  0.8403
   92RES   C17638578   6.887   1.865   6.268  0.0199  0.0296  0.9103
   92RES   H17738579   6.111   1.923   6.415  0.9233 -0.9809 -1.1728
   92RES   H17838580   6.267   1.862   6.431  0.3977 -0.8709  0.8083
   92RES   H17938581   6.199   2.084   6.254 -3.3509 -1.3281  2.1185
   92RES   H18038582   6.446   2.085   6.301  0.5030  0.8174 -1.7887
   92RES   H18138583   6.409   2.049   6.134 -3.2062 -0.6637 -1.4160
   92RES   H18238584   6.469   1.816   6.181  0.2166 -1.5517  1.6594
   92RES   H18338585   6.485   1.838   6.354  0.8060  1.9033  1.1160
   92RES   H18438586   6.663   2.018   6.293  0.7800 -1.5011  1.8005
   92RES   H18538587   6.654   1.961   6.132 -1.3633  0.1003 -0.8211
   92RES   H18638588   6.720   1.734   6.220  4.5243 -0.8504  0.2620
   92RES   H18738589   6.718   1.797   6.385 -2.6433  0.7305  0.6842
   92RES   H18838590   6.952   1.778   6.283  1.3501  0.5439 -1.6852
   92RES   H18938591   6.911   1.932   6.350  1.2324  2.2211 -1.2057
   92RES   H19038592   6.913   1.913   6.174  2.4544 -1.8761  0.5482
   92RES   C19138593   6.192   1.894   6.154  0.1374  0.1169 -0.3616
   92RES   C19238594   6.062   1.944   6.077 -0.3112 -0.1702 -0.7832
   92RES   C19338595   5.949   1.928   6.180 -0.1835  0.2029  0.6915
   92RES   C19438596   5.823   1.853   6.128 -0.0130 -0.0305 -0.6050
   92RES   C19538597   5.715   1.831   6.239 -0.0671  0.4556  0.4731
   92RES   C19638598   5.598   1.747   6.189 -0.6711 -0.6946  0.5637
   92RES   C19738599   5.490   1.723   6.303 -0.9622  0.3861 -0.5207
   92RES   H19838600   6.180   1.793   6.194 -1.3973  0.7038  0.7238
   92RES   H19938601   6.267   1.875   6.077  0.3929 -2.3350  0.4697
   92RES   H20038602   6.045   1.874   5.995  1.2877 -1.9083  0.2953
   92RES   H20138603   5.914   2.025   6.216  1.2568 -0.1853  3.2873
   92RES   H20238604   5.975   1.865   6.265  0.3037  2.7911  2.5131
   92RES   H20338605   5.852   1.756   6.089  0.0189  0.0734 -0.8466
   92RES   H20438606   5.782   1.909   6.043  0.8068 -0.2785 -1.1696
   92RES   H20538607   5.755   1.789   6.331  0.1189  0.4838  0.4051
   92RES   H20638608   5.672   1.928   6.264  2.5271  1.3633  1.5653
   92RES   H20738609   5.639   1.651   6.158  0.6634 -0.8791  2.7351
   92RES   H20838610   5.553   1.803   6.107 -1.0908 -1.8854 -0.0223
   92RES   H20938611   5.523   1.659   6.384 -0.9415 -0.2373 -1.0184
   92RES   H21038612   5.411   1.659   6.264  1.1881 -1.5161 -1.8789
   92RES   H21138613   5.445   1.815   6.342  1.7880  1.0477  1.2710
   92RES   C21238614   6.073   2.082   6.008  0.0852  0.0135 -0.0988
   92RES   C21338615   5.983   2.098   5.880 -0.5233  0.1124 -0.0309
   92RES   C21438616   5.960   2.244   5.837 -0.4076  0.2073 -0.4061
   92RES   C21538617   5.843   2.308   5.923 -0.4228 -0.5473 -0.4495
   92RES   C21638618   5.843   2.465   5.900 -0.5765  0.5569 -0.6776
   92RES   C21738619   5.719   2.530   5.964  0.1150  0.1394  0.2514
   92RES   C21838620   5.694   2.679   5.931  0.4332 -0.0177  0.7659
   92RES   H21938621   6.174   2.078   5.968 -0.7553 -0.0938 -2.3181
   92RES   H22038622   6.048   2.156   6.084  2.4534 -0.3552  1.0978
   92RES   H22138623   5.886   2.050   5.888 -0.7754  0.3558 -1.4912
   92RES   H22238624   6.053   2.300   5.846 -0.7719  0.7546  0.0486
   92RES   H22338625   5.931   2.254   5.733 -0.0425  0.4936 -0.4804
   92RES   H22438626   5.833   2.274   6.026  1.7584  0.5741  0.1612
   92RES   H22538627   5.747   2.276   5.882  0.0762 -0.7493 -1.4666
   92RES   H22638628   5.940   2.505   5.931 -1.0245  1.7021 -0.7333
   92RES   H22738629   5.833   2.487   5.794 -1.0614 -1.0855 -0.9928
   92RES   H22838630   5.625   2.482   5.936  0.1217  0.4033 -0.2230
   92RES   H22938631   5.722   2.518   6.073 -0.2529  0.1792  0.2679
   92RES   H23038632   5.599   2.729   5.950  0.7060  1.3089 -1.1854
   92RES   H23138633   5.717   2.705   5.827  1.0786  0.1180  0.9395
   92RES   H23238634   5.767   2.734   5.991  2.7039 -0.0165 -1.8947
   92RES   C23338635   6.062   2.027   5.770  0.1694  0.1407  0.4315
   92RES   C23438636   5.977   1.976   5.651 -0.6848  0.1320  0.6446
   92RES   C23538637   6.050   1.977   5.519 -0.7922  0.2505 -0.0972
   92RES   C23638638   6.072   2.123   5.463 -0.7689 -0.2052  1.0837
   92RES   C23738639   6.203   2.143   5.386  0.7482  0.4360  0.4388
   92RES   C23838640   6.199   2.084   5.241  0.4939  0.3537  0.6667
   92RES   C23938641   6.214   1.938   5.235  0.1391 -0.2269  0.5659
   92RES   H24038642   6.117   1.939   5.803 -0.8928 -0.3969  0.7684
   92RES   H24138643   6.144   2.096   5.747 -1.9342  2.2438 -1.0079
   92RES   H24238644   5.892   2.041   5.633 -1.7001 -1.0484  1.0802
   92RES   H24338645   6.015   1.896   5.455  1.9481 -1.6665  0.7369
   92RES   H24438646   6.146   1.936   5.549 -0.7806 -0.3365 -0.9380
   92RES   H24538647   6.080   2.196   5.543  0.7099  0.6489  0.1861
   92RES   H24638648   5.992   2.158   5.398  0.7594  2.3872  0.5245
   92RES   H24738649   6.287   2.109   5.448  1.1079  1.2091  0.3776
   92RES   H24838650   6.218   2.250   5.379 -0.9775  0.5811 -1.3291
   92RES   H24938651   6.105   2.113   5.194  0.9045 -0.0938 -0.4372
   92RES   H25038652   6.290   2.126   5.198 -0.2560  1.7183  0.3749
   92RES   H25138653   6.270   1.901   5.321 -0.6442 -0.4107  0.9934
   92RES   H25238654   6.116   1.892   5.238  0.6323 -1.1886  1.9210
   92RES   H25338655   6.273   1.895   5.153 -1.4527  1.4312 -1.5021
   92RES   C25438656   5.914   1.843   5.687  0.1131  0.1749  0.8227
   92RES   C25538657   5.813   1.787   5.583  0.4489 -0.5941  0.3658
   92RES   C25638658   5.702   1.889   5.547 -0.5443  0.0480 -0.4933
   92RES   C25738659   5.614   1.937   5.663 -0.2703  0.3112 -0.2054
   92RES   C25838660   5.519   2.057   5.643  0.5786 -0.4056  0.3609
   92RES   C25938661   5.447   2.095   5.777  0.2024 -0.4667 -0.3227
   92RES   C26038662   5.344   2.205   5.741 -0.1989  0.1365 -0.2079
   92RES   H26138663   5.865   1.841   5.784  0.5757 -0.3146  1.0470
   92RES   H26238664   5.990   1.766   5.697 -0.6611 -0.5176  1.4749
   92RES   H26338665   5.848   1.760   5.483  0.4087  1.7461 -0.3040
   92RES   H26438666   5.630   1.840   5.482 -1.4921  0.6561  0.0818
   92RES   H26538667   5.735   1.978   5.493 -0.8681  0.6845  0.3419
   92RES   H26638668   5.568   1.849   5.707 -1.1068  1.1585  0.6272
   92RES   H26738669   5.679   1.971   5.744 -2.2097  1.0439  1.0896
   92RES   H26838670   5.445   2.037   5.565 -0.1863 -0.4155  1.0743
   92RES   H26938671   5.569   2.145   5.602  0.4385  0.0564  1.1567
   92RES   H27038672   5.395   2.010   5.821 -2.2023  1.9736  1.7176
   92RES   H27138673   5.522   2.134   5.846  2.7109 -1.3775 -2.4615
   92RES   H27238674   5.300   2.169   5.648 -0.1499 -0.6848  0.0812
   92RES   H27338675   5.256   2.208   5.805 -0.1549  1.4498 -0.1987
   92RES   H27438676   5.376   2.304   5.708 -0.8968 -0.1634 -1.8461
   92RES   C27538677   5.746   1.657   5.635  1.0218  1.0843  0.0622
   92RES   C27638678   5.837   1.533   5.655 -0.3572 -0.0882  0.6821
   92RES   C27738679   5.921   1.494   5.523  0.5521  0.8107 -0.7840
   92RES   C27838680   6.050   1.433   5.549  0.3264  0.4087 -0.6600
   92RES   C27938681   6.147   1.447   5.431 -0.0262 -0.0790  0.3439
   92RES   C28038682   6.277   1.368   5.448 -0.3296 -0.1220 -0.4881
   92RES   C28138683   6.371   1.429   5.552 -0.2358  0.2250  0.8152
   92RES   H28238684   5.657   1.634   5.577 -0.1769  0.4515  2.0776
   92RES   H28338685   5.707   1.675   5.736  1.4435 -1.6089  0.7467
   92RES   H28438686   5.913   1.548   5.732 -1.4876 -1.3357  2.0968
   92RES   H28538687   5.868   1.423   5.459 -1.4084  0.4895  1.1184
   92RES   H28638688   5.941   1.578   5.458  2.6859  0.5338 -0.4964
   92RES   H28738689   6.037   1.326   5.567  1.9778  0.2200 -0.4688
   92RES   H28838690   6.107   1.476   5.632  0.8747  1.3746 -1.5294
   92RES   H28938691   6.160   1.553   5.407 -1.9645  0.0093 -0.3497
   92RES   H29038692   6.093   1.405   5.347 -0.4644  2.9460 -0.9679
   92RES   H29138693   6.262   1.265   5.480 -1.5720 -0.2588 -1.5050
   92RES   H29238694   6.323   1.371   5.349  0.4681  1.4456 -0.1011
   92RES   H29338695   6.475   1.414   5.525 -0.2889  0.5016  0.4392
   92RES   H29438696   6.343   1.408   5.655 -0.8980  0.7862  0.7548
   92RES   H29538697   6.363   1.538   5.548 -0.5967  0.1361 -1.3884
   92RES   C29638698   5.746   1.417   5.684  0.6628  0.4414  0.5482
   92RES   C29738699   5.702   1.411   5.832  0.0031 -0.3698 -0.4260
   92RES   C29838700   5.807   1.360   5.921 -0.0358  0.1000 -0.1536
   92RES   C29938701   5.834   1.457   6.041  0.0788  0.3771 -0.2181
   92RES   C30038702   5.922   1.396   6.149 -0.1044  0.3963 -0.0470
   92RES   C30138703   5.846   1.297   6.248 -0.2354  0.2982  0.1106
   92RES   C30238704   5.936   1.242   6.358  0.1347 -0.3284 -0.3546
   92RES   H30338705   5.658   1.416   5.620  0.5582 -1.7878  0.6766
   92RES   H30438706   5.799   1.323   5.667 -2.8776 -1.4739 -0.2741
   92RES   H30538707   5.682   1.514   5.862 -2.5829 -0.9864  0.0989
   92RES   H30638708   5.780   1.262   5.962 -0.2862 -0.4393 -1.5803
   92RES   H30738709   5.905   1.344   5.876  1.0408  3.6972  0.7866
   92RES   H30838710   5.741   1.498   6.080 -0.1271  0.1672 -0.4844
   92RES   H30938711   5.891   1.535   5.991 -1.9606  1.1988 -1.3598
   92RES   H31038712   5.957   1.471   6.220 -1.9652 -1.2744  2.7021
   92RES   H31138713   6.011   1.351   6.106  1.6933  0.8071  3.0908
   92RES   H31238714   5.770   1.358   6.298 -0.5703 -0.0015 -0.0340
   92RES   H31338715   5.795   1.214   6.200 -0.7662  1.0178 -0.5769
   92RES   H31438716   6.016   1.179   6.320  0.7370  1.5142 -2.2793
   92RES   H31538717   5.985   1.327   6.406  1.2769 -1.0066 -0.3272
   92RES   H31638718   5.876   1.187   6.431 -1.3672 -1.0987 -2.1233
   92RES   C31738719   5.577   1.323   5.837  0.8288 -0.1871 -0.3823
   92RES   C31838720   5.509   1.309   5.982  1.1715 -0.7415 -0.0081
   92RES   C31938721   5.371   1.382   5.985 -0.4780  0.1301  0.1349
   92RES   C32038722   5.373   1.529   5.934 -0.2756 -0.0522  0.3499
   92RES   C32138723   5.241   1.579   5.877 -0.8938 -0.2197 -0.0950
   92RES   C32238724   5.262   1.721   5.834 -0.3099  0.2351  0.2387
   92RES   C32338725   5.132   1.803   5.837  0.1369  0.0639 -0.3363
   92RES   H32438726   5.599   1.224   5.798 -1.3858 -0.4617 -0.9981
   92RES   H32538727   5.503   1.348   5.761  1.3602 -2.4672 -1.6673
   92RES   H32638728   5.571   1.362   6.054  0.8943 -1.2488  0.6025
   92RES   H32738729   5.330   1.384   6.086  2.9751  0.4805  1.6158
   92RES   H32838730   5.309   1.318   5.923 -0.7545  0.3863  0.1436
   92RES   H32938731   5.448   1.540   5.857 -0.4685 -0.0183  0.1657
   92RES   H33038732   5.415   1.585   6.018  1.1350 -1.4265  0.5778
   92RES   H33138733   5.163   1.562   5.951 -0.6317 -0.0427  0.2211
   92RES   H33238734   5.210   1.521   5.790 -0.6180 -2.1342  1.0657
   92RES   H33338735   5.316   1.735   5.741  0.2856  1.5005  0.7619
   92RES   H33438736   5.319   1.774   5.910  0.6954  1.9101 -1.6627
   92RES   H33538737   5.147   1.904   5.800  0.1943  0.3490  0.4601
   92RES   H33638738   5.086   1.794   5.935  0.7542 -0.6680 -0.1075
   92RES   H33738739   5.059   1.761   5.768 -0.8292 -1.4278  1.5439
   92RES   C33838740   5.500   1.165   6.030 -0.1001 -0.0730 -0.6432
   92RES   C33938741   5.424   1.135   6.164  0.3336 -0.7658 -0.7035
   92RES   C34038742   5.486   1.200   6.288  0.0429 -0.6306 -0.5715
   92RES   C34138743   5.385   1.234   6.401 -0.3682  0.0651  0.6569
   92RES   C34238744   5.444   1.328   6.508 -0.7600 -0.1188 -0.8739
   92RES   C34338745   5.346   1.342   6.634 -0.7293  0.6302 -0.7654
   92RES   C34438746   5.403   1.420   6.747  0.2047 -0.4425 -0.0240
   92RES   H34538747   5.596   1.115   6.027  0.4332  0.8694  0.5308
   92RES   H34638748   5.450   1.103   5.954 -0.8173  0.1172 -0.3294
   92RES   H34738749   5.324   1.176   6.154  0.4424 -0.4238 -0.4144
   92RES   H34838750   5.565   1.135   6.326 -0.4190  0.9632  3.4056
   92RES   H34938751   5.536   1.293   6.260 -0.5787  0.2545  1.1804
   92RES   H35038752   5.355   1.139   6.446  0.7276 -0.4630  0.2813
   92RES   H35138753   5.295   1.282   6.361 -0.1911  1.2917  1.7336
   92RES   H35238754   5.539   1.290   6.545 -0.8548  0.0291 -0.4779
   92RES   H35338755   5.471   1.429   6.480 -0.6135  0.5904  1.6896
   92RES   H35438756   5.256   1.390   6.594 -1.9516 -0.8729  0.1543
   92RES   H35538757   5.334   1.240   6.668  0.0762  1.4125  1.9946
   92RES   H35638758   5.322   1.432   6.819 -1.3775  0.2406 -1.8601
   92RES   H35738759   5.445   1.513   6.709  1.2146 -0.8542  0.0590
   92RES   H35838760   5.496   1.375   6.782 -0.2635  0.0207  1.9179
   92RES   C35938761   5.423   0.979   6.186  0.6619  0.7034  0.7347
   92RES   C36038762   5.321   0.897   6.099  0.0002 -0.5317 -0.3203
   92RES   C36138763   5.367   0.753   6.078 -0.4422  0.0408  0.2080
   92RES   C36238764   5.492   0.723   5.985 -0.6465  0.5686  0.1772
   92RES   C36338765   5.508   0.569   5.971  0.0434  0.2235  0.2855
   92RES   C36438766   5.652   0.527   5.997 -1.2544 -1.0569  0.5050
   92RES   C36538767   5.654   0.371   6.007  0.0664 -0.1206  0.1674
   92RES   H36638768   5.381   0.964   6.285 -0.3983 -1.9662 -0.0740
   92RES   H36738769   5.524   0.937   6.189  0.9672  1.4374  0.8939
   92RES   H36838770   5.320   0.941   5.999 -1.5079  1.1222  0.4026
   92RES   H36938771   5.384   0.712   6.178  1.6186 -2.3465 -1.0636
   92RES   H37038772   5.283   0.702   6.030 -0.7962  1.0664 -0.2627
   92RES   H37138773   5.481   0.784   5.895 -0.6086  1.2995  0.6641
   92RES   H37238774   5.581   0.764   6.033 -0.7099  3.7144 -2.2185
   92RES   H37338775   5.441   0.517   6.040 -0.5718  1.0935  0.3559
   92RES   H37438776   5.478   0.544   5.870  2.5636  0.5171 -0.5658
   92RES   H37538777   5.713   0.565   5.914  1.1425 -0.0475  2.6376
   92RES   H37638778   5.700   0.559   6.090 -2.8378 -0.1816  1.0354
   92RES   H37738779   5.574   0.340   6.074  1.0506 -0.0354  1.3981
   92RES   H37838780   5.652   0.310   5.916 -0.7778  0.8998 -0.5047
   92RES   H37938781   5.742   0.337   6.062  1.8599  2.1078 -1.2181
   92RES   C38038782   5.168   0.893   6.146 -0.1974 -0.1839  0.0560
   92RES   C38138783   5.062   0.886   6.028  0.0900 -0.9184 -0.1146
   92RES   C38238784   4.964   0.765   6.054 -0.4297 -0.9062 -0.0655
   92RES   C38338785   4.866   0.790   6.171 -0.1849  0.3300  0.1491
   92RES   C38438786   4.795   0.665   6.215 -0.4166  0.6258  0.3526
   92RES   C38538787   4.874   0.559   6.286 -0.1630  0.0588 -0.2858
   92RES   C38638788   4.780   0.462   6.355  0.1101 -0.1688 -0.1615
   92RES   H38738789   5.164   0.819   6.226 -0.3937  0.1142  0.3270
   92RES   H38838790   5.142   0.984   6.202  0.0382 -0.1049  0.0360
   92RES   H38938791   5.117   0.849   5.941  1.5466 -2.4264  1.4058
   92RES   H39038792   5.022   0.676   6.077  0.1692 -0.9871 -1.8495
   92RES   H39138793   4.909   0.753   5.961  1.0203  0.3466 -1.0992
   92RES   H39238794   4.920   0.839   6.252  2.8942 -1.5358 -0.7114
   92RES   H39338795   4.786   0.858   6.140 -1.7647 -0.8361  1.5762
   92RES   H39438796   4.718   0.706   6.280 -0.5795  1.1767 -0.1841
   92RES   H39538797   4.736   0.614   6.139 -1.6709  2.9341 -0.2440
   92RES   H39638798   4.929   0.612   6.364  0.4222  0.3094 -0.8671
   92RES   H39738799   4.938   0.499   6.220 -1.1221 -1.1343 -0.1469
   92RES   H39838800   4.839   0.381   6.398 -1.1979 -0.0244  2.0193
   92RES   H39938801   4.715   0.407   6.286 -0.7921 -0.2952  0.7658
   92RES   H40038802   4.726   0.503   6.441 -0.8049 -0.6075 -0.5188
   92RES   C40138803   4.986   1.017   5.996 -0.0087  0.2209  0.2630
   92RES   C40238804   5.077   1.131   5.933 -0.8391  0.2865 -0.3896
   92RES   C40338805   4.997   1.230   5.840 -0.1536 -0.0656 -0.3070
   92RES   C40438806   4.917   1.321   5.924  0.2064 -0.2817 -0.1906
   92RES   C40538807   4.810   1.405   5.839  0.0364 -0.1939  0.1843
   92RES   C40638808   4.872   1.548   5.819 -0.1223 -0.3122  0.1294
   92RES   C40738809   4.795   1.631   5.726  0.0127  0.5457  0.3191
   92RES   H40838810   4.939   1.062   6.084  0.3145  1.0148  0.0357
   92RES   H40938811   4.911   1.001   5.918  1.8049 -2.4035 -1.0047
   92RES   H41038812   5.144   1.081   5.862 -0.5919 -1.4786  1.0494
   92RES   H41138813   4.930   1.176   5.772  1.1558 -1.6998 -0.3251
   92RES   H41238814   5.060   1.289   5.774  0.1923  2.2595  2.0462
   92RES   H41338815   4.981   1.373   5.995  0.1513 -1.6320  0.8702
   92RES   H41438816   4.847   1.260   5.981  0.0257 -0.8341 -0.9922
   92RES   H41538817   4.782   1.367   5.741  0.4360 -2.2084  0.8309
   92RES   H41638818   4.718   1.415   5.898  1.0258 -1.1886  1.9614
   92RES   H41738819   4.899   1.597   5.913  1.0965  1.1302 -0.9394
   92RES   H41838820   4.965   1.513   5.773 -0.1993 -1.7090  0.9772
   92RES   H41938821   4.819   1.588   5.629 -0.3561 -1.8736  1.2626
   92RES   H42038822   4.838   1.730   5.739  3.1835 -0.5550 -1.1313
   92RES   H42138823   4.691   1.637   5.755  0.1454  1.1973  0.6713
   92RES   H42238824   5.142   1.191   5.997 -0.6052  0.6507 -0.9598
   93RES     C138825   7.319   0.705   4.686 -0.0990 -0.6783 -0.5179
   93RES     C238826   7.371   0.665   4.552 -1.1626  0.4326  0.0058
   93RES     C338827   7.255   0.613   4.457  0.1592  0.2004 -0.7387
   93RES     C438828   7.172   0.730   4.401  0.5139 -0.2645 -0.2973
   93RES     C538829   7.089   0.685   4.275 -0.3936  0.6146 -0.2374
   93RES     C638830   6.996   0.801   4.225 -0.3795 -0.1295  0.5755
   93RES     C738831   6.900   0.747   4.116 -0.2648  0.4829  0.0548
   93RES     H838832   7.389   0.750   4.756 -0.7902 -0.6127  0.1466
   93RES     H938833   7.286   0.610   4.729  2.3020 -0.2142  2.4860
   93RES    H1038834   7.416   0.755   4.509  1.4910 -0.7939  0.1382
   93RES    H1138835   7.295   0.561   4.370 -1.2587 -0.0825 -1.2278
   93RES    H1238836   7.199   0.530   4.500  1.7210 -0.8596 -0.6862
   93RES    H1338837   7.108   0.777   4.476 -1.4666 -2.1593 -0.7639
   93RES    H1438838   7.237   0.812   4.370 -0.1483  0.8816  1.2691
   93RES    H1538839   7.027   0.597   4.296  1.2054 -0.1077  1.6220
   93RES    H1638840   7.157   0.652   4.196 -1.4805 -1.0635 -0.5044
   93RES    H1738841   7.062   0.871   4.174 -0.1129 -0.1399  0.9055
   93RES    H1838842   6.937   0.858   4.296 -0.6302 -2.0000  1.9139
   93RES    H1938843   6.959   0.706   4.034  0.1473  2.1389 -0.4887
   93RES    H2038844   6.837   0.824   4.071 -1.8934 -0.5782  0.4807
   93RES    H2138845   6.831   0.674   4.157  0.7185 -0.3256  0.3007
   93RES    H2238846   7.237   0.776   4.676  1.2698  1.2091  1.2193
   93RES    C2338847   7.483   0.559   4.551 -0.2928 -0.4074  0.0493
   93RES    C2438848   7.618   0.592   4.626 -0.3468  0.2797  0.2668
   93RES    C2538849   7.680   0.723   4.580 -0.1530 -0.3638 -0.1072
   93RES    C2638850   7.696   0.759   4.433 -0.4325  0.5906  0.6628
   93RES    C2738851   0.061   0.878   4.404 -0.9381 -0.0412  0.1323
   93RES    C2838852   0.211   0.867   4.451 -0.4795  1.6298 -0.0959
   93RES    C2938853   0.290   0.996   4.438  0.4032  0.0159  0.4586
   93RES    H3038854   7.447   0.474   4.608 -0.5613 -0.1771  0.2227
   93RES    H3138855   7.511   0.519   4.453  0.0881 -3.3819  1.3241
   93RES    H3238856   7.599   0.605   4.732  0.2883 -3.3693  0.9015
   93RES    H3338857   0.047   0.738   4.635  0.2158  1.6225 -1.2348
   93RES    H3438858   7.621   0.805   4.621 -0.3960  1.1711 -3.3696
   93RES    H3538859   7.599   0.761   4.382  0.1860 -1.9047 -0.6932
   93RES    H3638860   0.020   0.681   4.376 -0.7913  1.4101 -0.8151
   93RES    H3738861   0.034   0.961   4.469  1.8996  1.3151 -0.3449
   93RES    H3838862   0.050   0.915   4.302  1.3655  0.6727  0.1019
   93RES    H3938863   0.271   0.801   4.388 -1.9335  0.4739 -0.2832
   93RES    H4038864   0.215   0.835   4.555 -0.0658 -1.7089 -1.1047
   93RES    H4138865   0.327   1.015   4.337  0.4733 -0.0821  0.4662
   93RES    H4238866   0.239   1.085   4.475  0.9536  1.3048 -1.8186
   93RES    H4338867   0.366   0.974   4.513 -1.7894  0.5407  2.9106
   93RES    C4438868   7.721   0.477   4.598 -0.5082  0.2502 -0.9371
   93RES    C4538869   0.140   0.492   4.663  0.3505 -0.0270  0.2557
   93RES    C4638870   0.121   0.463   4.818 -0.3566  0.6811  0.2164
   93RES    C4738871   0.178   0.580   4.901  0.2952 -0.6142 -0.4897
   93RES    C4838872   0.205   0.553   5.052 -0.1658  0.3772  0.0708
   93RES    C4938873   0.079   0.512   5.129 -0.2235 -0.5786  0.0409
   93RES    C5038874   0.090   0.514   5.285  0.1937 -0.2358  0.5851
   93RES    H5138875   0.002   0.464   4.490  1.4663  1.0790 -0.9126
   93RES    H5238876   7.678   0.384   4.636 -0.0929  0.2266 -0.5188
   93RES    H5338877   0.173   0.596   4.658 -0.8135  0.4125  1.4022
   93RES    H5438878   0.162   0.367   4.848  0.9298  1.2033  0.1547
   93RES    H5538879   0.015   0.450   4.838 -0.2062  0.4766  0.9036
   93RES    H5638880   0.272   0.613   4.858  0.4837  0.1048  0.4797
   93RES    H5738881   0.108   0.660   4.877  1.3266  1.1286  2.1736
   93RES    H5838882   0.251   0.642   5.094  0.4919 -0.7786  1.8583
   93RES    H5938883   0.271   0.467   5.050 -0.8692 -0.1909  0.6107
   93RES    H6038884   0.035   0.418   5.093 -2.8564  0.4289  0.5161
   93RES    H6138885   7.725   0.580   5.103  1.6811  1.7306  0.0171
   93RES    H6238886   7.718   0.501   5.329  0.2466 -1.0749  0.4696
   93RES    H6338887   0.124   0.614   5.310  1.8275 -0.5281 -0.3700
   93RES    H6438888   0.159   0.436   5.318 -0.8405 -0.6146  1.8966
   93RES    C6538889   0.245   0.399   4.597  0.1097 -0.2190  0.0910
   93RES    C6638890   0.385   0.420   4.659  0.1161 -0.2694  0.4767
   93RES    C6738891   0.446   0.556   4.614 -0.0889  0.7272 -0.3537
   93RES    C6838892   0.560   0.605   4.701  0.6417  0.7395  0.7643
   93RES    C6938893   0.588   0.760   4.701 -0.2458 -0.1387 -0.5693
   93RES    C7038894   0.638   0.818   4.831 -0.0937  0.4544 -0.2955
   93RES    C7138895   0.665   0.964   4.848  0.1662 -0.2347 -0.5999
   93RES    H7238896   0.217   0.295   4.614 -1.0753  0.1839  0.7080
   93RES    H7338897   0.246   0.421   4.491  0.6906  1.6140  0.4565
   93RES    H7438898   0.377   0.422   4.767 -0.5426  0.6382  0.4149
   93RES    H7538899   0.480   0.553   4.511 -0.9995  0.8460 -0.6556
   93RES    H7638900   0.376   0.639   4.604  1.1300  1.3730 -4.5343
   93RES    H7738901   0.547   0.584   4.808  2.1261 -0.1554  0.7849
   93RES    H7838902   0.651   0.549   4.679 -0.2272 -1.0534  1.6046
   93RES    H7938903   0.659   0.793   4.625  1.7151 -0.4143  1.1184
   93RES    H8038904   0.501   0.815   4.664  1.4179  1.2122 -2.6286
   93RES    H8138905   0.734   0.769   4.849 -1.2266 -1.5485  0.3910
   93RES    H8238906   0.567   0.788   4.907 -1.9414 -0.1387 -2.2366
   93RES    H8338907   0.742   0.983   4.923 -1.0781  0.3284  0.5627
   93RES    H8438908   0.690   1.000   4.748 -0.5602  0.1354 -0.6543
   93RES    H8538909   0.573   1.017   4.875 -0.1336 -0.0549 -1.9213
   93RES    C8638910   0.480   0.307   4.616 -0.0359 -0.3193 -0.4802
   93RES    C8738911   0.453   0.168   4.678 -0.8519 -0.2632  0.6287
   93RES    C8838912   0.531   0.060   4.606  0.2816  0.6624 -0.2881
   93RES    C8938913   0.685   0.078   4.613 -0.7819  0.3245 -0.2918
   93RES    C9038914   0.754   7.683   4.546  0.2488 -0.8154  0.0872
   93RES    C9138915   0.906   7.697   4.539  0.7783 -0.2767 -0.2842
   93RES    C9238916   0.975   7.580   4.465 -0.0811 -0.2628  0.4665
   93RES    H9338917   0.465   0.307   4.508 -4.1908  0.5246 -0.0095
   93RES    H9438918   0.579   0.340   4.647  0.6386 -2.7865  0.0752
   93RES    H9538919   0.350   0.141   4.654 -0.2984  0.6173 -2.9375
   93RES    H9638920   0.507   7.683   4.630 -0.4216  0.3495 -2.2280
   93RES    H9738921   0.499   0.079   4.503 -0.3349 -1.7559 -0.5802
   93RES    H9838922   0.721   0.155   4.546  0.2616 -0.4325 -0.6133
   93RES    H9938923   0.721   0.095   4.715  1.6004 -0.5348 -0.9541
   93RES   H10038924   0.708   7.656   4.452 -1.3618 -0.6821  0.8302
   93RES   H10138925   0.733   7.597   4.610  1.9994 -0.4440  1.1956
   93RES   H10238926   0.934   0.069   4.501 -1.8911  0.8220  0.5034
   93RES   H10338927   0.933   7.694   4.644 -1.5186 -0.2880  0.3285
   93RES   H10438928   1.079   7.562   4.491 -0.5409 -1.6795  1.4528
   93RES   H10538929   0.960   7.589   4.358  0.7151  0.3820  0.4076
   93RES   H10638930   0.935   7.486   4.505  1.8718 -1.6119 -0.6457
   93RES   C10738931   0.473   0.164   4.830 -0.7418  0.8951 -0.0378
   93RES   C10838932   0.368   0.078   4.902  0.7693 -0.2362 -0.5699
   93RES   C10938933   0.378   7.653   4.863 -0.0914 -0.2779 -0.8129
   93RES   C11038934   0.512   7.579   4.894 -0.7834 -0.3255  0.3029
   93RES   C11138935   0.512   7.440   4.829 -0.1279  0.1044 -0.0090
   93RES   C11238936   0.620   7.346   4.881 -0.2423 -0.0190 -0.0493
   93RES   C11338937   0.756   7.378   4.806 -0.1120 -0.2202  0.3116
   93RES   H11438938   0.467   0.267   4.867 -1.8453 -0.4447  3.8343
   93RES   H11538939   0.572   0.133   4.864 -1.2275 -1.7607 -0.8992
   93RES   H11638940   0.268   0.111   4.871  1.3794  0.3956 -1.9332
   93RES   H11738941   0.343   7.646   4.760 -0.0434 -0.8119 -0.7948
   93RES   H11838942   0.299   7.611   4.925 -1.7086  2.8684 -0.6589
   93RES   H11938943   0.603   7.629   4.860  0.3465 -1.5363  1.4283
   93RES   H12038944   0.525   7.562   5.001 -0.3413 -1.6054  0.0613
   93RES   H12138945   0.530   7.458   4.723 -1.3930 -0.7133 -0.3699
   93RES   H12238946   0.413   7.394   4.827  0.9821 -2.3513 -1.8281
   93RES   H12338947   0.626   7.368   4.988 -1.2066  1.0300 -0.2023
   93RES   H12438948   0.581   7.244   4.873 -0.6992 -0.0556  2.3867
   93RES   H12538949   0.849   7.369   4.864  0.3122  0.0356 -0.3286
   93RES   H12638950   0.773   7.301   4.731  3.1745 -0.1463  0.8802
   93RES   H12738951   0.770   7.474   4.756 -1.1779 -2.1688 -3.8957
   93RES   C12838952   0.359   0.101   5.055 -0.4786 -0.1153  0.0206
   93RES   C12938953   0.233   0.067   5.137 -0.0798 -0.0273 -0.1566
   93RES   C13038954   0.109   0.133   5.083  0.0482  0.2267 -0.5596
   93RES   C13138955   0.024   0.034   5.001 -0.1103 -0.6020  0.1952
   93RES   C13238956   7.628   0.107   4.950  0.0084 -0.1615  0.3087
   93RES   C13338957   7.528   0.014   4.872  0.0705 -0.0773  0.7514
   93RES   C13438958   7.397   0.090   4.829  0.1387 -0.0735 -0.3902
   93RES   H13538959   0.442   0.046   5.098  0.1545  2.2607  1.9704
   93RES   H13638960   0.378   0.208   5.065 -1.6790  0.3450 -2.1063
   93RES   H13738961   0.220   7.686   5.138 -0.7242  0.0473  0.2976
   93RES   H13838962   0.141   0.213   5.016  1.7156 -0.3560 -0.4666
   93RES   H13938963   0.049   0.179   5.161 -1.3320  1.8782 -2.5381
   93RES   H14038964   7.709   7.678   5.058  0.7762 -1.3050 -0.1585
   93RES   H14138965   0.079   7.720   4.915  2.7670  1.3813  1.0325
   93RES   H14238966   7.654   0.196   4.893  0.7190  0.8903  2.2279
   93RES   H14338967   7.569   0.147   5.032 -0.5271  2.2556 -1.2261
   93RES   H14438968   7.500   7.656   4.935 -1.5312 -0.6887 -0.7533
   93RES   H14538969   7.566   7.698   4.779  0.0808  1.0694  0.2235
   93RES   H14638970   7.423   0.162   4.752  0.0886  1.1502  0.7208
   93RES   H14738971   7.349   0.153   4.904  2.5551  0.1472  1.0328
   93RES   H14838972   7.320   0.032   4.778 -0.5836  1.1611 -0.6983
   93RES   C14938973   0.262   0.094   5.293  1.0543  0.5006  0.2507
   93RES   C15038974   0.140   0.055   5.385 -0.0068 -0.2296  0.4068
   93RES   C15138975   0.180   0.084   5.534  0.4270 -0.4624 -0.4713
   93RES   C15238976   0.157   0.229   5.582  0.5556 -0.0548 -0.5226
   93RES   C15338977   0.158   0.245   5.738 -0.8008  0.3341  0.1121
   93RES   C15438978   0.143   0.395   5.779 -0.2833 -0.1412  0.4992
   93RES   C15538979   0.155   0.415   5.925  0.1259  0.1940 -0.1712
   93RES   H15638980   0.355   0.044   5.319  0.7414 -0.3215 -0.1665
   93RES   H15738981   0.270   0.202   5.304  2.4550  0.3160  1.0444
   93RES   H15838982   0.061   0.128   5.366 -0.0683  0.3605  2.8199
   93RES   H15938983   0.130   0.026   5.611  0.8399  0.0140  0.1670
   93RES   H16038984   0.286   0.059   5.543  0.6715  0.4998 -0.5888
   93RES   H16138985   0.061   0.262   5.540  1.5022  0.6959 -2.1672
   93RES   H16238986   0.240   0.289   5.544  1.1966  0.9127  2.2776
   93RES   H16338987   0.255   0.205   5.769 -1.1585  0.1115  0.9715
   93RES   H16438988   0.081   0.182   5.782  1.1841 -0.9080  1.9169
   93RES   H16538989   0.050   0.438   5.742  0.0327  1.1267  1.1440
   93RES   H16638990   0.223   0.453   5.733 -1.2661 -0.0787 -1.1536
   93RES   H16738991   0.110   0.513   5.947 -3.9120 -1.8895  1.4833
   93RES   H16838992   0.258   0.416   5.958  0.8109 -0.6164 -2.2133
   93RES   H16938993   0.107   0.336   5.982  2.3002  1.0533  2.9790
   93RES   C17038994   0.093   7.638   5.359  0.2793  0.0356 -0.2316
   93RES   C17138995   7.719   7.572   5.459 -0.3570  0.1431 -0.0351
   93RES   C17238996   7.596   7.654   5.488 -0.5185 -0.0829 -0.2807
   93RES   C17338997   7.568   7.666   5.636  0.5150  0.0468 -0.3789
   93RES   C17438998   7.499   0.069   5.661 -0.3053 -0.5568 -0.0331
   93RES   C17538999   7.427   0.077   5.793 -0.3665 -0.2594 -0.3092
   93RES   C17639000   7.386   0.220   5.828  0.5345  0.6364 -0.3466
   93RES   H17739001   0.186   7.581   5.356 -0.6007 -1.6856  2.6309
   93RES   H17839002   0.036   7.631   5.267 -0.7634  0.5954  0.3682
   93RES   H17939003   0.048   7.561   5.552  1.8858 -1.1877 -1.4791
   93RES   H18039004   7.503   7.624   5.440 -0.2671 -0.6067 -0.4439
   93RES   H18139005   7.603   0.020   5.431  0.0032 -1.6621 -2.8651
   93RES   H18239006   7.652   7.649   5.704 -0.8341 -2.7807  0.6683
   93RES   H18339007   7.499   7.586   5.661 -2.4430  2.1476 -1.5688
   93RES   H18439008   7.425   0.079   5.582 -1.9135 -1.7264  1.2844
   93RES   H18539009   7.576   0.143   5.641  0.2504 -1.0429  0.2929
   93RES   H18639010   7.488   0.036   5.873  0.7149  3.1362  0.7013
   93RES   H18739011   7.337   0.017   5.807  0.1056 -1.1695 -1.1103
   93RES   H18839012   7.336   0.214   5.925 -0.1728  0.4221 -0.7295
   93RES   H18939013   7.318   0.262   5.755  0.9155  0.6508 -0.6952
   93RES   H19039014   7.478   0.279   5.828  0.0051  1.4716  0.3961
   93RES   C19139015   7.698   7.423   5.421 -0.6258  0.2368 -0.9598
   93RES   C19239016   7.638   7.332   5.529 -0.1835 -0.0114  0.0633
   93RES   C19339017   7.570   7.212   5.463 -0.3709 -0.4670 -0.2920
   93RES   C19439018   7.423   7.240   5.427  0.1953 -0.5965  0.0060
   93RES   C19539019   7.356   7.133   5.339 -0.3266 -0.2245  0.1073
   93RES   C19639020   7.258   7.198   5.250  0.8393  0.1616  1.1161
   93RES   C19739021   7.173   7.102   5.175  0.2454 -0.0322  0.8121
   93RES   H19839022   0.065   7.376   5.393 -1.3317 -0.1328 -2.7815
   93RES   H19939023   7.652   7.413   5.322 -1.5565  0.4598 -0.5547
   93RES   H20039024   7.563   7.383   5.590  2.8537  3.8337  0.7874
   93RES   H20139025   7.555   7.129   5.532  0.0997 -0.8244 -0.6097
   93RES   H20239026   7.633   7.180   5.379 -0.2174 -1.3213  0.1474
   93RES   H20339027   7.429   7.337   5.377  0.9239 -0.5514  0.1752
   93RES   H20439028   7.377   7.238   5.526  1.2611 -1.9745  0.4838
   93RES   H20539029   7.435   7.070   5.299 -0.2652 -0.0531 -0.0412
   93RES   H20639030   7.313   7.072   5.419 -2.3114 -1.8279 -2.1166
   93RES   H20739031   7.315   7.261   5.181 -0.2917  2.2089  2.0086
   93RES   H20839032   7.190   7.260   5.309 -0.1319  1.5668 -1.3899
   93RES   H20939033   7.101   7.161   5.118  1.2409 -1.4022 -1.9481
   93RES   H21039034   7.115   7.040   5.243 -2.0003  1.2518  0.1095
   93RES   H21139035   7.226   7.032   5.110  0.0986 -0.5288  1.2199
   93RES   C21239036   0.027   7.297   5.640 -0.0556 -0.0473  0.1953
   93RES   C21339037   7.704   7.218   5.762 -0.3944 -0.4673 -0.1997
   93RES   C21439038   0.081   7.125   5.815  0.0755  0.7801  0.2624
   93RES   C21539039   0.113   7.001   5.722 -0.2174 -0.4294 -0.1058
   93RES   C21639040   0.208   6.900   5.773  0.2051 -0.1462  0.3314
   93RES   C21739041   0.349   6.952   5.758  0.4079  0.2168  0.1182
   93RES   C21839042   0.442   6.847   5.824 -0.1176  0.0590  0.4064
   93RES   H21939043   0.080   7.385   5.677 -1.5701  0.6345  0.7915
   93RES   H22039044   0.099   7.237   5.584 -1.9061 -0.4224 -1.8464
   93RES   H22139045   7.622   7.151   5.735  0.0794 -0.2417 -2.3091
   93RES   H22239046   0.164   7.189   5.844  1.6484  0.1271 -2.5983
   93RES   H22339047   0.042   7.089   5.910 -1.1209  0.8250 -0.1973
   93RES   H22439048   0.132   7.032   5.619  1.1378 -0.0491  0.2600
   93RES   H22539049   0.020   6.945   5.709 -0.1543 -0.8311  1.1252
   93RES   H22639050   0.200   6.890   5.882  2.9826 -1.4243  0.4710
   93RES   H22739051   0.196   6.800   5.732  0.1777 -0.3610  0.8560
   93RES   H22839052   0.381   6.971   5.655  1.0463 -0.2971  0.2174
   93RES   H22939053   0.357   7.042   5.818  1.4747 -0.4780  1.0577
   93RES   H23039054   0.545   6.883   5.821 -0.1115 -0.1282 -2.3741
   93RES   H23139055   0.440   6.748   5.778  0.1166 -0.8317  2.2513
   93RES   H23239056   0.406   6.824   5.924  0.2563  0.5525  0.6593
   93RES   C23339057   7.656   7.315   5.875 -0.2805  0.7670 -0.1879
   93RES   C23439058   7.527   7.264   5.944  0.9971  0.7842  0.0849
   93RES   C23539059   7.507   7.341   6.075  0.1458  0.3650 -0.1019
   93RES   C23639060   7.586   7.292   6.199 -0.5421  0.3244 -0.8402
   93RES   C23739061   7.582   7.145   6.248  0.2443  0.2617 -0.3043
   93RES   C23839062   7.449   7.110   6.313  0.2152  0.4596 -0.1065
   93RES   C23939063   7.422   7.153   6.459  0.0703  0.1250 -0.3176
   93RES   H24039064   7.654   7.421   5.853  0.0175  0.9669  0.7141
   93RES   H24139065   0.010   7.307   5.948 -0.4883  0.3156 -0.0028
   93RES   H24239066   7.539   7.159   5.970 -2.5698  0.0246 -1.0752
   93RES   H24339067   7.401   7.338   6.103  0.4465 -0.7306  0.9602
   93RES   H24439068   7.520   7.448   6.062 -1.8824  0.7334  0.6512
   93RES   H24539069   7.551   7.351   6.284  0.1017 -0.5203  0.0291
   93RES   H24639070   7.692   7.313   6.187 -0.5704  0.7129 -0.4255
   93RES   H24739071   7.665   7.112   6.310  0.7519 -1.6947 -1.9625
   93RES   H24839072   7.608   7.077   6.167 -2.5969 -0.8071 -0.3758
   93RES   H24939073   7.366   7.143   6.250 -0.0048 -0.1116 -0.1117
   93RES   H25039074   7.432   7.003   6.313 -2.3318  0.8131  2.3427
   93RES   H25139075   7.396   7.259   6.470 -1.8261 -0.1507 -2.0605
   93RES   H25239076   7.328   7.103   6.481 -0.2078 -0.0301 -1.8128
   93RES   H25339077   7.500   7.121   6.529 -0.4443 -1.1920 -0.3336
   93RES   C25439078   7.411   7.285   5.855 -0.1985 -0.7948  0.1249
   93RES   C25539079   7.295   7.193   5.892  0.2877  0.3172  1.0252
   93RES   C25639080   7.311   7.071   5.796 -0.2777 -0.2557 -0.0143
   93RES   C25739081   7.250   6.939   5.849  0.2696  0.9381  0.4970
   93RES   C25839082   7.306   6.896   5.990  0.1152  0.1485 -0.0513
   93RES   C25939083   7.309   6.743   6.023 -0.1137  0.2075 -0.4328
   93RES   C26039084   7.426   6.696   6.103 -0.0779 -0.0350 -0.1772
   93RES   H26139085   7.450   7.277   5.754 -0.5810  0.3828 -0.1305
   93RES   H26239086   7.382   7.390   5.866  0.6467 -0.4881 -0.5620
   93RES   H26339087   7.302   7.167   5.998  0.4081 -0.1360  0.9070
   93RES   H26439088   7.417   7.066   5.770 -0.1042 -2.3003  1.0519
   93RES   H26539089   7.273   7.090   5.695  1.3567  0.7196 -0.4693
   93RES   H26639090   7.142   6.938   5.835  0.4055 -2.3328 -0.7912
   93RES   H26739091   7.287   6.859   5.784 -0.7386  1.8113 -1.1853
   93RES   H26839092   7.258   6.954   6.069 -0.6535 -1.2935  0.5495
   93RES   H26939093   7.411   6.925   5.991 -0.0791  1.1905 -3.6813
   93RES   H27039094   7.225   6.714   6.087 -0.2522  1.6639  0.0553
   93RES   H27139095   7.296   6.688   5.930 -2.7496 -0.5987  0.3464
   93RES   H27239096   7.516   6.718   6.045 -0.5396 -2.6594 -1.9574
   93RES   H27339097   7.426   6.738   6.203  1.2695  0.8783 -0.5468
   93RES   H27439098   7.416   6.588   6.112 -1.2080 -0.0072 -0.9463
   93RES   C27539099   7.157   7.261   5.877 -0.0466 -0.2037  0.1021
   93RES   C27639100   7.116   7.345   6.003  0.6379 -0.3235 -0.6523
   93RES   C27739101   6.984   7.282   6.058 -0.4880 -0.1087 -0.0752
   93RES   C27839102   6.994   7.159   6.148 -0.8783 -0.1842  0.0203
   93RES   C27939103   6.854   7.097   6.183  0.3440  0.3855  0.2801
   93RES   C28039104   6.867   6.972   6.281  0.2702 -0.2113  0.7666
   93RES   C28139105   6.931   6.848   6.222  1.0069  0.0585  0.5864
   93RES   H28239106   7.082   7.185   5.856 -0.4031 -0.0312  0.7409
   93RES   H28339107   7.147   7.320   5.785 -0.4762 -0.1086  0.2057
   93RES   H28439108   7.198   7.331   6.075  0.1292  1.1016  0.2160
   93RES   H28539109   6.931   7.359   6.114 -0.1514 -0.1239  0.2639
   93RES   H28639110   6.915   7.263   5.976  0.1347  0.5299 -0.7570
   93RES   H28739111   7.037   7.189   6.244 -1.3600  1.3792 -0.2394
   93RES   H28839112   7.064   7.084   6.113 -1.9111 -1.1611 -0.0117
   93RES   H28939113   6.800   7.058   6.097  0.2119 -0.3944  0.7192
   93RES   H29039114   6.784   7.175   6.214 -0.9796 -0.7023  0.0437
   93RES   H29139115   6.916   6.999   6.374 -1.7732 -3.0184  2.7512
   93RES   H29239116   6.766   6.942   6.308 -0.0074  0.8106  0.8875
   93RES   H29339117   6.874   6.808   6.137  2.6871 -0.8420 -0.1500
   93RES   H29439118   6.945   6.769   6.295  0.5308  0.8147  1.5006
   93RES   H29539119   7.029   6.877   6.183 -0.9932  2.3244 -3.0765
   93RES   C29639120   7.107   7.490   5.969 -0.2365  0.5902  0.8383
   93RES   C29739121   7.089   7.589   6.080  0.8460  0.0706 -0.0643
   93RES   C29839122   7.062   0.006   6.024  0.3207 -1.1872  0.6602
   93RES   C29939123   6.919   0.020   5.960 -0.5425 -0.2244 -0.1959
   93RES   C30039124   6.890   0.157   5.903  0.2710 -0.6690  0.5517
   93RES   C30139125   6.980   0.195   5.779 -0.1608  0.1649 -0.6745
   93RES   C30239126   6.936   0.325   5.722  0.3007 -0.6107  0.0558
   93RES   H30339127   7.200   7.526   5.925  0.5470 -0.5220  1.5399
   93RES   H30439128   7.023   7.496   5.900  0.1267 -0.7964  0.2381
   93RES   H30539129   7.004   7.565   6.144  2.1943  1.3478  2.2284
   93RES   H30639130   7.077   0.078   6.104  0.3807 -2.7711  2.1061
   93RES   H30739131   7.135   0.039   5.951 -0.3478  0.2269  0.6058
   93RES   H30839132   6.838   0.002   6.031 -0.7580 -0.2306 -0.4374
   93RES   H30939133   6.902   7.660   5.895  0.9819  1.0369 -2.3628
   93RES   H31039134   6.877   0.229   5.984 -1.9652  0.4694 -0.7823
   93RES   H31139135   6.789   0.153   5.863  0.7040  2.2034 -1.0141
   93RES   H31239136   7.085   0.199   5.808 -0.3445  1.6148 -0.1546
   93RES   H31339137   6.964   0.120   5.703 -3.9315 -0.2498  0.3852
   93RES   H31439138   7.011   0.402   5.742  0.6530 -0.5967 -1.2678
   93RES   H31539139   6.944   0.320   5.613 -2.6173  2.2755 -0.3563
   93RES   H31639140   6.842   0.365   5.761  0.3640  0.8276 -1.2129
   93RES   C31739141   7.208   7.609   6.173  0.3580  0.2943  0.0424
   93RES   C31839142   7.183   7.679   6.314 -0.1664 -0.0166 -0.1126
   93RES   C31939143   7.093   7.592   6.405  0.2743  0.4095  0.3229
   93RES   C32039144   7.146   7.452   6.439  0.2944  0.2307  0.1011
   93RES   C32139145   7.043   7.379   6.535  0.4254 -0.0677  0.4137
   93RES   C32239146   6.899   7.351   6.480 -0.0433  0.0510 -0.3019
   93RES   C32339147   6.824   7.247   6.564 -0.5570 -0.6228  0.2376
   93RES   H32439148   7.282   7.655   6.107  0.2857 -0.8691 -0.8559
   93RES   H32539149   7.255   7.512   6.189 -1.1127 -0.6799 -1.4170
   93RES   H32639150   7.128   0.045   6.300 -1.9182 -1.0221 -0.0122
   93RES   H32739151   7.002   7.564   6.352 -0.7816  0.2036  2.1812
   93RES   H32839152   7.065   7.648   6.495  0.0536 -0.7505  0.9913
   93RES   H32939153   7.228   7.465   6.510  0.1032 -1.1564  0.5916
   93RES   H33039154   7.172   7.387   6.355 -0.5893 -0.0617  0.0557
   93RES   H33139155   7.023   7.446   6.619  1.9666  1.3852 -0.3350
   93RES   H33239156   7.080   7.283   6.571 -0.3094 -1.3200 -2.1105
   93RES   H33339157   6.910   7.326   6.375 -1.1320 -0.5612 -0.2806
   93RES   H33439158   6.843   7.444   6.484 -0.9973 -0.5517  0.6404
   93RES   H33539159   6.878   7.155   6.542  1.7891  0.2593  2.1091
   93RES   H33639160   6.724   7.227   6.526 -1.0222  0.1426  1.0513
   93RES   H33739161   6.800   7.275   6.666  0.2483  0.8599  0.0277
   93RES   C33839162   7.329   7.716   6.380  0.1488 -0.0195 -0.4521
   93RES   C33939163   7.390   0.134   6.351 -0.3204  0.5554 -0.6245
   93RES   C34039164   7.533   0.141   6.396 -0.2681  0.2353 -0.3746
   93RES   C34139165   7.643   0.161   6.285  0.5437  0.2103  0.2251
   93RES   C34239166   7.673   0.034   6.205  0.4797 -0.4477 -1.1539
   93RES   C34339167   0.055   0.047   6.091  0.3978  0.2965  0.3175
   93RES   C34439168   0.085   7.640   6.024  0.0499  0.4068 -0.0719
   93RES   H34539169   7.400   7.637   6.355  1.1005  0.2417  1.2901
   93RES   H34639170   7.329   7.705   6.489 -2.8230  1.6901 -0.2151
   93RES   H34739171   7.394   0.149   6.243 -1.5342  2.7647 -0.3977
   93RES   H34839172   7.547   0.213   6.477  1.2147 -2.3392  1.7616
   93RES   H34939173   7.559   0.059   6.463  1.2336 -1.8745 -3.4499
   93RES   H35039174   0.013   0.191   6.327  0.6063  0.4615 -0.0940
   93RES   H35139175   7.614   0.238   6.213  4.0956  3.5112  2.0899
   93RES   H35239176   7.697   7.682   6.277  0.4883 -1.2992 -2.0754
   93RES   H35339177   7.583   7.717   6.162  1.6264 -2.8996 -1.1704
   93RES   H35439178   0.016   0.121   6.021  0.6448 -1.0793 -1.3251
   93RES   H35539179   0.150   0.091   6.122  1.4705 -0.7190 -1.4163
   93RES   H35639180   0.159   7.660   5.946 -0.0703 -1.7407 -0.7448
   93RES   H35739181   7.714   7.609   5.989 -0.4911  0.6996  1.1405
   93RES   H35839182   0.124   7.569   6.097 -1.7558  0.5967  1.1008
   93RES   C35939183   7.308   0.253   6.413 -0.7376  0.2764 -0.2507
   93RES   C36039184   7.356   0.387   6.359  0.3357 -0.1294 -0.5530
   93RES   C36139185   7.304   0.417   6.218  0.1371  0.1038  0.1495
   93RES   C36239186   7.160   0.467   6.198 -0.0055 -0.0171 -0.1018
   93RES   C36339187   7.115   0.493   6.047 -0.2278 -0.2175 -0.4742
   93RES   C36439188   7.176   0.617   5.972  0.1530 -0.5248  0.1986
   93RES   C36539189   7.134   0.747   6.027  0.4948 -0.3041 -0.3583
   93RES   H36639190   7.301   0.249   6.522 -1.1537  1.4964 -0.2163
   93RES   H36739191   7.206   0.243   6.377 -0.9953 -3.4707  1.3024
   93RES   H36839192   7.462   0.368   6.343  0.6870  0.8152  0.5456
   93RES   H36939193   7.382   0.489   6.193 -1.2864  1.0974 -1.5636
   93RES   H37039194   7.314   0.336   6.146 -1.2350 -2.3305  2.6367
   93RES   H37139195   7.096   0.406   6.261  1.0554 -0.4647  0.5523
   93RES   H37239196   7.140   0.559   6.253  0.9171  1.2782 -1.8880
   93RES   H37339197   7.158   0.413   5.988 -2.8587  0.5056 -3.5204
   93RES   H37439198   7.007   0.501   6.039 -0.4680  0.4087  2.6937
   93RES   H37539199   7.285   0.615   5.977  0.1423  0.3488  0.9533
   93RES   H37639200   7.150   0.611   5.867  1.8627 -0.9291 -0.2236
   93RES   H37739201   7.031   0.767   6.056  1.0579 -0.4726  1.9058
   93RES   H37839202   7.197   0.754   6.116  0.5232 -0.3435 -0.3756
   93RES   H37939203   7.159   0.819   5.950 -1.5212 -0.7784 -1.4874
   93RES   C38039204   7.336   0.504   6.458  0.1554 -0.1980  0.8444
   93RES   C38139205   7.467   0.538   6.530  0.1691 -0.2049  0.1830
   93RES   C38239206   7.571   0.606   6.443 -0.8301 -0.1839  0.2540
   93RES   C38339207   7.691   0.628   6.527 -0.2574  0.3473 -0.2428
   93RES   C38439208   0.086   0.651   6.435  0.0415 -0.2622 -0.4593
   93RES   C38539209   0.223   0.669   6.508 -0.2721  0.8286  0.2626
   93RES   C38639210   0.343   0.693   6.402  0.4162 -0.7476  0.7091
   93RES   H38739211   7.312   0.597   6.407  1.9723  0.5656  1.3155
   93RES   H38839212   7.254   0.475   6.524  0.9850 -0.5738  1.7260
   93RES   H38939213   7.505   0.441   6.561 -0.0525  0.1376  1.5587
   93RES   H39039214   7.543   0.700   6.395 -0.1976 -1.4269 -2.6287
   93RES   H39139215   7.591   0.544   6.356  2.9842  0.9588  0.2147
   93RES   H39239216   7.669   0.709   6.597 -0.9873 -1.6224  1.8692
   93RES   H39339217   7.719   0.537   6.580  0.5800 -0.7141 -2.4710
   93RES   H39439218   0.091   0.564   6.370  0.4149 -1.3120  0.9459
   93RES   H39539219   0.067   0.741   6.377 -1.4931 -1.5818 -2.0519
   93RES   H39639220   0.233   0.574   6.561  0.7303  1.2618  0.8550
   93RES   H39739221   0.215   0.748   6.582  1.5435 -0.6545  2.0871
   93RES   H39839222   0.440   0.693   6.453  0.7569 -1.7489  0.0888
   93RES   H39939223   0.324   0.782   6.343 -0.4763 -1.5462 -0.2166
   93RES   H40039224   0.349   0.614   6.327  1.3205 -0.9109  0.9433
   93RES   C40139225   7.431   0.623   6.660 -0.1832  0.1561  0.1965
   93RES   C40239226   7.379   0.763   6.632  0.7590  0.7326  0.4651
   93RES   C40339227   7.375   0.857   6.756 -0.4291 -1.0229  0.0233
   93RES   C40439228   7.258   0.833   6.857  0.3628  0.3257 -0.3718
   93RES   C40539229   7.122   0.858   6.796  0.4408 -0.0622  0.2013
   93RES   C40639230   7.003   0.838   6.891  0.2670 -0.0746  0.1997
   93RES   C40739231   6.873   0.882   6.841  0.8457 -0.0190 -0.0948
   93RES   H40839232   7.514   0.637   6.729  1.9571  1.5737 -2.5384
   93RES   H40939233   7.371   0.571   6.735  0.5263  0.5963  1.0825
   93RES   H41039234   7.286   0.766   6.576  1.0723  0.3442 -0.0745
   93RES   H41139235   7.373   0.964   6.736 -1.4514 -0.8585  0.8997
   93RES   H41239236   7.466   0.844   6.814 -0.9120 -1.6502  0.6556
   93RES   H41339237   7.272   0.884   6.952 -0.0413 -1.3488  0.6114
   93RES   H41439238   7.253   0.731   6.895 -1.2409  0.4324 -0.2580
   93RES   H41539239   7.124   0.963   6.768  1.6590 -0.2995 -0.6167
   93RES   H41639240   7.106   0.806   6.701  2.7302 -3.0485  1.3696
   93RES   H41739241   7.005   0.731   6.914  1.2167  0.2101  1.5257
   93RES   H41839242   7.022   0.896   6.981  0.7011  0.5032 -0.2593
   93RES   H41939243   6.888   0.988   6.821  1.1530  0.1996  1.2042
   93RES   H42039244   6.792   0.862   6.912 -0.5978  0.6408 -1.5156
   93RES   H42139245   6.843   0.830   6.751  1.5652 -0.5237 -0.0474
   93RES   H42239246   7.459   0.806   6.572  0.0690  4.7912  2.2889
   94RES     C139247   7.382   1.229   6.803 -0.0617 -0.0191  0.4854
   94RES     C239248   7.332   1.322   6.700  0.5079 -0.2641  0.0618
   94RES     C339249   7.280   1.233   6.584 -0.2447  0.0997  0.4264
   94RES     C439250   7.387   1.175   6.480 -0.1584  0.0255 -0.9467
   94RES     C539251   7.335   1.058   6.385  0.1080  0.2358 -0.8168
   94RES     C639252   7.431   0.985   6.296  0.0132  0.6194 -0.2446
   94RES     C739253   7.480   1.077   6.188 -0.0461  0.1455 -0.1460
   94RES     H839254   7.305   1.157   6.831 -1.0162  1.0246  0.5698
   94RES     H939255   7.423   1.281   6.889 -0.5630  0.2535  0.5572
   94RES    H1039256   7.241   1.375   6.730 -0.1045  0.3430 -2.7097
   94RES    H1139257   7.223   1.148   6.622  0.8060 -1.4153 -1.2462
   94RES    H1239258   7.200   1.278   6.525  0.4183 -0.4864 -0.9399
   94RES    H1339259   7.431   1.256   6.421  0.8067  0.5997  0.5245
   94RES    H1439260   7.466   1.129   6.539 -1.0584  0.3721  0.5518
   94RES    H1539261   7.255   1.102   6.325 -0.0929  1.3464  0.2410
   94RES    H1639262   7.294   0.975   6.442  2.4356 -1.7136 -1.8858
   94RES    H1739263   7.383   0.900   6.247  0.9977  0.0425 -0.2177
   94RES    H1839264   7.513   0.924   6.334 -0.9680  0.4941  1.7385
   94RES    H1939265   7.406   1.137   6.136  1.5364  2.1849 -0.1142
   94RES    H2039266   7.524   1.014   6.111 -0.6126 -0.6317  0.1591
   94RES    H2139267   7.555   1.138   6.239  0.3126  0.5383 -1.1207
   94RES    H2239268   7.467   1.169   6.769  0.6761  1.1384  0.2616
   94RES    C2339269   7.442   1.434   6.660 -0.0340  0.3562 -0.1087
   94RES    C2439270   7.491   1.541   6.756 -0.0044  0.2313  0.1385
   94RES    C2539271   7.373   1.591   6.844  0.2043  0.7268 -0.0940
   94RES    C2639272   7.401   1.711   6.940 -0.1640  0.5571  0.4150
   94RES    C2739273   7.290   1.738   7.048  0.3792 -0.5471  0.2136
   94RES    C2839274   7.331   1.831   7.156  0.3523 -0.2222 -0.0799
   94RES    C2939275   7.347   1.971   7.106 -0.0242 -0.0713  0.3945
   94RES    H3039276   7.526   1.382   6.615 -0.0483  0.7992 -0.6454
   94RES    H3139277   7.393   1.487   6.578 -2.0747 -2.5483 -0.8786
   94RES    H3239278   7.565   1.496   6.823 -1.4919 -0.8604  1.0541
   94RES    H3339279   7.323   1.512   6.900  0.6433  0.5767  0.0919
   94RES    H3439280   7.288   1.618   6.782  0.2846 -0.2314 -0.6251
   94RES    H3539281   7.405   1.802   6.879  0.1280  0.2534 -0.0194
   94RES    H3639282   7.496   1.698   6.992 -0.0568  1.6800  0.5157
   94RES    H3739283   7.268   1.640   7.091 -3.3196 -0.2250 -0.8169
   94RES    H3839284   7.198   1.778   7.006 -0.1831 -0.2769  1.6698
   94RES    H3939285   7.419   1.800   7.213 -1.4841  0.6929  3.3825
   94RES    H4039286   7.255   1.840   7.233 -0.4287 -2.2016 -0.5878
   94RES    H4139287   7.264   2.012   7.048  0.5188 -0.1859 -0.4774
   94RES    H4239288   7.357   2.046   7.185  1.1949 -1.3391  1.4512
   94RES    H4339289   7.442   1.975   7.053 -0.2812 -1.9097 -0.2224
   94RES    C4439290   7.561   1.652   6.679 -0.6862 -0.1135 -0.3299
   94RES    C4539291   7.692   1.606   6.608 -0.5495  0.2727 -0.1367
   94RES    C4639292   7.666   1.597   6.460  0.0585 -0.0311  0.3651
   94RES    C4739293   0.050   1.532   6.382 -0.4617 -0.3278  0.1375
   94RES    C4839294   0.023   1.530   6.229 -0.1405 -0.6658  0.4659
   94RES    C4939295   0.016   1.664   6.166 -0.1931 -0.3481 -0.5089
   94RES    C5039296   0.004   1.668   6.014  0.2112 -0.3108 -0.4490
   94RES    H5139297   7.570   1.738   6.746  1.1629 -0.7842  0.3313
   94RES    H5239298   7.490   1.695   6.608 -1.3657 -3.0332 -1.4841
   94RES    H5339299   0.004   1.510   6.643 -1.9424 -0.2096  0.0893
   94RES    H5439300   7.656   1.696   6.415  0.1663  0.0315  0.4762
   94RES    H5539301   7.576   1.538   6.447  1.8842 -2.7146 -0.4037
   94RES    H5639302   0.150   1.570   6.408 -0.2964 -0.0233 -0.9225
   94RES    H5739303   0.063   1.432   6.422 -2.6225 -0.4703  0.5058
   94RES    H5839304   7.662   1.468   6.205  0.0268 -0.6303 -0.2349
   94RES    H5939305   0.107   1.474   6.189 -0.4608 -1.5361  0.9841
   94RES    H6039306   0.101   1.731   6.182 -1.6426  1.4508 -0.2324
   94RES    H6139307   7.657   1.726   6.191 -0.9491 -1.4452 -0.3339
   94RES    H6239308   7.642   1.627   5.966  1.2619 -1.2182 -1.6323
   94RES    H6339309   0.090   1.618   5.969  2.2907  2.8950 -0.1678
   94RES    H6439310   7.719   1.773   5.989  0.7795 -0.5604 -1.8173
   94RES    C6539311   0.082   1.704   6.642 -0.2978 -0.1604 -0.0725
   94RES    C6639312   0.129   1.724   6.793 -0.0817  0.2301  0.1640
   94RES    C6739313   0.254   1.812   6.789  0.3233  0.0608  0.3847
   94RES    C6839314   0.216   1.961   6.760 -0.1338  0.0827  0.1721
   94RES    C6939315   0.317   2.071   6.803 -0.7145 -0.1293  0.0340
   94RES    C7039316   0.449   2.067   6.724  0.2262  0.1761  0.3201
   94RES    C7139317   0.431   2.100   6.574  0.3454  0.6624 -0.5670
   94RES    H7239318   0.172   1.660   6.601  0.9535 -0.1825  2.5879
   94RES    H7339319   0.073   1.794   6.581 -1.2801  0.8261  1.4847
   94RES    H7439320   0.052   1.779   6.846  1.0049  0.2693  1.7687
   94RES    H7539321   0.296   1.805   6.889  1.6035 -1.9215 -0.2678
   94RES    H7639322   0.333   1.770   6.727  2.3785  1.2441  2.1164
   94RES    H7739323   0.170   1.975   6.662  0.6149 -0.1279 -0.2105
   94RES    H7839324   0.130   1.981   6.825  0.8037  1.2349  1.0645
   94RES    H7939325   0.284   2.174   6.808  0.8655  0.4036 -0.3515
   94RES    H8039326   0.342   2.039   6.905 -0.2462 -1.3585 -0.4548
   94RES    H8139327   0.493   1.968   6.737 -0.6015  0.0772  2.6235
   94RES    H8239328   0.510   2.144   6.771  0.3630 -0.3482  1.0086
   94RES    H8339329   0.337   2.138   6.534  0.2603  0.6984 -0.3336
   94RES    H8439330   0.506   2.171   6.540  0.8452  0.1244 -0.6064
   94RES    H8539331   0.439   2.006   6.520  0.7920  0.9049 -0.9255
   94RES    C8639332   0.153   1.584   6.868  0.0562  0.5673  0.2111
   94RES    C8739333   0.142   1.592   7.025  0.8582 -0.5939  0.7313
   94RES    C8839334   0.033   1.505   7.078 -0.4913  0.2971 -0.3726
   94RES    C8939335   0.058   1.354   7.072 -0.1409 -0.9115  0.1586
   94RES    C9039336   7.671   1.262   7.094 -0.0863  0.7833  0.0226
   94RES    C9139337   7.696   1.121   7.043  0.1395 -0.2792 -0.2492
   94RES    C9239338   7.603   1.012   7.106 -0.0284  1.1580 -0.2583
   94RES    H9339339   0.078   1.515   6.833 -0.9149  1.0157  1.3701
   94RES    H9439340   0.246   1.534   6.839  0.0708 -0.1695  1.4580
   94RES    H9539341   0.113   1.694   7.051  2.8558  0.1259  0.2863
   94RES    H9639342   0.017   1.533   7.183  1.5800  1.9031 -0.4776
   94RES    H9739343   7.663   1.532   7.035 -0.9862 -0.9462 -0.0566
   94RES    H9839344   0.111   1.329   6.980  3.3813  0.4601  1.6890
   94RES    H9939345   0.135   1.335   7.147  0.7166 -1.1588 -0.7637
   94RES   H10039346   7.585   1.313   7.052 -0.1756  1.1817  0.6748
   94RES   H10139347   7.646   1.261   7.200 -0.0213  1.3069  0.0457
   94RES   H10239348   7.693   1.106   6.935  0.2679 -0.8420 -0.1792
   94RES   H10339349   0.068   1.091   7.079  1.4420  1.9814 -1.8518
   94RES   H10439350   7.500   1.047   7.103 -0.1667  0.7341 -0.5700
   94RES   H10539351   7.627   0.989   7.210  0.5484 -0.8933 -0.8172
   94RES   H10639352   7.617   0.922   7.046 -0.2593  1.7735 -1.2530
   94RES   C10739353   0.281   1.576   7.090  0.7928  0.5530  0.1714
   94RES   C10839354   0.279   1.594   7.240  0.1115 -0.3846  0.2802
   94RES   C10939355   0.414   1.559   7.303 -0.3082 -0.0632  0.2928
   94RES   C11039356   0.442   1.414   7.337  0.4962 -0.0044 -0.5508
   94RES   C11139357   0.543   1.381   7.455 -0.4715  0.3379  0.1414
   94RES   C11239358   0.479   1.390   7.594  0.3932 -0.7619  0.0402
   94RES   C11339359   0.569   1.320   7.696  0.1496 -0.2999 -0.4457
   94RES   H11439360   0.357   1.627   7.030 -0.6967 -1.0679 -3.2533
   94RES   H11539361   0.305   1.471   7.075 -1.9059 -0.1391  0.4395
   94RES   H11639362   0.205   1.529   7.286 -0.2408  0.8313  1.4771
   94RES   H11739363   0.436   1.626   7.387 -2.9299 -0.6626  1.5137
   94RES   H11839364   0.497   1.592   7.240  2.3200 -4.0881  1.4204
   94RES   H11939365   0.353   1.351   7.333  0.0622  0.5130  0.6571
   94RES   H12039366   0.489   1.368   7.250  1.2712 -1.2972  0.5183
   94RES   H12139367   0.635   1.439   7.452  0.4218 -1.0517  0.2908
   94RES   H12239368   0.578   1.278   7.452  0.4550  0.6511  0.1967
   94RES   H12339369   0.453   1.495   7.608  2.0430 -0.4089  0.6975
   94RES   H12439370   0.379   1.348   7.600 -0.3991  0.5889 -2.9804
   94RES   H12539371   0.608   1.223   7.667 -1.0982 -0.6627 -0.9863
   94RES   H12639372   0.653   1.387   7.715 -1.0642  1.7507 -2.0138
   94RES   H12739373   0.510   1.319   0.061 -2.4815  0.0227 -2.0566
   94RES   C12839374   0.228   1.733   7.288  0.5814 -0.1599 -0.2974
   94RES   C12939375   0.205   1.750   7.443 -0.1812 -0.6838  0.1476
   94RES   C13039376   0.080   1.663   7.491 -0.0041 -0.0755  0.0380
   94RES   C13139377   0.120   1.555   7.586  0.1383  0.4652 -0.8825
   94RES   C13239378   0.016   1.450   7.616 -0.1458  0.0591  0.2631
   94RES   C13339379   0.014   1.340   7.511  0.1820 -0.5799 -0.1474
   94RES   C13439380   7.642   1.224   7.533  0.3438  0.4739  0.9440
   94RES   H13539381   0.301   1.801   7.243 -1.0038  0.9660 -1.2309
   94RES   H13639382   0.135   1.763   7.239  1.2510  1.0015 -0.8890
   94RES   H13739383   0.299   1.718   7.489 -0.2753 -2.3774 -0.7975
   94RES   H13839384   0.037   1.620   7.400  1.6365 -0.7306 -0.4567
   94RES   H13939385   0.005   1.728   7.535  0.6180  0.5395  0.2019
   94RES   H14039386   0.146   1.610   7.676  0.1578  1.0475 -1.2379
   94RES   H14139387   0.213   1.511   7.548  0.4209  0.5306 -0.2671
   94RES   H14239388   7.646   1.498   7.633  0.3994  1.7505 -1.3205
   94RES   H14339389   0.046   1.400   7.708  0.4903 -0.0125  0.0142
   94RES   H14439390   0.115   1.302   7.491 -0.2690 -2.1656  0.5351
   94RES   H14539391   7.706   1.380   7.415 -1.5092 -0.1850  0.6144
   94RES   H14639392   7.639   1.172   7.438 -1.0310 -1.1248  1.8298
   94RES   H14739393   7.547   1.274   7.555 -0.9492  0.0533 -3.2965
   94RES   H14839394   7.677   1.167   7.619  2.1064  1.2790  0.7735
   94RES   C14939395   0.198   1.896   7.492  0.8274  0.0829  0.3673
   94RES   C15039396   0.315   1.989   7.437 -0.3998 -0.2071 -0.0746
   94RES   C15139397   0.463   1.936   7.456  0.1198  0.0916  0.2107
   94RES   C15239398   0.517   1.936   7.603 -0.1733  0.4100  0.4639
   94RES   C15339399   0.592   1.807   7.626 -0.5141 -0.3304 -0.1533
   94RES   C15439400   0.660   1.784   0.034 -0.1046 -0.0709 -0.8432
   94RES   C15539401   0.796   1.853   0.051  0.0394  0.0006 -0.0916
   94RES   H15639402   0.105   1.940   7.458  1.3183  1.6038  0.9472
   94RES   H15739403   0.198   1.903   7.601  2.6631  0.3445  0.3732
   94RES   H15839404   0.311   1.990   7.328  2.7795  0.3884 -0.2336
   94RES   H15939405   0.463   1.834   7.419  0.0325  0.1984 -0.0841
   94RES   H16039406   0.536   1.987   7.394  0.6899  0.6075  1.2982
   94RES   H16139407   0.437   1.937   7.677 -0.6681 -0.7810 -0.0465
   94RES   H16239408   0.576   2.026   7.622  0.3499 -0.0259  0.9079
   94RES   H16339409   0.673   1.787   7.556 -0.9925  1.1101 -1.1394
   94RES   H16439410   0.522   1.726   7.607 -0.2541 -0.5547 -0.1505
   94RES   H16539411   0.676   1.676   0.035  0.8857  0.0203 -2.9559
   94RES   H16639412   0.594   1.813   0.115 -1.8749 -2.3077 -1.4253
   94RES   H16739413   0.845   1.843   7.681 -2.0031 -0.6954 -1.0809
   94RES   H16839414   0.858   1.820   0.134 -0.9102 -0.6879  0.3412
   94RES   H16939415   0.797   1.958   0.080  0.2986 -0.2778  0.9280
   94RES   C17039416   0.299   2.136   7.493 -0.3717  1.0591  0.1541
   94RES   C17139417   0.412   2.236   7.451  0.2943 -0.1787 -0.2433
   94RES   C17239418   0.399   2.283   7.301 -0.3107  0.0813  0.1160
   94RES   C17339419   0.495   2.393   7.271  0.0591 -0.3802  0.0392
   94RES   C17439420   0.503   2.419   7.119 -0.5378  0.1403  0.2840
   94RES   C17539421   0.371   2.447   7.037 -0.4923  0.6704 -0.0063
   94RES   C17639422   0.306   2.591   7.054  0.0980 -0.1345  0.0471
   94RES   H17739423   0.298   2.122   7.601 -1.1185  2.4304  0.3350
   94RES   H17839424   0.198   2.171   7.474 -1.4379 -1.7877  0.2848
   94RES   H17939425   0.512   2.193   7.456  0.2495 -0.0882  3.3501
   94RES   H18039426   0.299   2.318   7.276 -0.4917 -1.5957 -1.5991
   94RES   H18139427   0.413   2.201   7.231 -0.2905  1.9337 -2.0769
   94RES   H18239428   0.594   2.366   7.308 -0.0933  0.4713  1.0871
   94RES   H18339429   0.470   2.489   7.318 -0.9445 -0.3647 -0.5131
   94RES   H18439430   0.545   2.325   7.083  1.0436  0.8795  0.1171
   94RES   H18539431   0.584   2.490   7.099  0.2155 -0.6625  0.4567
   94RES   H18639432   0.308   2.360   7.058 -1.1095  0.7726 -1.3889
   94RES   H18739433   0.389   2.426   6.932  0.9023  1.5260  0.0563
   94RES   H18839434   0.335   2.672   6.987  0.7778 -0.1914  0.2687
   94RES   H18939435   0.322   2.630   7.154  0.2857  1.7644 -0.7035
   94RES   H19039436   0.199   2.583   7.039  0.2316 -2.3333  0.0390
   94RES   C19139437   0.401   2.347   7.554 -0.4168  0.9313 -0.1275
   94RES   C19239438   0.476   2.317   7.688 -0.2917  0.0355 -0.3181
   94RES   C19339439   0.625   2.341   7.675  0.5859  0.2042  0.3190
   94RES   C19439440   0.697   2.288   0.074  0.7193  0.0752 -0.4050
   94RES   C19539441   0.853   2.285   0.071 -0.4528  0.4271  0.5278
   94RES   C19639442   0.907   2.242   0.209  0.2167 -0.6153 -0.2551
   94RES   C19739443   1.053   2.197   0.193 -0.0745  1.0015 -0.6895
   94RES   H19839444   0.295   2.357   7.573 -0.5191 -2.0201  1.0940
   94RES   H19939445   0.439   2.444   7.523 -1.4614  0.7040 -2.1748
   94RES   H20039446   0.469   2.209   7.704 -0.7490  0.4336  2.4204
   94RES   H20139447   0.643   2.448   7.664 -1.2252  0.4508 -0.4103
   94RES   H20239448   0.671   2.291   7.590  0.3644 -0.4738  0.5898
   94RES   H20339449   0.670   2.188   0.105 -0.4662  0.9062  1.3005
   94RES   H20439450   0.672   2.346   0.163  2.7203 -0.5542  0.6065
   94RES   H20539451   0.888   2.207   0.003 -0.7517  2.0930 -1.6071
   94RES   H20639452   0.887   2.384   0.040  2.9041 -0.9109 -0.2534
   94RES   H20739453   0.854   2.163   0.264 -0.8315 -0.9194 -1.6773
   94RES   H20839454   0.895   2.330   0.272  2.1141  0.5161 -1.4417
   94RES   H20939455   1.090   2.179   0.294 -1.8534  1.0735  0.0078
   94RES   H21039456   1.108   2.268   0.131  0.0435  0.4347 -1.2332
   94RES   H21139457   1.061   2.098   0.147  0.6107  0.6345  0.2152
   94RES   C21239458   0.406   2.390   0.082  0.4514 -0.8818 -0.3168
   94RES   C21339459   0.333   2.287   0.181 -0.2402 -0.2423 -0.6940
   94RES   C21439460   0.323   2.334   0.327 -0.9013  0.0492 -0.6101
   94RES   C21539461   0.450   2.381   0.394 -0.0440 -0.1538 -0.1291
   94RES   C21639462   0.454   2.382   0.554 -0.3025 -0.0569 -0.1827
   94RES   C21739463   0.587   2.422   0.620  0.0155 -0.4247 -0.6697
   94RES   C21839464   0.588   2.388   0.772  0.1230  0.3428 -0.1073
   94RES   H21939465   0.340   2.468   0.044  0.3806 -1.7352 -1.9592
   94RES   H22039466   0.479   2.455   0.131 -0.2850 -0.8371  0.7350
   94RES   H22139467   0.384   2.191   0.177 -1.3700 -0.8507 -0.4184
   94RES   H22239468   0.262   2.423   0.342 -0.4464  0.1511  0.7993
   94RES   H22339469   0.270   2.268   0.395  1.6834  0.1850  1.6439
   94RES   H22439470   0.481   2.480   0.363 -1.0354  0.8731  2.0505
   94RES   H22539471   0.530   2.311   0.368  0.3287  0.5375 -0.8761
   94RES   H22639472   0.378   2.456   0.578  0.8913  0.9997  0.4146
   94RES   H22739473   0.411   2.287   0.586  0.8265  0.0015  1.6447
   94RES   H22839474   0.671   2.387   0.560 -0.4298 -1.7959 -0.5256
   94RES   H22939475   0.582   2.530   0.607 -0.7232 -0.1378  1.7594
   94RES   H23039476   0.545   2.468   0.833 -0.6544 -0.9406  1.0718
   94RES   H23139477   0.693   2.374   0.798 -0.8110 -0.2866  3.6375
   94RES   H23239478   0.538   2.291   0.784 -0.5844  0.5171 -1.6164
   94RES   C23339479   0.195   2.262   0.122 -0.5572 -0.2853 -0.0020
   94RES   C23439480   0.120   2.147   0.183 -0.1740  0.8297 -0.1738
   94RES   C23539481   7.700   2.151   0.140  0.1675 -0.2710  0.4259
   94RES   C23639482   7.670   2.131   7.716  0.1196  0.4456  0.0917
   94RES   C23739483   7.526   2.094   7.680 -0.2060 -0.7096  0.4372
   94RES   C23839484   7.504   2.007   7.553  0.2249 -0.4859 -0.1973
   94RES   C23939485   7.352   1.996   7.522  0.1128  0.2927  0.1937
   94RES   H24039486   0.209   2.255   0.014  3.4121 -0.0842  0.4329
   94RES   H24139487   0.134   2.352   0.130  1.2359  0.7440  2.7156
   94RES   H24239488   0.125   2.174   0.288  2.0782  0.9417 -0.2981
   94RES   H24339489   7.650   2.246   0.158 -1.3291 -0.9277 -0.2092
   94RES   H24439490   7.650   2.082   0.207  0.4471 -0.0189  0.8992
   94RES   H24539491   7.725   2.041   7.688  2.4080  1.3227  1.6300
   94RES   H24639492   7.716   2.204   7.649  0.4210 -2.2439 -2.7877
   94RES   H24739493   7.478   2.189   7.659  1.4845  0.2200  0.6756
   94RES   H24839494   7.478   2.047   0.039  2.3494 -1.9327  1.2757
   94RES   H24939495   7.550   2.061   7.470  0.8842  0.6640  0.9069
   94RES   H25039496   7.545   1.907   7.569  0.7981 -0.1722  0.3127
   94RES   H25139497   7.310   2.093   7.498  0.6117  0.3378 -0.5286
   94RES   H25239498   7.329   1.939   7.432 -3.1514  0.3691  0.9386
   94RES   H25339499   7.289   1.954   7.600 -2.1771  1.6176 -0.8959
   94RES   C25439500   0.182   2.001   0.170 -0.0426  0.1049 -1.2792
   94RES   C25539501   0.126   1.880   0.254 -0.2572 -0.6236 -0.5124
   94RES   C25639502   0.115   1.910   0.405  0.6172  0.0371  0.5463
   94RES   C25739503   0.247   1.937   0.470 -0.7186 -0.3679 -0.3259
   94RES   C25839504   0.231   1.973   0.622 -0.2165  0.6031 -0.0133
   94RES   C25939505   0.354   1.990   0.707 -0.2242 -0.2663 -0.1191
   94RES   C26039506   0.402   1.846   0.750 -0.1714  0.3914 -0.0064
   94RES   H26139507   0.286   1.998   0.203 -0.6297 -2.1497  0.4932
   94RES   H26239508   0.194   1.981   0.064 -1.2319 -0.5693 -1.2901
   94RES   H26339509   0.025   1.866   0.218 -0.3319 -1.5856  0.0614
   94RES   H26439510   0.064   1.823   0.446  0.3589 -0.1670 -0.1952
   94RES   H26539511   0.053   2.000   0.413 -1.0563 -0.8680 -1.5668
   94RES   H26639512   0.308   1.846   0.468 -1.6063 -0.9785  0.1567
   94RES   H26739513   0.306   2.007   0.411 -0.5741 -0.7984 -0.6997
   94RES   H26839514   0.155   1.905   0.662 -1.0340  0.6439 -1.4521
   94RES   H26939515   0.187   2.071   0.642  0.9766  1.2443 -0.4746
   94RES   H27039516   0.425   2.051   0.650 -0.2544  0.3431  0.4906
   94RES   H27139517   0.335   2.050   0.796  1.1900 -0.4357  0.3095
   94RES   H27239518   0.481   1.858   0.824  2.3514  1.9820 -2.8525
   94RES   H27339519   0.328   1.797   0.813 -0.5100 -0.0306 -0.7389
   94RES   H27439520   0.453   1.783   0.679  1.8320  0.9364  0.9141
   94RES   C27539521   0.220   1.767   0.207 -0.1136  0.0105  0.4902
   94RES   C27639522   0.192   1.625   0.261  0.1920  0.5867 -0.0369
   94RES   C27739523   0.285   1.516   0.185 -0.2017  0.4923  0.8373
   94RES   C27839524   0.365   1.423   0.275  0.4123  0.1764 -0.1318
   94RES   C27939525   0.495   1.488   0.319  0.0599 -0.3898  0.0083
   94RES   C28039526   0.596   1.392   0.386  0.0778  0.3477  0.5830
   94RES   C28139527   0.721   1.469   0.438 -0.7328  0.3202 -0.1914
   94RES   H28239528   0.324   1.792   0.229 -0.0915 -0.2474  0.6773
   94RES   H28339529   0.209   1.756   0.099  0.1784  1.7439  0.2592
   94RES   H28439530   0.232   1.624   0.363  2.7643  0.0457 -1.0229
   94RES   H28539531   0.215   1.457   0.126  1.0655 -0.4526  0.2395
   94RES   H28639532   0.350   1.568   0.114  0.2769 -2.1585 -0.7240
   94RES   H28739533   0.397   1.336   0.218  2.2613  0.6241  0.1950
   94RES   H28839534   0.307   1.392   0.362 -0.0596 -1.7498 -1.1023
   94RES   H28939535   0.465   1.566   0.389  1.3270 -0.0254  0.1702
   94RES   H29039536   0.555   1.542   0.245 -0.4073 -1.7050 -1.3674
   94RES   H29139537   0.553   1.351   0.477  1.4456  0.9535  1.5196
   94RES   H29239538   0.622   1.309   0.321 -0.1523  0.8028 -0.1011
   94RES   H29339539   0.771   1.526   0.360  3.2781  2.0267  3.3992
   94RES   H29439540   0.799   1.407   0.483  0.8788  3.0564  0.9761
   94RES   H29539541   0.691   1.543   0.513  0.0129 -0.1403  0.5709
   94RES   C29639542   0.037   1.581   0.260 -0.2549 -0.4026 -0.4821
   94RES   C29739543   7.713   1.478   0.364 -0.8234  0.0064 -0.4070
   94RES   C29839544   7.566   1.441   0.337 -0.5733  0.9743  0.3236
   94RES   C29939545   7.542   1.288   0.317 -0.5035  0.7032  0.0140
   94RES   C30039546   7.608   1.232   0.192  0.2601  0.3972 -0.1242
   94RES   C30139547   7.620   1.080   0.197 -0.2409  0.1242  0.5226
   94RES   C30239548   7.478   1.007   0.210 -0.4407 -0.1644 -0.0601
   94RES   H30339549   7.698   1.666   0.281 -1.6804 -1.4305 -0.6781
   94RES   H30439550   0.002   1.537   0.167 -1.0858 -1.2548  0.2269
   94RES   H30539551   0.057   1.396   0.378 -1.0940 -0.3564 -1.1535
   94RES   H30639552   7.509   1.473   0.424 -0.1920 -0.3907  1.0985
   94RES   H30739553   7.526   1.497   0.252  0.9501 -0.0013 -1.0651
   94RES   H30839554   7.434   1.271   0.320 -0.2939 -0.9791 -1.0363
   94RES   H30939555   7.573   1.232   0.405 -2.0598 -0.9746 -0.4606
   94RES   H31039556   7.709   1.274   0.198  0.2667  0.6756 -2.0858
   94RES   H31139557   7.557   1.256   0.099  0.0061  0.9881  0.1629
   94RES   H31239558   7.673   1.047   0.107 -0.2236 -0.9807  0.9282
   94RES   H31339559   7.686   1.056   0.281 -1.4113  2.3885  2.1252
   94RES   H31439560   7.405   1.040   0.136  1.9262  2.6892 -1.1926
   94RES   H31539561   7.485   0.898   0.201 -0.5703 -0.2420  0.7655
   94RES   H31639562   7.433   1.004   0.309  1.0842 -0.6877  0.6257
   94RES   C31739563   7.726   1.530   0.513  0.6659 -0.4530 -0.3788
   94RES   C31839564   7.694   1.427   0.625  0.0542 -0.7513 -0.2700
   94RES   C31939565   0.085   1.322   0.650  0.3483 -0.3454 -0.6935
   94RES   C32039566   0.224   1.391   0.680 -0.2210 -0.1530 -0.5889
   94RES   C32139567   0.323   1.300   0.749  0.6492 -0.1831  0.0009
   94RES   C32239568   0.446   1.373   0.805  0.1119 -0.2514  0.2605
   94RES   C32339569   0.419   1.494   0.894 -0.4380  0.2745 -0.3231
   94RES   H32439570   7.661   1.617   0.520  0.8135 -0.2405 -1.5187
   94RES   H32539571   0.100   1.571   0.523  0.0203  1.3278 -0.9485
   94RES   H32639572   7.608   1.371   0.588  0.4416 -0.1194 -2.2324
   94RES   H32739573   0.092   1.261   0.560 -0.1176 -1.3793 -0.0387
   94RES   H32839574   0.052   1.247   0.723  0.2622  1.9943  1.7673
   94RES   H32939575   0.198   1.475   0.746 -0.0511 -1.0957  0.7030
   94RES   H33039576   0.272   1.426   0.589  1.5586  0.8103  0.6787
   94RES   H33139577   0.362   1.225   0.679 -1.7675  0.4397 -2.1153
   94RES   H33239578   0.277   1.245   0.831 -0.0418  2.5961  1.5418
   94RES   H33339579   0.508   1.411   0.723  0.5238  0.0007  0.6839
   94RES   H33439580   0.501   1.303   0.869 -0.3959 -1.5199 -0.6700
   94RES   H33539581   0.394   1.583   0.835  0.5312  0.2826 -0.7263
   94RES   H33639582   0.509   1.519   0.950 -1.0548 -1.3319  1.4484
   94RES   H33739583   0.337   1.481   0.964  1.6569  1.2253  2.4027
   94RES   C33839584   7.647   1.499   0.752 -0.1898  0.5607  0.7821
   94RES   C33939585   7.619   1.405   0.874  0.2856  0.8684 -0.2885
   94RES   C34039586   7.505   1.305   0.831 -0.0451 -0.7595  0.2444
   94RES   C34139587   7.378   1.374   0.785 -1.0029 -0.5688  0.2317
   94RES   C34239588   7.277   1.269   0.755  0.4636 -0.1165  0.0277
   94RES   C34339589   7.147   1.338   0.692  0.2965 -0.0180  0.1919
   94RES   C34439590   7.020   1.244   0.703  0.0421  0.1651  1.1319
   94RES   H34539591   7.563   1.562   0.723  0.2322  1.3538  1.2358
   94RES   H34639592   7.712   1.583   0.778 -1.0193  0.4102  3.5104
   94RES   H34739593   7.700   1.339   0.903 -0.9394 -0.1567  0.8434
   94RES   H34839594   7.525   1.233   0.751  0.9774  0.3996 -0.5592
   94RES   H34939595   7.485   1.246   0.921 -1.4088 -2.3317 -1.0664
   94RES   H35039596   7.394   1.429   0.691 -0.0693 -0.3028  0.5354
   94RES   H35139597   7.338   1.459   0.840  0.8533  0.0337  0.6829
   94RES   H35239598   7.317   1.192   0.689 -1.3021 -0.3007 -0.8580
   94RES   H35339599   7.248   1.227   0.851 -0.1482  0.0034 -0.0976
   94RES   H35439600   7.131   1.422   0.759  2.1079 -1.1658  2.1488
   94RES   H35539601   7.176   1.360   0.589 -0.3019  0.0562  0.0379
   94RES   H35639602   7.042   1.140   0.683 -1.7050 -0.3269  1.6433
   94RES   H35739603   6.935   1.260   0.636  1.8508 -0.7626 -1.4186
   94RES   H35839604   6.984   1.261   0.805 -2.1189  1.8838  0.1368
   94RES   C35939605   7.585   1.482   1.000 -0.2647 -0.1221  0.0907
   94RES   C36039606   7.701   1.542   1.076 -0.5187  0.4526  0.0594
   94RES   C36139607   7.720   1.690   1.040 -0.0529 -0.0124  0.5986
   94RES   C36239608   0.130   1.746   1.085 -0.4679 -0.6803 -0.2691
   94RES   C36339609   0.162   1.892   1.047 -0.0072 -0.0912  1.1253
   94RES   C36439610   0.073   1.997   1.113 -0.4109  0.1049 -0.6044
   94RES   C36539611   0.028   2.115   1.034  0.4013  0.5346  0.0200
   94RES   H36639612   7.546   1.409   1.071  1.2815  0.2104  1.3001
   94RES   H36739613   7.507   1.554   0.976  1.7172  1.0060 -3.3256
   94RES   H36839614   0.067   1.492   1.048  0.2714  1.2108  1.2989
   94RES   H36939615   7.704   1.716   0.935 -0.7482  0.9428  0.9267
   94RES   H37039616   7.636   1.745   1.084  0.0732  1.1258 -0.5406
   94RES   H37139617   0.160   1.738   1.189  0.5615 -0.0851 -0.5131
   94RES   H37239618   0.198   1.682   1.029 -0.1064 -0.9495  0.4771
   94RES   H37339619   0.267   1.901   1.073  0.2816 -1.1781  0.3976
   94RES   H37439620   0.141   1.892   0.940 -0.5374  2.0662  1.2040
   94RES   H37539621   7.713   1.951   1.161 -0.3773  0.0095 -0.6342
   94RES   H37639622   0.126   2.050   1.192  0.7161 -0.4628 -0.9731
   94RES   H37739623   0.118   2.153   0.987 -0.0801  0.1078 -1.2655
   94RES   H37839624   7.679   2.105   0.956  0.2281 -1.0011  0.3625
   94RES   H37939625   7.717   2.193   1.100 -1.9286 -0.3232 -0.2368
   94RES   C38039626   7.681   1.535   1.236 -0.0926 -0.4193  0.2221
   94RES   C38139627   7.702   1.406   1.303  0.4858  0.5980  0.1289
   94RES   C38239628   0.112   1.391   1.374 -0.3059 -0.3632 -0.4291
   94RES   C38339629   0.229   1.380   1.271  0.0866  0.7349  0.1452
   94RES   C38439630   0.371   1.349   1.334  0.0574 -0.3955  0.0589
   94RES   C38539631   0.483   1.334   1.230  0.5866  0.0670 -0.7789
   94RES   C38639632   0.602   1.257   1.274  0.0630  0.5253 -0.1103
   94RES   H38739633   0.028   1.597   1.287  0.0604  0.1575 -0.6808
   94RES   H38839634   7.578   1.563   1.258 -0.3224 -0.3929 -0.8887
   94RES   H38939635   7.715   1.332   1.223 -1.1587  1.8063 -1.2959
   94RES   H39039636   0.110   1.292   1.421  1.3715  0.4439  1.3945
   94RES   H39139637   0.138   1.466   1.448 -0.8863  0.5842 -1.1772
   94RES   H39239638   0.214   1.293   1.207 -0.3334  1.1552 -0.3354
   94RES   H39339639   0.242   1.471   1.212 -2.1936 -0.2830 -2.0453
   94RES   H39439640   0.394   1.439   1.391 -0.6820 -0.7478  0.9309
   94RES   H39539641   0.361   1.261   1.398  1.5604 -0.3664  0.3640
   94RES   H39639642   0.522   1.429   1.194  2.0393  0.2494  1.2039
   94RES   H39739643   0.447   1.282   1.141  0.9810 -0.2586 -0.7545
   94RES   H39839644   0.578   1.175   1.341 -1.4263  1.6264  0.7455
   94RES   H39939645   0.672   1.314   1.335  1.2674 -0.9824 -0.0705
   94RES   H40039646   0.649   1.218   1.185  1.4270 -0.7131  1.1314
   94RES   C40139647   7.586   1.358   1.394  0.6346 -1.1827  0.0962
   94RES   C40239648   7.450   1.321   1.325  0.1997  0.4561 -0.1752
   94RES   C40339649   7.456   1.189   1.249  0.6038  0.0583 -0.1639
   94RES   C40439650   7.330   1.152   1.170  0.4672  0.7851  0.4852
   94RES   C40539651   7.346   1.003   1.120  0.4029  0.1691  0.5848
   94RES   C40639652   7.217   0.942   1.060  0.0768  0.3792 -0.5783
   94RES   C40739653   7.105   0.939   1.166 -0.7229 -1.1381  0.9750
   94RES   H40839654   7.560   1.428   1.474  0.1976 -3.3429  1.9004
   94RES   H40939655   7.609   1.270   1.453  2.1546  0.7708  2.5102
   94RES   H41039656   7.408   1.398   1.261 -0.1698 -0.0726 -0.5673
   94RES   H41139657   7.476   1.116   1.328 -0.0133  2.4649  2.3014
   94RES   H41239658   7.540   1.189   1.180 -0.6062  0.9118 -1.6758
   94RES   H41339659   7.323   1.221   1.086 -1.3150 -1.2736 -1.1228
   94RES   H41439660   7.240   1.159   1.231 -0.7824  1.9192 -1.4200
   94RES   H41539661   7.421   0.996   1.042  1.3631  0.9388  1.4176
   94RES   H41639662   7.394   0.938   1.193 -0.3697 -1.0702  0.0118
   94RES   H41739663   7.182   1.004   0.978 -1.1347  1.2744  0.5814
   94RES   H41839664   7.237   0.838   1.034  1.6122 -0.2469  2.8331
   94RES   H41939665   7.022   0.882   1.125 -1.3991  1.0347 -0.7725
   94RES   H42039666   7.069   1.041   1.182 -0.4061 -0.6947 -1.0086
   94RES   H42139667   7.141   0.910   1.264 -0.8350  0.8087  1.6218
   94RES   H42239668   7.379   1.312   1.407 -0.4267  0.4141 -0.7223
   95RES     C139669   1.334   6.270   0.757 -0.5839 -0.7307 -0.1436
   95RES     C239670   1.456   6.215   0.685 -0.3369 -0.2288  0.4920
   95RES     C339671   1.532   6.324   0.604 -1.0679 -0.2820 -0.2629
   95RES     C439672   1.662   6.272   0.537  0.2528 -0.1655  0.9798
   95RES     C539673   1.785   6.247   0.629  0.2648 -0.2889 -0.4834
   95RES     C639674   1.922   6.258   0.563  0.2864  0.0250 -0.1731
   95RES     C739675   2.024   6.213   0.658  0.3030  0.3800 -0.6327
   95RES     H839676   1.350   6.369   0.802 -0.7537 -0.6678 -0.2223
   95RES     H939677   1.309   6.202   0.838 -1.1042 -0.1401  0.2006
   95RES    H1039678   1.527   6.178   0.759  0.8339  1.8812  0.4460
   95RES    H1139679   1.471   6.362   0.523 -0.3427  0.3142 -0.5402
   95RES    H1239680   1.553   6.406   0.673  1.0629 -1.3806  0.4210
   95RES    H1339681   1.641   6.192   0.466  1.8802 -0.3277  0.6626
   95RES    H1439682   1.700   6.359   0.483  0.2807  0.9656  2.7659
   95RES    H1539683   1.784   6.142   0.658 -0.1868 -0.7817 -2.2274
   95RES    H1639684   1.772   6.302   0.723  0.1759 -0.5022 -0.3718
   95RES    H1739685   1.944   6.360   0.531  2.6778  0.1554  1.7398
   95RES    H1839686   1.924   6.199   0.471 -1.5728  1.5488 -1.2370
   95RES    H1939687   2.007   6.109   0.688  0.1590  0.5007 -0.2959
   95RES    H2039688   2.026   6.275   0.747  0.9006  0.5069 -0.7349
   95RES    H2139689   2.122   6.237   0.617 -0.1464  3.0582 -0.2284
   95RES    H2239690   1.244   6.292   0.699 -0.5047 -1.1474 -0.4191
   95RES    C2339691   1.404   6.093   0.597 -0.4872 -0.1442  0.3455
   95RES    C2439692   1.362   5.967   0.676 -0.5668  0.6493  0.7149
   95RES    C2539693   1.486   5.869   0.669 -0.6875  0.0375 -0.6829
   95RES    C2639694   1.607   5.906   0.768  0.1436 -0.1865  0.8047
   95RES    C2739695   1.729   5.815   0.756  0.2632 -1.1253 -0.1263
   95RES    C2839696   1.853   5.873   0.825  0.3261  0.7790  0.2667
   95RES    C2939697   1.856   5.853   0.978  0.2783 -0.4411 -0.8623
   95RES    H3039698   1.329   6.121   0.524 -1.7661 -0.4636  1.5130
   95RES    H3139699   1.482   6.063   0.527  1.0907  0.6249  1.7214
   95RES    H3239700   1.357   5.994   0.782 -0.2613  0.6907  0.7199
   95RES    H3339701   1.532   5.873   0.570  0.4106  1.6235 -0.1302
   95RES    H3439702   1.465   5.763   0.678 -0.1601  0.0707  1.1283
   95RES    H3539703   1.577   5.911   0.873 -3.4975 -2.3077 -0.0279
   95RES    H3639704   1.641   6.005   0.738 -1.1379  0.5339  1.6476
   95RES    H3739705   1.756   5.808   0.650  2.4260  0.7719  0.2453
   95RES    H3839706   1.710   5.717   0.800 -1.0059 -1.1194 -0.6449
   95RES    H3939707   1.848   5.979   0.800 -0.9688  0.3182 -1.5441
   95RES    H4039708   1.945   5.838   0.778 -0.7074  0.7820 -1.8277
   95RES    H4139709   1.843   5.749   1.009  0.7697 -0.3911 -0.4838
   95RES    H4239710   1.946   5.894   1.023 -1.3866 -0.4489  2.6179
   95RES    H4339711   1.769   5.900   1.024  1.4828  0.6043  0.3785
   95RES    C4439712   1.224   5.911   0.629  0.0185  0.7591 -0.1473
   95RES    C4539713   1.181   5.778   0.694  0.0035 -0.8048  0.1611
   95RES    C4639714   1.154   5.789   0.845  0.3519  0.4107 -0.2799
   95RES    C4739715   1.028   5.863   0.892 -0.8442  0.5506 -0.2039
   95RES    C4839716   1.005   5.883   1.042 -0.4416 -0.9712 -0.4539
   95RES    C4939717   0.873   5.952   1.083 -0.7159  1.1927  0.6470
   95RES    C5039718   0.763   5.950   0.965 -0.1682  0.0264 -0.0351
   95RES    H5139719   1.240   5.897   0.522 -0.9812 -1.2018 -0.0625
   95RES    H5239720   1.146   5.986   0.631  1.2378  2.0930 -1.3628
   95RES    H5339721   1.264   5.709   0.683  0.2283 -0.5875  0.4933
   95RES    H5439722   1.239   5.832   0.898  0.9299 -1.3862  0.2871
   95RES    H5539723   1.140   5.687   0.879 -1.2967  0.6986 -0.0699
   95RES    H5639724   1.020   5.959   0.841 -0.5856 -0.4005 -2.1139
   95RES    H5739725   0.942   5.812   0.846 -1.5755  1.9063 -0.3615
   95RES    H5839726   1.093   5.941   1.068 -0.0140 -1.0127 -1.8066
   95RES    H5939727   1.029   5.788   1.091 -0.0791 -0.5780  0.1372
   95RES    H6039728   0.890   6.058   1.101  2.2980  0.5499  1.8786
   95RES    H6139729   0.825   5.904   1.168 -0.4978 -1.8547 -0.8784
   95RES    H6239730   0.723   5.850   0.950 -0.3195 -0.1497  1.5059
   95RES    H6339731   0.793   6.003   0.874 -0.5112  1.6772  0.7956
   95RES    H6439732   0.675   6.007   0.995 -0.4845 -0.3278 -0.2748
   95RES    C6539733   1.063   5.716   0.619  0.1365  0.7263 -0.1077
   95RES    C6639734   1.102   5.640   0.497 -0.2324  0.0873 -0.0714
   95RES    C6739735   0.982   5.586   0.411 -0.4766  0.0209  0.6393
   95RES    C6839736   0.914   5.694   0.313  0.0875  0.4934 -0.1613
   95RES    C6939737   0.792   5.643   0.235 -0.1856 -0.5116  0.1221
   95RES    C7039738   0.745   5.727   0.122 -0.4297  0.2946  0.0695
   95RES    C7139739   0.699   5.867   0.148  0.4172  0.0296 -0.1563
   95RES    H7239740   1.003   5.651   0.684 -0.6984  1.8930  0.3006
   95RES    H7339741   0.991   5.795   0.598  0.3156  0.6437 -1.0283
   95RES    H7439742   1.172   5.695   0.434 -0.9921  3.7887  2.1878
   95RES    H7539743   1.010   5.497   0.354  2.3436  0.4538  1.2397
   95RES    H7639744   0.902   5.553   0.477 -2.4521  0.7965 -1.3007
   95RES    H7739745   0.875   5.776   0.373 -1.6421 -1.1315  0.9895
   95RES    H7839746   0.988   5.744   0.251  1.9245  0.6610  2.0603
   95RES    H7939747   0.811   5.540   0.204  1.8483 -0.3708  0.8276
   95RES    H8039748   0.708   5.630   0.303  0.2423 -0.4983  0.6495
   95RES    H8139749   0.668   5.675   0.065 -1.3293  0.2697  1.2900
   95RES    H8239750   0.827   5.739   0.051  0.6517  0.7491  1.3691
   95RES    H8339751   0.626   5.859   0.229  1.4331 -0.3256  0.7401
   95RES    H8439752   0.791   5.915   0.183  0.8187 -1.8939  1.5928
   95RES    H8539753   0.651   5.912   0.062 -1.1071 -0.2017  0.5554
   95RES    C8639754   1.194   5.518   0.539  0.1632  0.8057  0.5177
   95RES    C8739755   1.330   5.527   0.478 -0.1352 -0.2252  0.0474
   95RES    C8839756   1.430   5.442   0.557 -0.2575  0.1734  0.2650
   95RES    C8939757   1.575   5.469   0.512  0.5034 -0.1112 -0.2316
   95RES    C9039758   1.679   5.446   0.623  0.4172 -0.7227  0.0584
   95RES    C9139759   1.814   5.390   0.571 -0.4078 -0.3688 -0.0948
   95RES    C9239760   1.825   5.237   0.546 -0.3833 -0.2094 -0.6339
   95RES    H9339761   1.201   5.500   0.646  0.4667 -0.1562  0.3372
   95RES    H9439762   1.142   5.428   0.507  1.7124  0.5382 -1.3485
   95RES    H9539763   1.353   5.631   0.503  0.9857 -0.0928 -1.4609
   95RES    H9639764   1.414   5.448   0.665 -1.0788  0.7651  0.1174
   95RES    H9739765   1.404   5.341   0.525 -1.5371  0.4048  0.5233
   95RES    H9839766   1.601   5.419   0.419 -0.6458 -1.0522 -0.0634
   95RES    H9939767   1.585   5.576   0.490 -1.1568 -0.3119 -2.1498
   95RES   H10039768   1.630   5.384   0.698 -0.7298 -1.5669 -1.3779
   95RES   H10139769   1.691   5.542   0.675 -0.8313  0.0315 -1.0135
   95RES   H10239770   1.849   5.436   0.479 -0.9483 -0.5688 -0.4037
   95RES   H10339771   1.896   5.409   0.639 -1.0359 -0.3512  0.6658
   95RES   H10439772   1.919   5.214   0.496  0.4106  1.1805  0.1959
   95RES   H10539773   1.743   5.194   0.490 -0.8469 -0.3363  0.1353
   95RES   H10639774   1.824   5.189   0.644  0.2217 -2.0220 -1.4876
   95RES   C10739775   1.333   5.499   0.329 -0.3208  0.2219  0.2787
   95RES   C10839776   1.416   5.587   0.227  0.1559 -0.0460  0.4360
   95RES   C10939777   1.371   5.542   0.084  0.5106 -0.3873 -0.3458
   95RES   C11039778   1.244   5.620   0.037  0.0236  0.3567  0.4880
   95RES   C11139779   1.166   5.546   7.647 -0.6477 -0.2953  0.1340
   95RES   C11239780   1.099   5.642   7.554  0.2633 -0.2393  0.5103
   95RES   C11339781   1.024   5.581   7.428  0.1604  0.6656 -0.1644
   95RES   H11439782   1.229   5.510   0.299 -0.1625  1.6184  0.1804
   95RES   H11539783   1.343   5.392   0.314 -0.5528  0.3732 -0.9825
   95RES   H11639784   1.515   5.545   0.243  0.2515  1.2513  3.5046
   95RES   H11739785   1.343   5.437   0.088  1.0530 -0.5030  0.5230
   95RES   H11839786   1.457   5.556   0.019  1.5938 -2.0929  0.6780
   95RES   H11939787   1.173   5.639   0.118 -3.2841  1.4823 -2.5737
   95RES   H12039788   1.272   5.722   0.013 -1.1679  0.6564  0.3734
   95RES   H12139789   1.090   5.474   7.679  0.5203 -2.5282 -1.8949
   95RES   H12239790   1.244   5.489   7.595 -0.8504 -0.0055 -0.4850
   95RES   H12339791   1.020   5.701   7.601  0.0342  0.5074 -0.7835
   95RES   H12439792   1.177   5.716   7.536  0.0124 -0.4870 -1.7393
   95RES   H12539793   0.964   5.494   7.454  0.4616  0.8160  1.0868
   95RES   H12639794   0.965   5.655   7.374 -2.2517 -1.7250 -0.9285
   95RES   H12739795   1.104   5.534   7.370  0.0792 -0.4113  0.5697
   95RES   C12839796   1.434   5.736   0.257  0.2893 -0.1078 -0.0541
   95RES   C12939797   1.535   5.806   0.165  0.0325 -0.3162 -0.0662
   95RES   C13039798   1.679   5.756   0.168 -0.0442  0.4198 -0.0923
   95RES   C13139799   1.764   5.795   0.295 -0.1582 -0.2389  0.1368
   95RES   C13239800   1.909   5.729   0.303 -0.2531 -0.2095  0.5327
   95RES   C13339801   2.008   5.750   0.422 -0.0798  0.4242 -0.0932
   95RES   C13439802   2.094   5.883   0.414  0.5070  0.3614 -0.2696
   95RES   H13539803   1.336   5.781   0.272 -0.2025 -0.6136 -1.7052
   95RES   H13639804   1.483   5.740   0.355 -0.9297 -0.9968  0.5996
   95RES   H13739805   1.485   5.789   0.069 -0.8692 -0.1752  0.3750
   95RES   H13839806   1.739   5.792   0.084 -2.3212 -0.2082 -2.0491
   95RES   H13939807   1.683   5.647   0.165  1.6278  0.4828 -3.9251
   95RES   H14039808   1.707   5.774   0.385  0.2351  0.3138  0.5178
   95RES   H14139809   1.775   5.903   0.294  0.1751 -0.2221 -4.1625
   95RES   H14239810   1.963   5.763   0.214  0.5111 -2.1408  0.2473
   95RES   H14339811   1.898   5.621   0.300  0.7443 -0.3597  1.6483
   95RES   H14439812   2.085   5.674   0.406 -1.3336 -1.1408  1.1401
   95RES   H14539813   1.966   5.730   0.520  3.9192 -2.7588  1.0969
   95RES   H14639814   2.161   5.870   0.329  1.6589  1.6499  0.4184
   95RES   H14739815   2.150   5.895   0.507  0.5155 -1.1428 -0.0758
   95RES   H14839816   2.037   5.975   0.399  2.1646  1.3886 -0.4539
   95RES   C14939817   1.526   5.960   0.173  1.0154  0.1544 -0.8211
   95RES   C15039818   1.566   6.029   0.038 -0.0825 -0.5036 -0.2146
   95RES   C15139819   1.619   6.171   0.064 -0.6747  0.1169 -0.0281
   95RES   C15239820   1.753   6.200   0.120 -0.8956 -0.5404  0.1740
   95RES   C15339821   1.779   6.348   0.139  0.0609  0.2645 -0.0973
   95RES   C15439822   1.913   6.389   0.200 -0.7267 -0.1278 -0.3614
   95RES   C15539823   1.920   6.535   0.242 -0.0665  0.7590  0.4557
   95RES   H15639824   1.424   5.988   0.199 -0.0368 -3.2894 -0.9194
   95RES   H15739825   1.583   5.997   0.258 -1.0307  1.7261 -0.0908
   95RES   H15839826   1.646   5.968   7.722 -1.3072 -2.8623  0.7331
   95RES   H15939827   1.629   6.226   7.697 -3.0466 -0.8989 -0.9378
   95RES   H16039828   1.545   6.218   0.129 -0.4313 -0.2538  0.5162
   95RES   H16139829   1.825   6.153   0.054  0.1874  0.0454  0.9207
   95RES   H16239830   1.761   6.154   0.218 -0.0623  2.6798  1.6804
   95RES   H16339831   1.691   6.371   0.199 -0.3581  0.0305 -0.6185
   95RES   H16439832   1.768   6.402   0.045 -1.1123 -1.5174 -1.0017
   95RES   H16539833   1.983   6.373   0.118  0.6097  0.0813  0.7208
   95RES   H16639834   1.945   6.331   0.287 -0.3450  1.1558  0.3602
   95RES   H16739835   1.861   6.599   0.176 -2.2526 -1.1875  0.4528
   95RES   H16839836   2.020   6.572   0.264  0.9280 -0.9042 -1.0945
   95RES   H16939837   1.866   6.539   0.336 -1.4188 -0.7648 -0.2459
   95RES   C17039838   1.457   6.026   7.654 -0.0479 -0.8550 -0.3751
   95RES   C17139839   1.506   6.021   7.502  0.4539  0.6643 -0.2128
   95RES   C17239840   1.577   5.887   7.467 -0.2946  0.4053 -0.1586
   95RES   C17339841   1.494   5.764   7.459  0.6277 -0.3136 -0.6608
   95RES   C17439842   1.573   5.634   7.425  0.3831 -0.5431 -0.7128
   95RES   C17539843   1.488   5.512   7.395 -0.4091  0.0704 -0.4215
   95RES   C17639844   1.568   5.389   7.418  0.4476 -0.2196  0.0273
   95RES   H17739845   1.390   6.111   7.667  2.0755  0.8516 -0.2814
   95RES   H17839846   1.400   5.937   7.681  0.7761 -0.8149  1.6053
   95RES   H17939847   1.583   6.097   7.484 -1.2706  1.9245 -2.6559
   95RES   H18039848   1.659   5.871   7.536 -1.6162 -0.2619  1.3054
   95RES   H18139849   1.623   5.907   7.370  2.0187  2.2909  1.2751
   95RES   H18239850   1.415   5.768   7.383  1.3803  0.2788 -1.4238
   95RES   H18339851   1.440   5.746   7.552 -0.4942  1.6061 -0.9215
   95RES   H18439852   1.647   5.608   7.501 -2.3852  0.0734  2.3168
   95RES   H18539853   1.623   5.643   7.328 -1.6836  1.7153 -1.6356
   95RES   H18639854   1.431   5.513   7.303 -0.3299 -0.0297 -0.4700
   95RES   H18739855   1.402   5.517   7.462 -0.1127  1.6666 -0.1173
   95RES   H18839856   1.667   5.406   7.375 -0.4634 -1.4877 -2.6953
   95RES   H18939857   1.526   5.301   7.370  0.4716  0.7127 -1.7644
   95RES   H19039858   1.573   5.375   7.526  0.3476 -1.2979 -0.0996
   95RES   C19139859   1.396   6.070   7.398  0.0395  0.4169 -0.3545
   95RES   C19239860   1.436   6.078   7.246  0.4820 -0.3902  0.0646
   95RES   C19339861   1.310   6.076   7.153  0.7686  0.5881  0.1562
   95RES   C19439862   1.231   5.942   7.134 -0.3823 -0.0590 -0.2074
   95RES   C19539863   1.320   5.844   7.059 -0.6677  0.3663 -0.0750
   95RES   C19639864   1.242   5.723   7.005 -0.1689  0.2227  0.2397
   95RES   C19739865   1.322   5.601   6.957  0.2091 -0.6651  0.2187
   95RES   H19839866   1.354   6.166   7.424 -1.4513 -0.1832 -0.4897
   95RES   H19939867   1.322   5.990   7.403  1.3967 -0.8893 -0.5273
   95RES   H20039868   1.495   5.992   7.216  2.5497  1.0449 -0.0414
   95RES   H20139869   1.338   6.094   7.049 -1.6275 -0.2614 -0.6522
   95RES   H20239870   1.237   6.154   7.174  1.7552  0.8985  2.7113
   95RES   H20339871   1.145   5.960   7.070 -0.3584  0.6732 -0.0409
   95RES   H20439872   1.192   5.907   7.230 -0.5072 -0.8624 -0.5566
   95RES   H20539873   1.363   5.891   6.970 -1.4377  0.2632 -0.5113
   95RES   H20639874   1.397   5.804   7.124  0.4601 -0.6524 -1.9733
   95RES   H20739875   1.184   5.770   6.926 -0.1600 -0.7008 -0.3279
   95RES   H20839876   1.162   5.692   7.073 -1.0208 -0.6127 -1.1273
   95RES   H20939877   1.402   5.637   6.893 -0.2583  0.8456  0.4707
   95RES   H21039878   1.260   5.522   6.915 -1.8431  0.8387  0.3878
   95RES   H21139879   1.367   5.548   7.042  1.0038 -0.7383 -0.2368
   95RES   C21239880   1.522   6.208   7.214  0.6358  0.4281 -0.3452
   95RES   C21339881   1.672   6.180   7.224 -0.5118 -0.5253  0.3275
   95RES   C21439882   1.723   6.126   7.095 -0.1742  0.3231  0.0461
   95RES   C21539883   1.852   6.039   7.124  0.7203 -0.3727  0.6091
   95RES   C21639884   1.909   5.966   6.999  0.1253 -0.0844 -0.0203
   95RES   C21739885   1.910   5.811   7.024 -0.8620  0.1559  0.4526
   95RES   C21839886   1.774   5.735   7.019 -0.2672 -0.2934 -0.1720
   95RES   H21939887   1.508   6.291   7.283  1.0731 -0.8522  1.3205
   95RES   H22039888   1.488   6.247   7.118 -1.0867 -3.7244 -1.5418
   95RES   H22139889   1.699   6.121   7.311 -1.1147 -0.9559  0.2274
   95RES   H22239890   1.646   6.064   7.049 -1.4321  1.5000  0.5283
   95RES   H22339891   1.729   6.202   7.018  3.0423  0.4316  0.3404
   95RES   H22439892   1.834   5.966   7.202 -1.7962  1.0341  1.3744
   95RES   H22539893   1.932   6.109   7.150  1.7494 -0.6635 -1.5910
   95RES   H22639894   1.868   6.000   6.904 -0.2257 -0.8108 -0.1334
   95RES   H22739895   2.017   5.982   6.991  0.2375 -0.0465  1.3954
   95RES   H22839896   1.962   5.755   6.946  0.9139  1.5356  0.6086
   95RES   H22939897   1.954   5.793   7.122 -2.5130 -3.3503  0.5949
   95RES   H23039898   1.798   5.629   7.012 -0.9431 -0.4674  0.1379
   95RES   H23139899   1.714   5.760   6.932  0.1971  0.3503 -0.3165
   95RES   H23239900   1.706   5.756   7.102  0.5175  0.5171  0.2847
   95RES   C23339901   1.747   6.319   7.254 -0.0291 -0.0700 -0.4159
   95RES   C23439902   1.739   6.355   7.401  0.2531  0.0809 -0.1137
   95RES   C23539903   1.871   6.327   7.482 -0.0848 -0.6401  0.0402
   95RES   C23639904   1.998   6.390   7.427 -0.2104 -0.2217 -0.3983
   95RES   C23739905   2.113   6.382   7.527  0.1681  0.3257  0.7231
   95RES   C23839906   2.227   6.460   7.474 -0.3756 -0.0669  0.1696
   95RES   C23939907   2.345   6.467   7.567  0.0440 -0.0109  0.7521
   95RES   H24039908   1.699   6.398   7.198  1.9136  0.3697 -1.5068
   95RES   H24139909   1.851   6.308   7.223  0.1471 -1.9840  0.7733
   95RES   H24239910   1.656   6.300   7.446 -0.1536  2.7642  2.5409
   95RES   H24339911   1.887   6.219   7.490  0.7172 -0.6120 -1.0330
   95RES   H24439912   1.851   6.360   7.584 -0.3995 -1.9325  0.4075
   95RES   H24539913   1.985   6.493   7.393  1.1027 -0.0243 -0.3471
   95RES   H24639914   2.032   6.329   7.343  2.9792  2.9989 -1.5910
   95RES   H24739915   2.150   6.279   7.529  0.0809  0.3084  1.9061
   95RES   H24839916   2.091   6.409   7.630 -0.3364 -2.7857  1.5044
   95RES   H24939917   2.255   6.428   7.374  1.0805  0.0962  0.5153
   95RES   H25039918   2.190   6.562   7.466 -0.9991 -0.0057  3.2593
   95RES   H25139919   2.317   6.506   7.665 -1.5482  0.6277  0.0597
   95RES   H25239920   2.384   6.365   7.576  1.5676  0.4737 -0.1741
   95RES   H25339921   2.424   6.528   7.524 -1.0939  0.8375 -0.1843
   95RES   C25439922   1.706   6.509   7.412  0.4360  0.0470  0.2586
   95RES   C25539923   1.657   6.565   7.552  0.4119  0.2766 -0.2549
   95RES   C25639924   1.518   6.507   7.592  0.4461  0.8445  0.2460
   95RES   C25739925   1.402   6.513   7.495 -0.0273 -0.1508  0.2225
   95RES   C25839926   1.272   6.449   7.552 -0.0846 -0.0223 -0.7133
   95RES   C25939927   1.147   6.465   7.470 -0.5081 -0.3864 -0.8021
   95RES   C26039928   1.134   6.367   7.355 -0.0451  0.2423  0.5536
   95RES   H26139929   1.619   6.527   7.348 -0.5323 -0.2851  1.4575
   95RES   H26239930   1.793   6.564   7.376 -0.8063  0.1161 -2.7612
   95RES   H26339931   1.739   6.541   7.620  0.1862  1.4724  0.4502
   95RES   H26439932   1.493   6.548   7.690 -0.6867  1.6286 -0.3643
   95RES   H26539933   1.523   6.403   7.625  0.5144  1.2374  1.5069
   95RES   H26639934   1.391   6.619   7.471 -1.3048  0.2920  2.5671
   95RES   H26739935   1.434   6.455   7.409  0.6355  5.5913 -3.6430
   95RES   H26839936   1.264   6.497   7.650  1.1338 -0.7390 -0.2525
   95RES   H26939937   1.282   6.343   7.576  1.0828  0.2183 -0.0940
   95RES   H27039938   1.059   6.465   7.534  2.0759  1.6285  2.9136
   95RES   H27139939   1.150   6.568   7.437 -2.1973 -0.2331 -0.4815
   95RES   H27239940   1.213   6.372   7.281 -0.2914 -0.3392  0.2493
   95RES   H27339941   1.122   6.263   7.388  0.2375  0.3147  0.8848
   95RES   H27439942   1.043   6.392   7.301  1.2133 -1.1881 -2.3487
   95RES   C27539943   1.651   6.721   7.563 -0.2511 -0.4606 -0.3609
   95RES   C27639944   1.788   6.795   7.534 -0.1943 -0.0401  0.3653
   95RES   C27739945   1.907   6.757   7.631  0.3217 -0.6155  0.0662
   95RES   C27839946   2.052   6.813   7.602  0.1826  0.1003 -0.2110
   95RES   C27939947   2.154   6.742   7.688 -0.3029  0.2666  0.1772
   95RES   C28039948   2.167   6.790   0.107 -0.6312 -0.5607 -0.8365
   95RES   C28139949   2.239   6.925   0.110  0.3888 -0.1314 -0.1576
   95RES   H28239950   1.621   6.742   7.666 -1.7485 -0.9075 -0.6977
   95RES   H28339951   1.579   6.763   7.493  1.0651 -0.6785 -1.8510
   95RES   H28439952   1.820   6.772   7.432 -1.3043 -1.0277  0.2360
   95RES   H28539953   1.889   6.784   0.008  3.1546 -1.5737  0.8571
   95RES   H28639954   1.931   6.652   7.619 -0.4768 -0.8924  0.8971
   95RES   H28739955   2.049   6.920   7.622 -0.5018 -0.3249  2.1326
   95RES   H28839956   2.087   6.789   7.501 -0.0996 -2.6696  0.3005
   95RES   H28939957   2.256   6.736   7.649  0.4657 -1.4162  2.3517
   95RES   H29039958   2.125   6.639   7.710 -2.0559  0.5255 -0.7899
   95RES   H29139959   2.077   6.802   0.168  0.9641 -0.0623  1.5090
   95RES   H29239960   2.224   6.712   0.156  0.8805  0.1617 -1.4251
   95RES   H29339961   2.339   6.901   0.073  1.0493  0.4131  1.2500
   95RES   H29439962   2.265   6.954   0.211 -0.1277 -0.0161 -0.0573
   95RES   H29539963   2.187   7.000   0.050 -0.6003  0.8495  1.8742
   95RES   C29639964   1.770   6.950   7.527  0.2326 -0.2585  0.0320
   95RES   C29739965   1.856   7.012   7.411  0.3808  0.1731  0.7086
   95RES   C29839966   1.859   7.166   7.414 -0.0455  0.4636  0.2009
   95RES   C29939967   1.907   7.224   7.546 -0.1684 -0.6540 -0.6459
   95RES   C30039968   1.971   7.366   7.528 -0.5485 -0.6762 -0.0143
   95RES   C30139969   2.046   7.427   7.652  0.8129  1.5441 -0.6931
   95RES   C30239970   1.957   7.521   7.725 -0.3561  0.0586 -0.3365
   95RES   H30339971   1.668   6.986   7.523 -0.0540 -0.8600  1.6074
   95RES   H30439972   1.799   6.986   7.626 -0.5212 -0.2357  0.2446
   95RES   H30539973   1.959   6.984   7.432 -0.5899 -4.1369  0.3522
   95RES   H30639974   1.930   7.195   7.336  0.7423  1.7136  1.3695
   95RES   H30739975   1.760   7.208   7.397 -0.8354 -0.4980  2.2187
   95RES   H30839976   1.984   7.162   7.592  0.1367  1.4892  1.8211
   95RES   H30939977   1.825   7.235   7.617  1.1524 -2.4084  1.2107
   95RES   H31039978   1.904   7.442   7.488 -1.2071 -1.2684 -0.0352
   95RES   H31139979   2.041   7.356   7.445 -0.8938 -0.4912 -0.3280
   95RES   H31239980   2.090   7.350   7.715  0.0348  1.1498 -0.6256
   95RES   H31339981   2.133   7.485   7.621  1.5598  0.5949 -0.4197
   95RES   H31439982   1.928   7.606   7.663 -1.0410  1.5521  1.9888
   95RES   H31539983   1.866   7.469   0.028 -0.1978  0.1890  0.3744
   95RES   H31639984   2.005   7.557   0.089  0.4631 -0.0291 -0.7291
   95RES   C31739985   1.819   6.966   7.263 -0.1487  0.5052  0.0078
   95RES   C31839986   1.934   6.952   7.164  0.0170 -0.1374 -0.8296
   95RES   C31939987   2.002   6.821   7.188  0.1233  0.2761  0.3417
   95RES   C32039988   2.137   6.804   7.113  0.1227  0.0296  0.1292
   95RES   C32139989   2.190   6.659   7.147  0.0532  0.8080 -0.1449
   95RES   C32239990   2.332   6.640   7.097  0.3143  0.7086 -0.4351
   95RES   C32339991   2.382   6.499   7.117  0.1497  0.2415  0.3459
   95RES   H32439992   1.739   7.033   7.228 -0.1319  1.1365  1.1403
   95RES   H32539993   1.775   6.867   7.270  1.0341 -0.1094 -1.2017
   95RES   H32639994   2.009   7.031   7.164 -2.3305  2.1964  2.3407
   95RES   H32739995   1.936   6.739   7.162 -0.9578  1.2198  0.0770
   95RES   H32839996   2.032   6.803   7.291  0.1132  0.3001  0.3484
   95RES   H32939997   2.216   6.873   7.140 -1.2921  1.7672 -0.0852
   95RES   H33039998   2.123   6.816   7.005 -1.7796  0.8685  0.4381
   95RES   H33139999   2.123   6.585   7.104  1.1452 -0.2181 -0.1037
   95RES   H33240000   2.183   6.645   7.255 -1.1720 -0.0711 -0.3345
   95RES   H33340001   2.403   6.718   7.125  0.4203  0.3842  0.2157
   95RES   H33440002   2.323   6.654   6.989  0.0132  0.0654 -0.4972
   95RES   H33540003   2.460   6.481   7.043  0.6772 -3.0887  1.6120
   95RES   H33640004   2.303   6.427   7.096  2.0153 -2.3378  1.8619
   95RES   H33740005   2.416   6.494   7.220  1.2567 -2.2159 -0.1047
   95RES   C33840006   1.884   6.973   7.013  0.1973  0.2919 -0.6122
   95RES   C33940007   1.860   7.123   6.970 -0.0618 -0.2556 -0.0322
   95RES   C34040008   1.754   7.152   6.872 -0.6508 -0.6168  0.3690
   95RES   C34140009   1.764   7.100   6.732 -0.0597 -0.5323 -0.5446
   95RES   C34240010   1.663   7.168   6.643  0.3380 -0.4721  0.2370
   95RES   C34340011   1.626   7.101   6.517  0.3574  0.5783  0.6214
   95RES   C34440012   1.531   6.988   6.544 -0.6200  0.5243  0.2302
   95RES   H34540013   1.792   6.915   7.002  0.0835 -0.3549  3.1245
   95RES   H34640014   1.958   6.931   6.945 -0.6404 -1.1321 -0.6681
   95RES   H34740015   1.835   7.169   7.066  2.4347 -0.3450  0.6986
   95RES   H34840016   1.661   7.116   6.915 -0.2509 -2.3553 -0.1908
   95RES   H34940017   1.746   7.261   6.865  1.4224 -0.5329 -1.4156
   95RES   H35040018   1.751   6.991   6.734  0.6599 -0.6500 -1.9355
   95RES   H35140019   1.869   7.107   6.702  0.2476 -0.0553  0.6098
   95RES   H35240020   1.570   7.174   6.700  0.0937  1.1216 -0.2837
   95RES   H35340021   1.692   7.273   6.636 -1.4063 -0.0996 -1.7464
   95RES   H35440022   1.587   7.176   6.447 -1.2131  1.3449  2.2681
   95RES   H35540023   1.712   7.057   6.467  0.6108 -0.2000  1.7422
   95RES   H35640024   1.512   6.929   6.454 -0.3536  0.0505  0.4866
   95RES   H35740025   1.432   7.023   6.572  0.1783  1.6216  1.7473
   95RES   H35840026   1.566   6.925   6.625 -0.1127  4.0667  2.8798
   95RES   C35940027   1.994   7.200   6.929  0.2383 -0.5601 -0.4059
   95RES   C36040028   1.985   7.356   6.938  0.9005  0.4744 -0.4681
   95RES   C36140029   2.007   7.380   7.089 -0.0667  0.1392 -0.0137
   95RES   C36240030   2.020   7.526   7.124 -0.2427  0.2006  0.2475
   95RES   C36340031   1.905   7.618   7.074 -0.1833 -0.2642  0.0765
   95RES   C36440032   1.924   0.034   7.134 -0.6929 -0.6914 -0.0825
   95RES   C36540033   1.809   0.120   7.085 -0.0854 -0.5713  0.1392
   95RES   H36640034   2.033   7.163   6.834 -1.0427  0.9538 -1.5413
   95RES   H36740035   2.079   7.181   6.994 -0.4504  1.8326  1.2546
   95RES   H36840036   1.887   7.397   6.913 -0.0546 -1.6712 -0.3454
   95RES   H36940037   1.926   7.339   7.150 -0.5600  0.5668 -0.3799
   95RES   H37040038   2.102   7.339   7.122 -0.8402 -0.3747  1.6695
   95RES   H37140039   2.004   7.522   7.232  0.7532 -2.9516  0.3435
   95RES   H37240040   2.112   7.579   7.105  0.6787 -0.9305  1.4351
   95RES   H37340041   1.903   7.616   6.965 -0.1504 -0.3263  0.0773
   95RES   H37440042   1.812   7.569   7.104  0.8488 -2.1244  0.2907
   95RES   H37540043   1.911   0.041   7.242 -2.5429 -0.4463 -0.3043
   95RES   H37640044   2.017   0.081   7.102 -0.4407  0.2146  1.8512
   95RES   H37740045   1.722   0.067   7.123 -1.0214 -1.4798 -3.1101
   95RES   H37840046   1.810   0.217   7.134 -1.0421 -1.4168  1.8711
   95RES   H37940047   1.805   0.130   6.976  0.0990  2.0328  0.3249
   95RES   C38040048   2.093   7.426   6.852 -0.9336 -0.1567  0.3606
   95RES   C38140049   2.070   7.424   6.696 -0.0414  0.1930  1.1297
   95RES   C38240050   2.014   7.558   6.653 -0.1240 -0.0333 -0.2028
   95RES   C38340051   2.097   7.688   6.675 -0.1588 -0.2064 -0.2181
   95RES   C38440052   2.018   0.084   6.637 -1.3167 -0.4412  0.0391
   95RES   C38540053   2.105   0.220   6.629 -0.1791 -0.2449 -0.3652
   95RES   C38640054   2.164   0.262   6.770 -0.3838 -0.0365 -1.0986
   95RES   H38740055   2.099   7.531   6.882  0.0993  0.2276 -1.1487
   95RES   H38840056   2.185   7.375   6.881 -0.2460  0.3681 -0.9015
   95RES   H38940057   1.991   7.350   6.681  0.4899 -1.1074  4.3597
   95RES   H39040058   1.921   7.561   6.710 -0.5963  1.0327 -0.9968
   95RES   H39140059   1.971   7.556   6.553 -1.4322 -0.0835  0.3533
   95RES   H39240060   2.138   7.693   6.776 -0.6545 -3.0903  0.1691
   95RES   H39340061   2.184   7.671   6.612 -0.1672 -3.5999  0.5955
   95RES   H39440062   1.992   0.065   6.533 -1.2324 -0.4807  0.0251
   95RES   H39540063   1.931   0.093   6.703 -0.1330 -2.1634  1.8850
   95RES   H39640064   2.049   0.303   6.585  1.3015  1.7553  1.4574
   95RES   H39740065   2.179   0.201   6.551  0.3455 -1.7698  0.4908
   95RES   H39840066   2.234   0.346   6.770 -0.8945  0.3915 -1.3538
   95RES   H39940067   2.204   0.172   6.816 -1.1813 -0.5786 -1.4586
   95RES   H40040068   2.081   0.289   6.835 -1.9970 -2.1325 -2.1956
   95RES   C40140069   2.198   7.385   6.626  0.0422 -0.1101 -0.3674
   95RES   C40240070   2.187   7.365   6.471  0.6234 -0.6449 -0.0110
   95RES   C40340071   2.314   7.306   6.401  0.9129 -0.0055 -0.0602
   95RES   C40440072   2.427   7.404   6.374 -0.2711 -0.3699  1.2581
   95RES   C40540073   2.545   7.338   6.308 -0.2351 -0.5331 -0.1286
   95RES   C40640074   2.650   7.432   6.246 -0.0088  0.5492  0.5335
   95RES   C40740075   2.751   7.359   6.161 -0.3186  0.0630 -0.5650
   95RES   H40840076   2.216   7.289   6.673  1.2256 -2.1483 -4.7724
   95RES   H40940077   2.282   7.449   6.653 -1.3153  1.0467  1.2556
   95RES   H41040078   2.166   7.455   6.414  0.7517 -1.0103 -0.6397
   95RES   H41140079   2.292   7.257   6.306  1.0858  0.5903 -0.4108
   95RES   H41240080   2.351   7.220   6.456  0.8005 -1.0140 -1.5358
   95RES   H41340081   2.469   7.448   6.465 -2.9435 -0.7975  2.7604
   95RES   H41440082   2.384   7.477   6.306  0.4507 -0.4546  0.7031
   95RES   H41540083   2.596   7.277   6.382  0.3453  0.1794  0.0677
   95RES   H41640084   2.514   7.261   6.237  1.9717 -0.5177 -1.1488
   95RES   H41740085   2.613   7.507   6.176  0.6363  0.0057 -0.4059
   95RES   H41840086   2.700   7.486   6.327 -0.6721 -1.0053  2.0148
   95RES   H41940087   2.724   7.339   6.057  0.8482  0.6711 -0.9970
   95RES   H42040088   2.778   7.258   6.194  0.3247  0.1722 -0.7535
   95RES   H42140089   2.845   7.414   6.165 -0.4706  0.2818  0.0321
   95RES   H42240090   2.111   7.292   6.444 -1.9398  0.5336  3.6137
   96RES     C140091   0.174   0.547   7.059 -0.3871  0.1053  0.1553
   96RES     C240092   0.313   0.596   6.993  0.0760  0.4704 -0.0530
   96RES     C340093   0.296   0.727   6.911 -0.1156  0.1923  0.7698
   96RES     C440094   0.429   0.811   6.894 -0.3012 -0.0577 -1.4963
   96RES     C540095   0.398   0.952   6.836  1.2860  0.5061  0.1354
   96RES     C640096   0.518   1.048   6.855  0.6491  0.5774 -0.5167
   96RES     C740097   0.520   1.113   6.993 -0.0587  0.4357 -0.5717
   96RES     H840098   0.116   0.507   6.977  1.2998 -0.0825 -0.9720
   96RES     H940099   0.114   0.623   7.109 -0.7363  1.1800 -1.8783
   96RES    H1040100   0.384   0.611   7.074 -0.7690 -2.0074  1.2195
   96RES    H1140101   0.264   0.702   6.810  2.0868  2.9691 -0.6771
   96RES    H1240102   0.220   0.790   6.958  0.7492  0.8919  1.2394
   96RES    H1340103   0.479   0.824   6.990  0.2586 -0.6153 -1.7141
   96RES    H1440104   0.500   0.769   6.823  0.9317 -0.5085 -0.0244
   96RES    H1540105   0.306   0.995   6.876  1.8719  2.8309 -0.9303
   96RES    H1640106   0.375   0.950   6.730 -0.7754 -0.0936  0.5579
   96RES    H1740107   0.505   1.133   6.788  0.1769  1.0551  0.1679
   96RES    H1840108   0.608   0.995   6.823 -0.4689 -2.2143  0.7345
   96RES    H1940109   0.534   1.043   7.075  0.8416  1.0082 -0.2196
   96RES    H2040110   0.428   1.161   7.029  0.2287 -0.0133  0.7927
   96RES    H2140111   0.599   1.189   6.996  0.6713 -0.2921 -1.3045
   96RES    H2240112   0.205   0.470   7.130  2.7921 -0.6213 -1.9204
   96RES    C2340113   0.370   0.485   6.915  0.1016  0.2404 -0.4299
   96RES    C2440114   0.380   0.343   6.984 -0.0090 -0.0119  0.4365
   96RES    C2540115   0.483   0.334   7.112  0.1843  0.1018  0.5852
   96RES    C2640116   0.612   0.406   7.093  0.1342 -0.6519 -0.2282
   96RES    C2740117   0.685   0.431   7.228 -1.1193  0.8424  0.5481
   96RES    C2840118   0.822   0.489   7.213  0.7547 -0.2676 -0.3677
   96RES    C2940119   0.924   0.392   7.159 -0.4025 -0.1836 -0.3450
   96RES    H3040120   0.303   0.466   6.831  1.2829 -3.0721 -0.7227
   96RES    H3140121   0.468   0.500   6.870  3.4407 -3.0201  5.0557
   96RES    H3240122   0.279   0.312   7.010 -0.0944  0.2562  0.4189
   96RES    H3340123   0.503   0.230   7.134  1.2161  0.0337 -0.6261
   96RES    H3440124   0.415   0.365   7.192  1.5288  0.2898  1.6701
   96RES    H3540125   0.599   0.504   7.048 -0.4099 -0.4720  0.3110
   96RES    H3640126   0.681   0.361   7.021  1.7721 -0.8550  1.4337
   96RES    H3740127   0.685   0.337   7.282  1.4321  0.4184 -0.1048
   96RES    H3840128   0.632   0.502   7.291  1.0633  1.3251  1.9103
   96RES    H3940129   0.846   0.532   7.310 -1.2232  0.8525 -0.3502
   96RES    H4040130   0.819   0.571   7.141  1.5982  0.7422  0.7264
   96RES    H4140131   1.018   0.446   7.167 -0.9088  0.6195  0.1890
   96RES    H4240132   0.933   0.307   7.227 -0.6242 -0.5574 -0.7701
   96RES    H4340133   0.915   0.371   7.052 -1.6564 -0.7873 -0.1387
   96RES    C4440134   0.422   0.242   6.873  0.4654  0.4851 -0.4146
   96RES    C4540135   0.412   0.089   6.908 -0.5676 -0.3158 -0.3887
   96RES    C4640136   0.306   0.024   6.819  0.3217 -0.2789 -0.5304
   96RES    C4740137   0.162   0.078   6.848  0.4322 -0.1366 -0.0375
   96RES    C4840138   0.052   0.045   6.749 -0.0126 -0.4178  0.2322
   96RES    C4940139   7.635   0.068   6.800 -0.6020 -0.0282  0.2480
   96RES    C5040140   7.592   0.211   6.801  0.1625 -0.1012 -0.0593
   96RES    H5140141   0.519   0.276   6.838  1.9936 -0.0513  3.0974
   96RES    H5240142   0.377   0.250   6.774  0.1999 -0.4946 -0.3820
   96RES    H5340143   0.395   0.088   7.015  1.7867 -0.2573  0.0150
   96RES    H5440144   0.308   7.642   6.830  0.6207 -0.3418 -1.1632
   96RES    H5540145   0.331   0.027   6.713  0.7654 -1.0944 -0.4515
   96RES    H5640146   0.132   0.037   6.945 -0.8641 -0.2090 -0.4549
   96RES    H5740147   0.161   0.187   6.854  1.7269 -0.2047  1.8283
   96RES    H5840148   0.065   7.668   6.716 -1.0386 -0.7497  0.8218
   96RES    H5940149   0.066   0.103   6.658 -0.1043 -2.3574 -1.0415
   96RES    H6040150   7.622   0.008   6.890 -3.4386 -1.4282 -1.0217
   96RES    H6140151   7.575   0.007   6.731  1.0028 -1.1390 -0.1913
   96RES    H6240152   7.487   0.225   6.826 -0.2026  0.6537 -1.9115
   96RES    H6340153   7.594   0.237   6.695  0.6959  0.7401  0.1526
   96RES    H6440154   7.665   0.278   6.847  1.7804 -1.5957 -0.3873
   96RES    C6540155   0.555   0.032   6.892 -0.1500 -1.0319 -0.3722
   96RES    C6640156   0.570   7.606   6.914 -0.1804 -0.5659 -0.1216
   96RES    C6740157   0.506   7.561   7.051 -0.0259  0.2193  0.0041
   96RES    C6840158   0.584   7.610   7.175 -0.3731  0.1456 -0.3427
   96RES    C6940159   0.502   7.566   7.299  0.4327  0.4922  0.5568
   96RES    C7040160   0.550   7.622   7.432  0.0689 -0.4024  0.0804
   96RES    C7140161   0.506   0.043   7.446  0.3438 -0.2260  0.1278
   96RES    H7240162   0.594   0.061   6.795 -1.6765 -0.0002 -0.6979
   96RES    H7340163   0.624   0.084   6.958  3.1583 -3.7826 -1.5246
   96RES    H7440164   0.527   7.561   6.825  0.1856  1.5063 -1.3824
   96RES    H7540165   0.399   7.581   7.054 -0.0886 -0.2094  0.6853
   96RES    H7640166   0.511   7.452   7.060  1.5632  0.2804 -0.0841
   96RES    H7740167   0.682   7.562   7.180  0.3873  1.7873  0.6996
   96RES    H7840168   0.597   7.717   7.187 -0.1124  0.1531 -0.7028
   96RES    H7940169   0.398   7.595   7.280  0.6567  0.5607 -0.6288
   96RES    H8040170   0.509   7.457   7.304  0.7187  0.4694 -0.2355
   96RES    H8140171   0.658   7.610   7.442  0.0838  0.6203  1.3820
   96RES    H8240172   0.496   7.565   7.507 -0.2749  0.1085  0.2245
   96RES    H8340173   0.543   0.107   7.366 -2.4088  1.4460  0.1163
   96RES    H8440174   0.398   0.044   7.432  0.6423 -1.0613 -2.4770
   96RES    H8540175   0.526   0.092   7.541 -1.7996  1.6109 -0.3358
   96RES    C8640176   0.727   7.577   6.892  0.1273 -0.0873  0.0345
   96RES    C8740177   0.777   7.431   6.907  0.0499 -0.1261  0.1411
   96RES    C8840178   0.797   7.372   6.764 -0.2013 -0.5735 -0.1443
   96RES    C8940179   0.673   7.332   6.680 -0.0407 -0.4260  0.1464
   96RES    C9040180   0.588   7.218   6.743  1.1116 -0.6634 -0.0616
   96RES    C9140181   0.448   7.195   6.687 -0.7590  0.0354  0.2665
   96RES    C9240182   0.338   7.228   6.788  0.4243  0.3510 -0.4327
   96RES    H9340183   0.746   7.622   6.794 -1.3955  0.8656  0.1666
   96RES    H9440184   0.765   7.656   6.957 -3.4347  1.1263  0.7140
   96RES    H9540185   0.711   7.369   6.968 -0.4092  0.7920  0.5901
   96RES    H9640186   0.860   7.445   6.713 -1.5676 -0.7310 -2.0932
   96RES    H9740187   0.854   7.280   6.753  1.2120  0.7751 -5.4307
   96RES    H9840188   0.624   7.426   6.655 -0.9262 -0.8206  0.3786
   96RES    H9940189   0.712   7.300   6.583  0.9499  0.5413  0.2072
   96RES   H10040190   0.577   7.223   6.851  0.8159 -0.3420 -0.1045
   96RES   H10140191   0.642   7.128   6.716 -0.0752 -1.8331  1.3563
   96RES   H10240192   0.437   7.255   6.597 -0.7035  1.4927  1.2184
   96RES   H10340193   0.439   7.092   6.652 -0.7680 -0.5129  1.8599
   96RES   H10440194   0.239   7.221   6.742 -0.8104  0.1921  2.1616
   96RES   H10540195   0.366   7.326   6.828  1.3929 -0.1702  0.1839
   96RES   H10640196   0.327   7.162   6.873  0.6983 -1.6257 -1.8938
   96RES   C10740197   0.898   7.439   6.987 -0.0428  0.2468  0.4800
   96RES   C10840198   0.972   7.305   7.004 -0.7751  0.0140  0.7875
   96RES   C10940199   1.129   7.311   7.039 -0.0234  0.0873  0.3076
   96RES   C11040200   1.225   7.387   6.936 -0.5318  0.9407  0.1154
   96RES   C11140201   1.235   7.324   6.794 -0.1413  0.3973 -0.0088
   96RES   C11240202   1.346   7.403   6.718  0.3422 -0.8221  0.6228
   96RES   C11340203   1.325   7.376   6.564  0.4696 -0.1315 -0.8458
   96RES   H11440204   0.879   7.486   7.084 -1.7845  0.5403  0.0108
   96RES   H11540205   0.968   7.511   6.943  1.3640 -2.1345 -1.2770
   96RES   H11640206   0.976   7.247   6.912  1.1075  1.2087  0.0837
   96RES   H11740207   1.174   7.212   7.039 -0.3364 -0.0598 -0.2290
   96RES   H11840208   1.141   7.350   7.139 -3.1681  1.0217  0.3893
   96RES   H11940209   1.201   7.493   6.929 -1.6827  0.5547 -2.3368
   96RES   H12040210   1.315   7.385   6.997  0.7167 -1.8871 -1.7473
   96RES   H12140211   1.135   7.329   6.751 -0.2657  1.0817  0.3361
   96RES   H12240212   1.268   7.221   6.791 -1.1869 -0.1976  4.5766
   96RES   H12340213   1.337   7.511   6.730  2.0183 -0.5593 -0.4462
   96RES   H12440214   1.451   7.394   6.743  1.2337  1.8414 -1.9161
   96RES   H12540215   1.221   7.374   6.532  0.2510  0.6278 -0.1936
   96RES   H12640216   1.384   7.452   6.513  2.4592  0.3785  2.0963
   96RES   H12740217   1.379   7.288   6.527 -0.0386  0.4665 -3.0660
   96RES   C12840218   0.887   7.217   7.110  0.1370  0.3596  0.4194
   96RES   C12940219   0.935   7.077   7.124  0.7148  0.1833 -0.5462
   96RES   C13040220   0.924   6.987   6.997  1.1684 -0.4826  0.0213
   96RES   C13140221   0.782   6.971   6.931  0.0446  0.1539 -0.0400
   96RES   C13240222   0.783   6.894   6.794  0.2085  0.4074  0.7162
   96RES   C13340223   0.644   6.846   6.740 -0.3257 -0.0015  0.5312
   96RES   C13440224   0.564   6.744   6.829  0.8453  0.6950 -0.5013
   96RES   H13540225   0.900   7.274   7.202 -0.6583  1.8998 -0.3825
   96RES   H13640226   0.779   7.216   7.092 -0.1988 -1.7921  2.3111
   96RES   H13740227   1.042   7.072   7.142  0.3326 -2.3079  1.3386
   96RES   H13840228   0.957   6.887   7.021  0.5592 -1.0905 -1.5917
   96RES   H13940229   0.999   7.034   6.934  1.6163  0.0762  0.9582
   96RES   H14040230   0.721   7.060   6.941  0.8327  0.7558 -0.5323
   96RES   H14140231   0.734   6.897   6.996  0.0538 -0.9153 -1.2366
   96RES   H14240232   0.842   6.802   6.796 -2.1431 -1.2247 -0.9295
   96RES   H14340233   0.830   6.957   6.718  0.7656  0.0393  0.7498
   96RES   H14440234   0.649   6.807   6.638 -2.0111  0.9493  0.0623
   96RES   H14540235   0.578   6.932   6.732 -0.1424  0.0698 -0.2871
   96RES   H14640236   0.616   6.648   6.832  0.8986  0.7239 -0.4745
   96RES   H14740237   0.464   6.721   6.793  0.2819  0.7835  0.9418
   96RES   H14840238   0.534   6.780   6.928 -3.0926  1.7370 -1.9725
   96RES   C14940239   0.867   7.015   7.246 -0.8719  0.2212 -0.2344
   96RES   C15040240   0.954   6.928   7.336  0.2622  0.7022  0.4695
   96RES   C15140241   0.860   6.829   7.417  0.1830 -0.2446  0.2506
   96RES   C15240242   0.803   6.724   7.323  0.2928  0.0894 -0.0801
   96RES   C15340243   0.707   6.627   7.393  1.1046 -0.5008  0.5115
   96RES   C15440244   0.668   6.498   7.310 -0.3598  0.2761  0.0668
   96RES   C15540245   0.570   6.408   7.380  0.0823  1.0481 -0.7333
   96RES   H15640246   0.836   7.098   7.310  1.8255  0.1801  1.2078
   96RES   H15740247   0.776   6.965   7.212 -0.4582 -0.7142  0.0096
   96RES   H15840248   1.018   6.880   7.263 -1.5095 -1.8933  0.5156
   96RES   H15940249   0.919   6.772   7.489  2.5788  1.3517 -0.3821
   96RES   H16040250   0.784   6.871   7.483  0.4102  1.1155 -0.3269
   96RES   H16140251   0.878   6.664   7.272  0.2842  0.6588 -0.7683
   96RES   H16240252   0.735   6.762   7.247 -0.9178 -0.9539  0.4523
   96RES   H16340253   0.619   6.685   7.419  0.8556 -0.2298 -0.8828
   96RES   H16440254   0.743   6.586   7.487 -0.1126 -1.8678  0.4000
   96RES   H16540255   0.760   6.440   7.300  0.4004  1.2664  1.2050
   96RES   H16640256   0.639   6.526   7.210  1.8806  3.3018  0.2117
   96RES   H16740257   0.589   6.390   7.486  1.5595  0.3329 -1.0999
   96RES   H16840258   0.567   6.312   7.328 -1.7722  1.3206 -1.1484
   96RES   H16940259   0.469   6.449   7.381 -0.3755 -0.0576  0.0212
   96RES   C17040260   1.044   7.023   7.419 -0.3584  0.0884  0.0344
   96RES   C17140261   1.159   6.965   7.506 -0.3943 -0.6666  0.0613
   96RES   C17240262   1.261   6.871   7.429 -0.0075 -0.8885  0.3576
   96RES   C17340263   1.311   6.930   7.293  0.4622 -0.4240  0.2943
   96RES   C17440264   1.423   6.844   7.227 -0.5131 -0.0039  0.0226
   96RES   C17540265   1.482   6.919   7.110 -0.1980  0.0166 -0.0284
   96RES   C17640266   1.389   6.935   6.993 -0.2734 -0.1793  0.5691
   96RES   H17740267   0.976   7.084   7.479  1.1768  2.1521 -0.2549
   96RES   H17840268   1.085   7.094   7.347 -0.8794 -1.7187 -2.1020
   96RES   H17940269   1.110   6.899   7.578 -0.2084 -0.2780  0.5546
   96RES   H18040270   1.217   6.781   7.387  1.0741 -0.5642 -1.5293
   96RES   H18140271   1.346   6.844   7.491 -0.7348  2.6234  3.0777
   96RES   H18240272   1.353   7.030   7.305 -0.4988  0.2942 -2.0428
   96RES   H18340273   1.226   6.956   7.230  0.4115  0.8107  0.8639
   96RES   H18440274   1.391   6.745   7.196  0.3227  0.9212 -3.9870
   96RES   H18540275   1.503   6.840   7.302 -1.6720  1.5866  1.3727
   96RES   H18640276   1.565   6.865   7.064 -0.7800  0.0926 -1.2073
   96RES   H18740277   1.513   7.019   7.141 -0.8210 -0.0797  0.9232
   96RES   H18840278   1.298   6.985   7.025 -0.7944 -1.6910  1.4955
   96RES   H18940279   1.358   6.839   6.952  1.1740 -0.0481 -0.8797
   96RES   H19040280   1.436   6.999   6.918  1.8904  1.1687  2.9555
   96RES   C19140281   1.238   7.082   7.584 -0.1317 -0.4793  0.2025
   96RES   C19240282   1.337   7.022   7.696  0.0451  0.3585  0.3031
   96RES   C19340283   1.447   7.132   0.003  0.3415  0.5425 -0.4084
   96RES   C19440284   1.404   7.252   0.094 -0.1365  0.6030 -0.7300
   96RES   C19540285   1.525   7.349   0.115  0.3984 -0.7474  0.4693
   96RES   C19640286   1.493   7.449   0.222 -0.1706 -0.4214 -0.2548
   96RES   C19740287   1.503   7.391   0.361 -0.3528  0.3424  0.4166
   96RES   H19840288   1.168   7.147   7.637 -0.6076 -0.6032 -0.2662
   96RES   H19940289   1.301   7.141   7.517 -0.1947 -0.8338 -0.1773
   96RES   H20040290   1.388   6.933   7.660 -2.6336 -1.2322  0.2760
   96RES   H20140291   1.489   7.164   7.635  0.7797  0.0899 -0.3689
   96RES   H20240292   1.534   7.092   0.056  0.1101  2.8346  1.7966
   96RES   H20340293   1.375   7.214   0.192 -0.0080  1.6184 -0.2897
   96RES   H20440294   1.325   7.307   0.042 -2.2173 -0.0573  1.6487
   96RES   H20540295   1.621   7.299   0.132  2.3250  2.8499  0.6727
   96RES   H20640296   1.550   7.411   0.029 -2.7603  0.2855  0.2243
   96RES   H20740297   1.395   7.497   0.211 -0.2152 -0.6017 -0.6521
   96RES   H20840298   1.554   7.537   0.198 -1.9462  0.5248 -1.4923
   96RES   H20940299   1.605   7.401   0.398 -0.0552 -2.5772  0.4715
   96RES   H21040300   1.482   7.285   0.355  0.3536  0.3335 -2.9983
   96RES   H21140301   1.437   7.428   0.440  0.4519  0.6159  0.9657
   96RES   C21240302   1.250   6.973   0.090  0.1969 -0.5111 -0.1212
   96RES   C21340303   1.322   6.905   0.210  0.2574 -0.3548  0.5305
   96RES   C21440304   1.261   6.932   0.351 -0.4139  0.1273  0.1714
   96RES   C21540305   1.273   7.080   0.405  0.5145 -0.4763 -0.5494
   96RES   C21640306   1.205   7.098   0.543  0.0419  0.5474  0.2594
   96RES   C21740307   1.203   7.252   0.585 -0.7849 -0.4109  0.2088
   96RES   C21840308   1.150   7.275   0.724  0.4074 -0.4303 -0.2664
   96RES   H21940309   1.183   6.897   0.049 -2.5366 -0.2946  3.6209
   96RES   H22040310   1.190   7.055   0.128  1.2095  0.6780 -1.0422
   96RES   H22140311   1.423   6.944   0.210 -0.1866  0.8219 -1.0145
   96RES   H22240312   1.158   6.897   0.350 -0.9247  1.5867 -1.4330
   96RES   H22340313   1.317   6.867   0.418 -0.6677 -0.9903 -0.6941
   96RES   H22440314   1.225   7.148   0.335 -0.1019 -2.2562 -1.8802
   96RES   H22540315   1.375   7.115   0.421 -0.0244  0.5821  0.6769
   96RES   H22640316   1.104   7.056   0.539  0.5065 -0.9759  3.3711
   96RES   H22740317   1.253   7.041   0.622  1.0590  0.8620 -0.1286
   96RES   H22840318   1.304   7.293   0.583 -0.9007 -0.1228  0.1523
   96RES   H22940319   1.147   7.303   0.507 -1.1145 -1.4600 -0.2435
   96RES   H23040320   1.196   7.204   0.792 -1.4163  0.5873  2.1227
   96RES   H23140321   1.043   7.256   0.730  0.2332  0.4114 -0.6635
   96RES   H23240322   1.160   7.380   0.755  1.3011 -0.8574  0.9474
   96RES   C23340323   1.335   6.750   0.186  0.2125 -0.2202 -0.5079
   96RES   C23440324   1.419   6.663   0.288  0.4235  0.5806 -0.7262
   96RES   C23540325   1.401   6.517   0.261  0.3323  0.2196  0.6911
   96RES   C23640326   1.280   6.451   0.323 -0.5654 -0.3397  0.0605
   96RES   C23740327   1.257   6.298   0.293  0.0002 -0.6810  0.1557
   96RES   C23840328   1.129   6.242   0.355  0.3573 -0.7140  0.1259
   96RES   C23940329   1.108   6.101   0.307 -0.9231 -0.1252  0.1212
   96RES   H24040330   1.365   6.725   0.085  0.1706  0.6254 -0.7277
   96RES   H24140331   1.237   6.703   0.196  1.0332 -1.7990  0.3679
   96RES   H24240332   1.378   6.678   0.388  1.4956  2.5254 -0.5480
   96RES   H24340333   1.484   6.462   0.306  0.6130  0.9554  1.0873
   96RES   H24440334   1.399   6.505   0.153  2.1109  0.4440  0.6266
   96RES   H24540335   1.192   6.499   0.279  0.3429  1.1905 -0.1408
   96RES   H24640336   1.279   6.471   0.430  1.0844  2.6927 -0.4453
   96RES   H24740337   1.343   6.243   0.333 -0.3633 -1.1383  0.3125
   96RES   H24840338   1.252   6.280   0.186  0.6207  0.1376 -0.0182
   96RES   H24940339   1.132   6.249   0.464  0.5191 -1.0104  0.1400
   96RES   H25040340   1.041   6.300   0.328  0.7453 -0.0855  0.1987
   96RES   H25140341   1.203   6.054   0.330  0.3328  2.0266 -0.6424
   96RES   H25240342   1.035   6.039   0.361  0.1512 -1.3963  0.1410
   96RES   H25340343   1.098   6.101   0.198  2.2575 -1.2809 -0.2225
   96RES   C25440344   1.563   6.708   0.302 -0.0093  0.5693 -0.0547
   96RES   C25540345   1.605   6.820   0.410  0.3089  0.0705 -0.1787
   96RES   C25640346   1.732   6.901   0.362  0.2750 -0.1551 -0.4001
   96RES   C25740347   1.707   7.004   0.253  0.6951  0.2761 -0.8677
   96RES   C25840348   1.832   7.074   0.190  0.3538 -0.0283  0.0192
   96RES   C25940349   1.920   7.142   0.304  0.7248 -0.3627  0.0518
   96RES   C26040350   1.852   7.273   0.350  0.4862 -0.0237 -0.8840
   96RES   H26140351   1.584   6.741   0.200 -0.3339 -2.7234 -1.2314
   96RES   H26240352   1.633   6.628   0.325 -0.4736  0.0426 -0.4804
   96RES   H26340353   1.526   6.895   0.421 -0.5269 -1.0094  1.3531
   96RES   H26440354   1.810   6.832   0.330 -0.1922 -0.9947  0.2686
   96RES   H26540355   1.786   6.946   0.445 -0.1070 -1.5997  0.6438
   96RES   H26640356   1.653   6.949   0.176  0.1735 -0.5696  0.0824
   96RES   H26740357   1.644   7.083   0.295 -1.5110 -2.4286  1.1367
   96RES   H26840358   1.795   7.149   0.120  1.8330 -0.4222 -1.2122
   96RES   H26940359   1.896   7.009   0.129  1.4632  0.3096  0.8019
   96RES   H27040360   1.954   7.069   0.377 -0.7438 -0.1868  0.9253
   96RES   H27140361   2.012   7.175   0.256  0.5471 -0.0162 -0.0574
   96RES   H27240362   1.825   7.357   0.286 -0.1079  0.7228  0.3198
   96RES   H27340363   1.772   7.236   0.415  2.5037 -1.4921  0.8114
   96RES   H27440364   1.913   7.324   0.425 -0.0027 -0.1980 -0.3631
   96RES   C27540365   1.638   6.750   0.539 -0.1445  0.3802 -0.2888
   96RES   C27640366   1.663   6.829   0.664 -1.1809 -0.1497  0.1382
   96RES   C27740367   1.730   6.741   0.774  0.3418 -0.2964  0.7563
   96RES   C27840368   1.884   6.704   0.753  0.3822  0.2828  0.1575
   96RES   C27940369   1.958   6.644   0.871 -0.6266  0.1429 -0.6393
   96RES   C28040370   2.092   6.611   0.825  0.3038  0.5161 -0.0999
   96RES   C28140371   2.177   6.535   0.932  0.1475 -0.4865 -0.1701
   96RES   H28240372   1.729   6.691   0.526 -1.1539 -1.5606  1.1589
   96RES   H28340373   1.550   6.691   0.564  0.1842 -0.2387 -0.5729
   96RES   H28440374   1.738   6.903   0.638  1.0013 -2.6586 -1.0125
   96RES   H28540375   1.716   6.779   0.875  3.2461  1.1547  0.6502
   96RES   H28640376   1.676   6.646   0.770  1.3389 -0.8218 -0.8416
   96RES   H28740377   1.944   6.785   0.711  0.2116  0.0147 -0.6114
   96RES   H28840378   1.878   6.628   0.675 -0.4057 -0.7947  1.2604
   96RES   H28940379   1.902   6.563   0.918 -0.5971  0.4226 -0.1172
   96RES   H29040380   1.960   6.724   0.944 -1.0375 -1.0080  0.6638
   96RES   H29140381   2.101   6.554   0.732 -2.0267 -0.4870  0.2431
   96RES   H29240382   2.141   6.705   0.799 -0.3517  0.9025  0.0421
   96RES   H29340383   2.115   6.447   0.950 -0.3085  0.3233  2.4010
   96RES   H29440384   2.186   6.586   1.028  1.0208  1.4833 -1.2848
   96RES   H29540385   2.276   6.513   0.892  0.2826  1.7100 -1.1086
   96RES   C29640386   1.529   6.886   0.715  0.2045 -0.3118  0.0666
   96RES   C29740387   1.538   7.007   0.815 -1.1312  0.1315 -0.2439
   96RES   C29840388   1.417   6.996   0.910 -0.8690 -0.1537 -0.6538
   96RES   C29940389   1.422   7.108   1.024  0.1071 -0.0555  0.0112
   96RES   C30040390   1.288   7.123   1.097  1.3757  0.7322  0.8024
   96RES   C30140391   1.293   7.216   1.227 -0.4129 -0.3072 -0.6112
   96RES   C30240392   1.148   7.252   1.279  0.1387 -1.0655  0.6461
   96RES   H30340393   1.462   6.915   0.634  2.1791  1.5473 -0.9602
   96RES   H30440394   1.489   6.802   0.770 -0.1181 -1.0735 -1.2982
   96RES   H30540395   1.629   6.981   0.868  0.5181  1.1400 -2.5097
   96RES   H30640396   1.327   7.003   0.849  0.5448  0.5095 -2.7112
   96RES   H30740397   1.419   6.900   0.962  1.1492  0.3610  0.2885
   96RES   H30840398   1.448   7.199   0.969 -2.1721 -1.2368 -3.1573
   96RES   H30940399   1.503   7.093   1.095 -0.2005  1.0936  0.6201
   96RES   H31040400   1.249   7.028   1.134  1.8688 -0.7536 -2.2865
   96RES   H31140401   1.216   7.167   1.028  2.0967  1.0742  0.2643
   96RES   H31240402   1.348   7.162   1.303  0.1645  0.0872 -0.7438
   96RES   H31340403   1.341   7.313   1.208  0.1657 -0.3226  0.7352
   96RES   H31440404   1.104   7.161   1.320  0.2605 -2.1090 -1.4627
   96RES   H31540405   1.166   7.323   1.360  0.0548 -2.3406  1.8041
   96RES   H31640406   1.090   7.291   1.196  0.1201  0.8281  1.5245
   96RES   C31740407   1.554   7.137   0.737 -0.0916 -0.3454 -0.6826
   96RES   C31840408   1.657   7.236   0.771  0.1251  0.2869 -0.3665
   96RES   C31940409   1.803   7.184   0.752 -0.3254 -0.2406  0.4915
   96RES   C32040410   1.867   7.088   0.850  0.1145  0.7192  0.0613
   96RES   C32140411   2.015   7.076   0.813  0.3061 -0.5346 -0.0640
   96RES   C32240412   2.092   7.017   0.937  0.0941  0.6141 -0.1035
   96RES   C32340413   2.234   6.974   0.883  0.0675  0.1539 -0.1299
   96RES   H32440414   1.459   7.189   0.746 -0.0892 -0.5951  0.7934
   96RES   H32540415   1.555   7.114   0.630  2.2058  2.7874 -1.4123
   96RES   H32640416   1.644   7.259   0.877  2.8858 -0.8119  0.2528
   96RES   H32740417   1.866   7.273   0.753 -1.8927  0.9118  2.2480
   96RES   H32840418   1.804   7.139   0.653 -0.0559  0.0669  0.3522
   96RES   H32940419   1.833   6.984   0.852  2.4272 -0.0811  0.4420
   96RES   H33040420   1.860   7.135   0.948  0.2824  1.5682 -0.3283
   96RES   H33140421   2.061   7.172   0.793  0.0299 -0.2035  0.8639
   96RES   H33240422   2.028   7.007   0.729 -0.9962  0.4454 -1.0913
   96RES   H33340423   2.030   6.932   0.968  1.1905 -0.6774 -1.3571
   96RES   H33440424   2.085   7.090   1.017 -0.3169 -0.3361  0.7407
   96RES   H33540425   2.308   7.052   0.867 -1.0449  1.1328 -0.5947
   96RES   H33640426   2.218   6.921   0.789 -1.3522  0.1850  0.0712
   96RES   H33740427   2.276   6.900   0.950  1.2148  1.5294  0.6980
   96RES   C33840428   1.646   7.368   0.693 -0.2977  0.1784 -0.3081
   96RES   C33940429   1.672   7.495   0.778 -0.6393 -0.6534  0.4207
   96RES   C34040430   1.569   7.524   0.892 -0.1611  0.3313 -0.1380
   96RES   C34140431   1.430   7.588   0.843 -0.0847 -0.8510  0.6551
   96RES   C34240432   1.342   7.635   0.952  0.0777  0.5227  0.1057
   96RES   C34340433   1.202   7.678   0.915  0.8496 -0.0388 -0.3316
   96RES   C34440434   1.109   7.715   1.033 -0.1059 -0.0385 -1.0736
   96RES   H34540435   1.543   7.385   0.663  0.3012  1.9272 -1.4378
   96RES   H34640436   1.695   7.368   0.596 -0.4090  2.5068 -0.4019
   96RES   H34740437   1.766   7.478   0.830 -0.1035  0.2106 -0.2458
   96RES   H34840438   1.547   7.433   0.947 -0.3791  0.2879 -0.2987
   96RES   H34940439   1.619   7.584   0.969  0.8314  0.5966 -0.9791
   96RES   H35040440   1.386   7.510   0.781  0.7594  1.3549 -2.8702
   96RES   H35140441   1.449   7.673   0.777 -2.8620  0.3572  1.3439
   96RES   H35240442   1.340   7.552   1.023 -0.4877  0.0981 -0.3989
   96RES   H35340443   1.392   7.716   1.004  0.5623  1.0647 -1.1850
   96RES   H35440444   1.206   0.027   0.836 -0.5424  1.3080  0.8604
   96RES   H35540445   1.155   7.597   0.858  1.9324 -0.8306 -0.1101
   96RES   H35640446   1.118   7.651   1.121  0.8004 -0.4764 -1.4799
   96RES   H35740447   1.007   7.722   0.994 -0.5473 -2.1803 -0.3560
   96RES   H35840448   1.139   0.089   1.060  0.8913 -0.5111 -0.4101
   96RES   C35940449   1.689   7.618   0.688  0.1016 -0.0340  0.1728
   96RES   C36040450   1.824   7.619   0.606  0.4619  0.4625 -0.2017
   96RES   C36140451   1.830   7.723   0.488 -0.2173  0.1406  1.2535
   96RES   C36240452   1.752   7.685   0.358  0.0337  0.3785 -0.3350
   96RES   C36340453   1.714   0.077   0.266  0.2469 -0.1192 -0.3911
   96RES   C36440454   1.614   0.177   0.330  0.4941  1.1144 -0.3934
   96RES   C36540455   1.491   0.122   0.404 -0.7075 -0.5909 -1.0244
   96RES   H36640456   1.668   7.706   0.748 -0.5397  0.8034 -1.2476
   96RES   H36740457   1.606   7.614   0.617  1.3999 -0.6778 -1.3489
   96RES   H36840458   1.842   7.521   0.561  3.6002  0.3916  1.0676
   96RES   H36940459   1.795   0.093   0.522 -0.7773  0.4830 -0.2508
   96RES   H37040460   1.929   0.017   0.447 -0.6860  1.2913  0.6838
   96RES   H37140461   1.811   7.619   0.294 -1.3209  0.5979 -1.8519
   96RES   H37240462   1.663   7.625   0.378  0.9768 -0.4246  1.5509
   96RES   H37340463   1.795   0.142   0.231  0.2629  1.0669  1.7712
   96RES   H37440464   1.664   0.043   0.175  0.4069 -1.6777  0.0905
   96RES   H37540465   1.670   0.233   0.405  0.9412 -1.1830  1.0375
   96RES   H37640466   1.583   0.253   0.258 -2.7738 -0.4828 -0.7715
   96RES   H37740467   1.526   0.075   0.495  3.4410 -0.3695 -2.3801
   96RES   H37840468   1.418   0.199   0.428  0.4352  0.4036 -0.6720
   96RES   H37940469   1.436   0.052   0.341 -2.1066  2.1050 -2.8944
   96RES   C38040470   1.955   7.640   0.691  0.7379 -0.2087 -0.0830
   96RES   C38140471   2.058   7.523   0.683 -0.2940 -0.2532 -0.2942
   96RES   C38240472   2.124   7.511   0.545  0.2721  0.1821  0.0199
   96RES   C38340473   2.195   7.385   0.517  0.2517  0.6596 -0.0874
   96RES   C38440474   2.250   7.376   0.377  0.0380  0.6831  0.3856
   96RES   C38540475   2.351   7.258   0.374  0.2946  0.9851  0.9712
   96RES   C38640476   2.394   7.229   0.231  0.7134  0.4540 -0.3946
   96RES   H38740477   1.987   0.010   0.653  0.2759 -0.7633 -1.9338
   96RES   H38840478   1.933   7.677   0.791 -1.6252  0.0200 -0.6547
   96RES   H38940479   2.005   7.431   0.708  0.0142 -0.2956  0.1927
   96RES   H39040480   2.188   7.598   0.533  0.2459  0.2086  0.0730
   96RES   H39140481   2.045   7.517   0.469  2.2953 -2.0784 -2.3473
   96RES   H39240482   2.285   7.380   0.578  0.8994  2.5471 -0.8437
   96RES   H39340483   2.116   7.310   0.524 -1.1660  2.1125 -0.1591
   96RES   H39440484   2.166   7.354   0.311 -0.4020 -0.4293  1.2982
   96RES   H39540485   2.298   7.468   0.343 -0.4099  0.7570 -0.0432
   96RES   H39640486   2.304   7.173   0.423 -0.5629  0.8945 -0.0133
   96RES   H39740487   2.445   7.286   0.422  1.7653 -2.3203  0.1599
   96RES   H39840488   2.428   7.322   0.184  4.0733 -0.2996  0.4204
   96RES   H39940489   2.301   7.199   0.181  0.4556 -0.4168  0.6097
   96RES   H40040490   2.475   7.157   0.229  1.8098  1.6046  0.9787
   96RES   C40140491   2.167   7.546   0.785  0.4222 -0.8800  0.2985
   96RES   C40240492   2.132   7.509   0.927 -0.4904 -0.1912 -0.1194
   96RES   C40340493   2.245   7.531   1.028  0.1781  1.2091 -0.0672
   96RES   C40440494   2.222   7.453   1.158 -0.2305 -0.1693 -0.4851
   96RES   C40540495   2.340   7.465   1.260  0.7064 -0.7661 -0.1030
   96RES   C40640496   2.365   7.601   1.320  0.9430 -0.7085 -0.3473
   96RES   C40740497   2.244   7.655   1.385  0.1546  0.6895 -0.7756
   96RES   H40840498   2.187   7.653   0.778 -0.8909 -0.7446 -1.6745
   96RES   H40940499   2.257   7.486   0.769  1.1831  0.1009  0.8587
   96RES   H41040500   2.101   7.404   0.933 -0.2759 -0.1799  1.4790
   96RES   H41140501   2.237   7.638   1.049 -0.9893  1.0507  0.3577
   96RES   H41240502   2.342   7.508   0.984 -0.5745 -1.7415 -0.2959
   96RES   H41340503   2.208   7.346   1.140  1.5563 -0.7478  1.3724
   96RES   H41440504   2.129   7.480   1.207 -0.7623 -0.4153 -1.3497
   96RES   H41540505   2.329   7.390   1.339 -0.2867 -2.3321 -1.6898
   96RES   H41640506   2.434   7.437   1.211 -0.4725 -1.5084 -1.9712
   96RES   H41740507   2.455   7.600   1.382 -0.9716  0.7016  2.5500
   96RES   H41840508   2.392   7.669   1.239 -1.1478 -0.5275 -0.9074
   96RES   H41940509   2.211   7.605   1.476 -0.9397  0.5836 -1.2245
   96RES   H42040510   2.170   7.665   1.306 -1.5908 -1.3160  0.5494
   96RES   H42140511   2.268   0.032   1.409  1.4579 -0.0514  1.2259
   96RES   H42240512   2.042   7.558   0.964 -0.6972 -0.5260 -0.1758
   97RES     C140513   7.389   1.399   7.293 -0.2024 -0.0565 -0.3128
   97RES     C240514   7.243   1.403   7.347  0.5262 -0.4912  0.5913
   97RES     C340515   7.217   1.513   7.455  0.2773 -0.3179  0.1057
   97RES     C440516   7.320   1.507   7.568  0.3766  0.5378  0.2652
   97RES     C540517   7.286   1.604   7.690  0.2934 -0.0491  0.1256
   97RES     C640518   7.415   1.664   0.020  0.1459 -0.5845 -0.3608
   97RES     C740519   7.396   1.774   0.132  0.0048  0.7107 -0.0763
   97RES     H840520   7.444   1.338   7.364 -0.9368 -0.0236  0.2938
   97RES     H940521   7.432   1.499   7.296 -1.4469  0.4754  0.5302
   97RES    H1040522   7.174   1.427   7.266 -1.4494 -0.8647  2.1260
   97RES    H1140523   7.211   1.614   7.416  0.9760  0.3707  1.7690
   97RES    H1240524   7.114   1.517   7.491 -0.4749 -1.1163 -1.8690
   97RES    H1340525   7.329   1.405   7.604  1.5228  0.5984  0.1622
   97RES    H1440526   7.421   1.529   7.533  0.4259 -2.7335 -1.8373
   97RES    H1540527   7.231   1.538   0.031  0.7258 -0.6531 -0.1051
   97RES    H1640528   7.216   1.675   7.647 -0.2097 -0.6676 -0.0927
   97RES    H1740529   7.463   1.715   7.663 -1.1945  1.5259  0.1446
   97RES    H1840530   7.487   1.592   0.060 -0.0804  1.2182  3.5121
   97RES    H1940531   7.329   1.849   0.090  0.9407  1.2281 -0.6602
   97RES    H2040532   7.481   1.829   0.172 -1.4131  1.1744  2.3588
   97RES    H2140533   7.346   1.730   0.218 -0.0554 -0.6774 -0.7940
   97RES    H2240534   7.399   1.366   7.190  0.2915  0.2548 -0.3635
   97RES    C2340535   7.190   1.264   7.379  0.5078  0.4412  0.5174
   97RES    C2440536   7.197   1.156   7.274  0.2523 -0.0032 -0.3524
   97RES    C2540537   7.118   1.195   7.146  0.3870  0.6654 -1.1208
   97RES    C2640538   6.960   1.223   7.173 -0.5900  0.5028  0.2727
   97RES    C2740539   6.877   1.258   7.048 -0.0709 -1.3736 -0.6387
   97RES    C2840540   6.728   1.264   7.061 -0.0425 -0.4959  0.4894
   97RES    C2940541   6.656   1.313   6.937  0.2492 -0.1304  0.5948
   97RES    H3040542   7.242   1.229   7.468 -0.0501 -0.6993  0.4003
   97RES    H3140543   7.091   1.276   7.423  1.3206  2.4717  1.8260
   97RES    H3240544   7.303   1.143   7.250  0.1945  0.4732 -0.8791
   97RES    H3340545   7.127   1.128   7.060 -1.8242 -0.6155 -0.3776
   97RES    H3440546   7.168   1.286   7.114 -0.8254  2.0036  0.7207
   97RES    H3540547   6.923   1.289   7.252 -2.7059  0.2909 -0.5093
   97RES    H3640548   6.916   1.128   7.203  2.0630 -1.0818 -0.6940
   97RES    H3740549   6.898   1.184   6.970  2.3328 -1.5417  0.0985
   97RES    H3840550   6.929   1.346   7.010 -0.0578 -0.8749  0.4966
   97RES    H3940551   6.697   1.330   7.142  1.7530  1.2227 -0.1937
   97RES    H4040552   6.695   1.165   7.093  1.4203 -1.0969  0.1734
   97RES    H4140553   6.549   1.305   6.953  0.0104  0.1215 -0.8304
   97RES    H4240554   6.670   1.419   6.918  0.4614 -0.0151  1.3834
   97RES    H4340555   6.677   1.271   6.838  1.9328  1.1964  0.3644
   97RES    C4440556   7.146   1.021   7.326  1.0073 -1.2861  0.2503
   97RES    C4540557   7.242   0.942   7.417  0.1741 -0.6378  0.7133
   97RES    C4640558   7.150   0.884   7.534 -0.1711  0.1944 -0.0841
   97RES    C4740559   7.140   0.992   7.641  0.4718 -0.0759  0.2287
   97RES    C4840560   7.023   0.968   0.008  0.8059  0.2884  0.2022
   97RES    C4940561   7.015   1.064   0.120  0.2065 -0.1057  0.6836
   97RES    C5040562   6.882   1.042   0.194  0.5998 -0.7864  0.0208
   97RES    H5140563   7.115   0.961   7.240 -0.4538  2.6573 -2.1312
   97RES    H5240564   7.049   1.038   7.372  0.8087  0.6098 -0.8187
   97RES    H5340565   7.320   1.007   7.457 -0.6573  0.4806  0.5212
   97RES    H5440566   7.196   0.794   7.576  0.9650 -0.1784 -2.0695
   97RES    H5540567   7.050   0.865   7.494  0.5463  0.8535 -2.2714
   97RES    H5640568   7.230   0.991   7.703 -0.3479 -1.2250  1.4208
   97RES    H5740569   7.130   1.090   7.593 -1.3240 -0.7967 -0.8900
   97RES    H5840570   7.022   0.865   0.043  1.5829 -0.2787 -1.4181
   97RES    H5940571   6.929   0.977   7.681 -0.9280  1.4283  3.2713
   97RES    H6040572   7.034   1.168   0.094  2.1455 -0.6290 -0.0601
   97RES    H6140573   7.091   1.047   0.197 -0.6147 -2.2680  1.0560
   97RES    H6240574   6.876   1.116   0.274 -0.0466 -0.9080  0.0895
   97RES    H6340575   6.858   0.943   0.233 -2.2584 -0.5070 -0.9128
   97RES    H6440576   6.805   1.070   0.122  1.0842 -0.8729 -0.5335
   97RES    C6540577   7.318   0.830   7.334  0.5264 -1.0624  0.0981
   97RES    C6640578   7.407   0.737   7.414 -0.6536 -1.2282  0.2696
   97RES    C6740579   7.515   0.796   7.510  0.0028 -1.1384 -0.0157
   97RES    C6840580   7.614   0.708   7.589  0.0543  0.1469  0.0491
   97RES    C6940581   7.676   0.783   7.700  0.5508 -0.3964  0.8822
   97RES    C7040582   0.052   0.708   0.045 -0.3883 -0.1305  0.4940
   97RES    C7140583   0.083   0.763   0.185  0.5944  0.8106 -0.3606
   97RES    H7240584   7.239   0.775   7.285 -0.0555 -0.7347  0.6597
   97RES    H7340585   7.371   0.870   7.248 -0.4134 -2.7233 -1.2607
   97RES    H7440586   7.342   0.675   7.476  0.3121 -0.9021  1.6311
   97RES    H7540587   7.577   0.866   7.455 -0.6576 -1.8043 -1.6368
   97RES    H7640588   7.458   0.840   7.592  0.7944 -3.3658  1.8072
   97RES    H7740589   7.557   0.627   7.635  1.5511 -0.8487  0.1936
   97RES    H7840590   7.683   0.665   7.516 -1.3998 -0.0323 -1.2704
   97RES    H7940591   7.714   0.875   7.656 -3.2630  0.4931 -0.7724
   97RES    H8040592   7.593   0.807   0.039  0.0555  0.1043  0.0855
   97RES    H8140593   0.143   0.693   7.714  0.2861  1.1131  1.2190
   97RES    H8240594   0.003   0.611   0.060 -1.1783  0.3183  0.8084
   97RES    H8340595   7.725   0.742   0.250  0.1990 -0.2692 -1.2222
   97RES    H8440596   0.159   0.697   0.227  0.0983  0.3463 -0.1875
   97RES    H8540597   0.129   0.861   0.194 -2.0035  2.0799 -0.6516
   97RES    C8640598   7.484   0.641   7.311 -0.2745  0.0609  0.7081
   97RES    C8740599   7.407   0.539   7.227 -0.0598  0.2831  0.0629
   97RES    C8840600   7.501   0.440   7.150 -0.3750  0.1858 -0.2024
   97RES    C8940601   7.590   0.349   7.246  0.0879  0.0145  0.6174
   97RES    C9040602   7.649   0.233   7.158  0.0361  0.3768  0.2408
   97RES    C9140603   0.005   0.130   7.238  0.3228  0.2165 -0.2068
   97RES    C9240604   0.126   0.186   7.302 -0.0449  0.5303 -0.0912
   97RES    H9340605   7.539   0.702   7.240  1.3053 -1.1993  0.7982
   97RES    H9440606   7.568   0.591   7.359 -0.3855 -2.1633 -1.2964
   97RES    H9540607   7.342   0.586   7.154 -0.9122 -1.2569 -0.1884
   97RES    H9640608   7.444   0.370   7.088 -2.3771  2.0861 -0.5746
   97RES    H9740609   7.563   0.496   7.080 -2.4777  2.5443 -0.2624
   97RES    H9840610   7.678   0.397   7.290 -2.1849  2.0416  3.0998
   97RES    H9940611   7.526   0.295   7.315 -0.4165  0.9636  0.8951
   97RES   H10040612   7.709   0.268   7.074  0.8132  0.4118  0.8039
   97RES   H10140613   7.563   0.190   7.106  0.6380 -0.7093  0.1370
   97RES   H10240614   7.663   0.080   7.306  0.0788  1.0144  0.1469
   97RES   H10340615   0.041   0.053   7.170 -2.0980 -0.5140 -0.7079
   97RES   H10440616   0.093   0.248   7.385 -0.4714 -1.2196  1.0510
   97RES   H10540617   0.190   0.246   7.237 -0.8831 -0.8116 -2.2168
   97RES   H10640618   0.179   0.103   7.348 -0.8373  0.1382  0.1269
   97RES   C10740619   7.306   0.461   7.318  0.1127  0.6958  0.5141
   97RES   C10840620   7.238   0.335   7.275 -0.0225 -0.1178  0.2246
   97RES   C10940621   7.179   0.261   7.400 -0.0693 -0.5982  0.0558
   97RES   C11040622   7.277   0.190   7.500 -0.3729  0.7061  0.4503
   97RES   C11140623   7.319   0.047   7.450  0.7129 -0.1416 -0.5274
   97RES   C11240624   7.370   7.685   7.563 -0.0061  0.7380 -0.1278
   97RES   C11340625   7.425   7.553   7.507  0.3171  0.4380  0.6076
   97RES   H11440626   7.226   0.532   7.340 -1.2611 -0.8129  0.4516
   97RES   H11540627   7.351   0.459   7.417  0.7179 -0.9909  0.2265
   97RES   H11640628   7.305   0.271   7.218 -0.2847 -0.1343 -0.0649
   97RES   H11740629   7.103   0.191   7.365  1.0786 -1.7916 -0.0698
   97RES   H11840630   7.115   0.333   7.451 -0.1951 -0.3854 -0.4008
   97RES   H11940631   7.371   0.246   7.502  0.2701 -0.3564  0.1291
   97RES   H12040632   7.229   0.173   7.596  0.4356  0.5636  0.8280
   97RES   H12140633   7.380   0.055   7.361  1.4290 -0.0218 -0.0298
   97RES   H12240634   7.229   7.725   7.412 -0.7798  0.3504  2.2106
   97RES   H12340635   7.442   0.008   7.628  1.3235 -0.5196 -0.6073
   97RES   H12440636   7.287   7.660   7.629 -0.1116  1.7854  0.1589
   97RES   H12540637   7.344   7.502   7.455  0.8502  0.3440 -0.1408
   97RES   H12640638   7.509   7.575   7.442  0.0358  0.9415  0.4134
   97RES   H12740639   7.463   7.492   7.589  0.4705 -0.5386 -0.1783
   97RES   C12840640   7.128   0.359   7.179  0.5656  0.0464  0.4380
   97RES   C12940641   7.115   0.239   7.076 -0.0951  0.2499  0.5142
   97RES   C13040642   7.204   0.258   6.948 -0.0210  0.3839 -0.0023
   97RES   C13140643   7.206   0.134   6.851  0.3110  0.6131 -0.0248
   97RES   C13240644   7.279   0.008   6.909  0.2883 -0.3589 -0.3383
   97RES   C13340645   7.289   7.611   6.812  0.4507 -0.2072 -0.5441
   97RES   C13440646   7.342   7.484   6.874 -0.2867 -0.3443  0.9289
   97RES   H13540647   7.038   0.395   7.229  0.1831  0.3554 -0.4659
   97RES   H13640648   7.147   0.449   7.121 -0.4649  0.1851  0.3013
   97RES   H13740649   7.145   0.141   7.113  0.9102 -0.2543 -1.5613
   97RES   H13840650   7.308   0.273   6.976  0.4312 -0.7006 -1.0864
   97RES   H13940651   7.178   0.344   6.886  0.1091 -1.3822 -2.5675
   97RES   H14040652   7.269   0.156   6.765  0.7279 -1.3498 -0.2533
   97RES   H14140653   7.108   0.118   6.807 -0.4668  1.4905  1.3587
   97RES   H14240654   7.239   7.708   7.007  0.7827  0.9446  0.2351
   97RES   H14340655   7.381   0.033   6.936  0.4792 -2.2080  0.6796
   97RES   H14440656   7.361   7.629   6.732 -1.3796 -1.7367 -2.5844
   97RES   H14540657   7.186   7.589   6.784 -0.4188 -0.7432  2.8608
   97RES   H14640658   7.288   7.441   6.959 -1.0591 -2.8174 -0.7473
   97RES   H14740659   7.445   7.512   6.896 -0.9328  2.2479  0.8598
   97RES   H14840660   7.369   7.405   6.804  0.4127  2.0263 -1.5662
   97RES   C14940661   6.966   0.223   7.038  0.3844 -0.0427 -0.3911
   97RES   C15040662   6.868   0.169   7.140  0.0694 -0.5399  0.2940
   97RES   C15140663   6.908   0.037   7.195  0.1061 -0.0013 -0.1688
   97RES   C15240664   6.899   7.649   7.096  0.3694 -0.5327  0.6098
   97RES   C15340665   6.908   7.510   7.168 -0.4534  0.3298 -0.0451
   97RES   C15440666   6.926   7.407   7.059 -0.4283  0.0786 -0.5154
   97RES   C15540667   6.887   7.274   7.113 -0.3169  0.4079  0.6952
   97RES   H15640668   6.947   0.320   6.992  3.0570 -1.0510 -3.8477
   97RES   H15740669   6.953   0.150   6.958 -0.5877 -0.9786  0.6133
   97RES   H15840670   6.870   0.236   7.226  1.2016  1.4329 -1.2142
   97RES   H15940671   7.006   0.037   7.243  0.1308 -0.4097 -0.2186
   97RES   H16040672   6.835   0.025   7.275 -0.2831  1.4263 -0.2920
   97RES   H16140673   6.968   7.654   7.012  1.9088  0.1936  1.9015
   97RES   H16240674   6.798   7.648   7.055  0.6818 -0.7814 -0.1635
   97RES   H16340675   6.815   7.485   7.219  0.8459 -0.6357  1.8857
   97RES   H16440676   6.993   7.498   7.235 -0.4831 -2.6251 -0.4961
   97RES   H16540677   7.026   7.422   7.020  0.4823  0.4654  1.8987
   97RES   H16640678   6.853   7.440   6.985 -2.0380 -0.9570  0.5710
   97RES   H16740679   6.786   7.286   7.153  0.2086 -0.8366  2.5068
   97RES   H16840680   6.942   7.259   7.206 -0.4636 -1.2364  0.5396
   97RES   H16940681   6.901   7.198   7.036 -0.2237  1.0674  0.0648
   97RES   C17040682   6.726   0.180   7.081  0.0918  0.2237 -0.6655
   97RES   C17140683   6.653   0.304   7.116  0.5087  0.7287  0.3636
   97RES   C17240684   6.695   0.429   7.035  0.0088  0.3793  0.1655
   97RES   C17340685   6.682   0.420   6.883 -0.0681  0.0996 -0.7008
   97RES   C17440686   6.703   0.554   6.806  0.4877 -0.2206 -0.0460
   97RES   C17540687   6.723   0.547   6.654  0.1949 -0.5711  0.6761
   97RES   C17640688   6.874   0.540   6.628  0.4934  0.0889 -0.7014
   97RES   H17740689   6.677   0.095   7.130  2.1296 -1.3275 -1.2448
   97RES   H17840690   6.728   0.162   6.974 -0.9258  3.0982 -1.2056
   97RES   H17940691   6.686   0.323   7.218  0.6514  2.6755 -0.0272
   97RES   H18040692   6.796   0.459   7.065 -0.3862  0.4961  1.4034
   97RES   H18140693   6.627   0.509   7.062 -3.5888 -1.7040 -2.3065
   97RES   H18240694   6.585   0.386   6.847  0.4774 -4.0245  1.3798
   97RES   H18340695   6.759   0.348   6.854  0.7130 -0.6194  2.8996
   97RES   H18440696   6.790   0.603   6.849  1.2348  0.1043 -1.8746
   97RES   H18540697   6.619   0.615   6.836  0.2565 -0.3910 -0.3388
   97RES   H18640698   6.681   0.637   6.608  0.1612 -1.4578 -1.0845
   97RES   H18740699   6.672   0.462   6.609  0.5167  0.3205 -1.4443
   97RES   H18840700   6.881   0.551   6.520  2.2643 -1.1161 -0.7298
   97RES   H18940701   6.927   0.454   6.669  0.8165  0.5198 -0.1976
   97RES   H19040702   6.935   0.610   6.685  0.2934 -2.3401  2.6715
   97RES   C19140703   6.495   0.282   7.109 -0.0340  0.0613  0.1131
   97RES   C19240704   6.425   0.249   7.242  0.0853  0.6973  0.1712
   97RES   C19340705   6.462   0.112   7.309  0.0526 -0.0779  0.3361
   97RES   C19440706   6.413   7.713   7.222  0.1864 -1.2984 -0.2542
   97RES   C19540707   6.473   7.578   7.277 -0.2628 -0.0468 -0.1354
   97RES   C19640708   6.424   7.547   7.418 -1.1292  0.5427  0.0031
   97RES   C19740709   6.502   7.422   7.477  0.3868  0.7563  0.2555
   97RES   H19840710   6.479   0.208   7.031 -0.1002 -1.0596  1.1749
   97RES   H19940711   6.439   0.371   7.083 -0.3676 -0.3845 -0.6984
   97RES   H20040712   6.317   0.259   7.233  0.0337 -0.1014 -0.1189
   97RES   H20140713   6.414   0.109   7.407 -1.2031  0.8840 -0.2302
   97RES   H20240714   6.568   0.095   7.325  0.0057 -0.6734  0.0133
   97RES   H20340715   6.433   0.008   7.117 -1.7749 -3.2315 -1.0753
   97RES   H20440716   6.305   7.699   7.225  0.3893 -3.2694 -1.3411
   97RES   H20540717   6.459   7.497   7.205  0.6488  0.5687 -1.0182
   97RES   H20640718   6.582   7.587   7.268 -0.6017  3.2851 -1.5054
   97RES   H20740719   6.315   7.539   7.412 -1.4440  3.3807  1.0222
   97RES   H20840720   6.443   7.633   7.482 -0.8441  0.7090 -0.3118
   97RES   H20940721   6.610   7.432   7.487  0.5214 -2.3338  2.6753
   97RES   H21040722   6.489   7.330   7.419  0.0319  1.3502 -0.6085
   97RES   H21140723   6.461   7.407   7.577  1.9390 -0.2508  0.7490
   97RES   C21240724   6.462   0.370   7.341 -0.1852  0.2343 -0.4062
   97RES   C21340725   6.351   0.421   7.436  0.6799  0.2554 -0.3030
   97RES   C21440726   6.418   0.490   7.560  0.5272  0.3829  0.0553
   97RES   C21540727   6.448   0.390   7.671  0.1538  0.4852  0.3634
   97RES   C21640728   6.499   0.454   0.074 -0.3204  0.0962 -0.4576
   97RES   C21740729   6.568   0.360   0.179 -0.3394  0.0494 -0.0852
   97RES   C21840730   6.628   0.447   0.292 -0.5048 -0.0371 -0.6262
   97RES   H21940731   6.497   0.456   7.283 -2.9176  0.2465 -2.1105
   97RES   H22040732   6.546   0.337   7.402 -1.3473 -0.4792  0.8537
   97RES   H22140733   6.302   0.328   7.467  0.5974  0.1748 -0.6678
   97RES   H22240734   6.502   0.548   7.522  0.1251  0.0682 -1.3377
   97RES   H22340735   6.351   0.562   7.607 -1.3997 -0.8178 -0.7554
   97RES   H22440736   6.510   0.307   7.637  1.1511  0.0847  3.0976
   97RES   H22540737   6.353   0.339   7.689  0.6464 -0.6477 -0.2099
   97RES   H22640738   6.576   0.521   0.035  0.0692 -0.4797 -0.6966
   97RES   H22740739   6.425   0.515   0.124  0.8575  0.9371  0.2771
   97RES   H22840740   6.490   0.296   0.220 -0.4263 -0.9118 -1.6977
   97RES   H22940741   6.638   0.290   0.133 -1.0196 -0.2990 -0.6097
   97RES   H23040742   6.676   0.381   0.364  0.8628 -0.7232 -2.1364
   97RES   H23140743   6.572   0.523   0.345  2.3619  1.5353  0.2413
   97RES   H23240744   6.713   0.491   0.241 -0.5074  2.2005  1.2581
   97RES   C23340745   6.257   0.521   7.361 -0.5694 -0.6782 -0.4569
   97RES   C23440746   6.105   0.520   7.405 -0.9493  0.0518  0.2805
   97RES   C23540747   6.043   0.384   7.373 -0.4810 -0.0923 -0.8379
   97RES   C23640748   5.895   0.386   7.391 -0.0241 -0.6295 -0.3176
   97RES   C23740749   5.832   0.253   7.324 -0.0538  0.0578  0.6660
   97RES   C23840750   5.688   0.270   7.277  0.0024  0.7243  0.1156
   97RES   C23940751   5.590   0.310   7.391  0.3543  0.7654  0.2694
   97RES   H24040752   6.263   0.496   7.255  1.3650  0.0750 -0.5512
   97RES   H24140753   6.298   0.621   7.370  2.2621 -1.7046 -1.6004
   97RES   H24240754   6.050   0.595   7.348 -1.9551 -2.2722 -1.9424
   97RES   H24340755   6.084   0.312   7.445  0.6007  0.2392 -1.1025
   97RES   H24440756   6.079   0.349   7.277 -0.3053 -0.1698 -0.7450
   97RES   H24540757   5.855   0.476   7.344 -1.5007 -0.4737  1.1850
   97RES   H24640758   5.856   0.391   7.492  0.3433  1.3210 -0.2581
   97RES   H24740759   5.846   0.167   7.389 -1.3241 -0.0018  0.8720
   97RES   H24840760   5.897   0.232   7.239  0.4283  0.8095  0.8467
   97RES   H24940761   5.674   0.341   7.195  0.8617 -2.2771 -2.7180
   97RES   H25040762   5.664   0.173   7.236 -0.4549  0.3969  1.1441
   97RES   H25140763   5.602   0.234   7.469  1.6917 -0.1640 -0.8086
   97RES   H25240764   5.601   0.414   7.420  0.1796  1.2713 -1.4190
   97RES   H25340765   5.497   0.300   7.336  0.7689 -0.3074 -0.2695
   97RES   C25440766   6.079   0.564   7.553 -0.7750  0.9210  0.4124
   97RES   C25540767   6.075   0.718   7.581  0.6627  0.5711  0.6269
   97RES   C25640768   6.085   0.760   7.725 -0.3325  0.1068  0.0502
   97RES   C25740769   6.217   0.748   0.073 -0.5529  0.3575  0.6180
   97RES   C25840770   6.327   0.838   0.022 -0.6240 -0.1487  0.6871
   97RES   C25940771   6.444   0.868   0.121 -0.9539 -0.0192 -0.0213
   97RES   C26040772   6.547   0.970   0.080 -0.4984  0.9098  0.3690
   97RES   H26140773   6.162   0.528   7.614 -0.0802 -0.0108 -1.0379
   97RES   H26240774   5.987   0.523   7.595 -0.6401  0.8937  0.6805
   97RES   H26340775   6.161   0.762   7.531 -1.1242  1.7543 -1.5381
   97RES   H26440776   6.016   0.698   0.055 -0.1576 -0.9722 -0.8974
   97RES   H26540777   6.050   0.863   0.009  0.3869  0.5151 -1.3502
   97RES   H26640778   6.197   0.773   0.177 -2.3182 -0.4225  0.4988
   97RES   H26740779   6.255   0.646   0.073 -0.9654  0.1953  2.0260
   97RES   H26840780   6.282   0.932   7.719 -2.5671 -1.1649  0.3511
   97RES   H26940781   6.367   0.802   7.653 -1.1090  0.9953  0.0450
   97RES   H27040782   6.392   0.908   0.208  3.2445  1.3523  2.0218
   97RES   H27140783   6.503   0.781   0.150  0.7775  0.8170 -0.9815
   97RES   H27240784   6.613   0.983   0.166 -1.0116  0.2282  0.8656
   97RES   H27340785   6.593   0.927   7.718  0.2580 -1.7524  1.9906
   97RES   H27440786   6.500   1.065   0.054  0.8852  0.5645 -3.7060
   97RES   C27540787   5.945   0.773   7.516 -0.0201 -0.0128 -0.1240
   97RES   C27640788   5.968   0.906   7.442 -0.3630 -0.2072  0.4965
   97RES   C27740789   5.841   0.994   7.434 -0.2447 -0.0560  0.0585
   97RES   C27840790   5.813   1.053   7.570 -0.1916 -1.0379  0.4662
   97RES   C27940791   5.800   1.205   7.567 -0.2743  0.3742  0.2558
   97RES   C28040792   5.767   1.266   7.703 -0.0150  0.2522  0.0438
   97RES   C28140793   5.707   1.399   7.688  0.1185  0.0272 -0.4385
   97RES   H28240794   5.875   0.787   7.598  1.4792  0.0183  1.1765
   97RES   H28340795   5.906   0.700   7.445  0.7728  0.2871 -0.8628
   97RES   H28440796   6.040   0.968   7.495 -0.5918 -0.6513  1.3228
   97RES   H28540797   5.841   1.062   7.349 -0.1152 -2.9045 -2.3147
   97RES   H28640798   5.755   0.929   7.418  0.9686 -1.0271 -2.7151
   97RES   H28740799   5.896   1.029   7.637  0.8472 -1.1037 -0.8317
   97RES   H28840800   5.715   1.022   7.606 -0.1622  1.5242  2.9180
   97RES   H28940801   5.723   1.241   7.499  0.3031 -1.8791 -1.6795
   97RES   H29040802   5.883   1.255   7.516 -0.4241  0.6971  0.3278
   97RES   H29140803   5.699   1.200   0.031 -0.8029  0.9331 -0.1036
   97RES   H29240804   5.859   1.274   0.035 -1.2123 -1.7324  2.2644
   97RES   H29340805   5.712   1.444   0.061 -0.7376  0.8422 -0.7614
   97RES   H29440806   5.603   1.383   7.659 -1.3516  0.2995  4.1757
   97RES   H29540807   5.758   1.466   7.618 -0.3062 -0.1852 -0.9528
   97RES   C29640808   6.044   0.898   7.302 -0.2057 -0.0373  0.1568
   97RES   C29740809   6.109   1.026   7.247  0.1765 -0.7292 -0.0398
   97RES   C29840810   6.094   1.051   7.097  0.5412  0.0317 -0.6365
   97RES   C29940811   5.952   1.095   7.053  0.2012  0.3844  0.1324
   97RES   C30040812   5.941   1.151   6.911  0.4022  0.1069  1.1594
   97RES   C30140813   5.800   1.155   6.858 -0.2394 -0.3061  0.2432
   97RES   C30240814   5.789   1.213   6.718  0.1468 -0.2160 -0.4798
   97RES   H30340815   6.110   0.812   7.301 -0.0754  0.0650  0.0048
   97RES   H30440816   5.971   0.867   7.228  0.9666  1.5673 -1.7135
   97RES   H30540817   6.051   1.107   7.292 -0.2348 -0.5178 -0.9467
   97RES   H30640818   6.158   1.131   7.059  1.2212 -0.3958 -0.4175
   97RES   H30740819   6.131   0.964   7.042 -2.8687  0.1233 -3.1830
   97RES   H30840820   5.917   1.167   7.127 -0.3214 -0.7474  1.0033
   97RES   H30940821   5.888   1.009   7.067 -0.9241  1.1640 -0.1553
   97RES   H31040822   6.014   1.115   6.839 -1.1177  0.4989 -0.6244
   97RES   H31140823   5.966   1.256   6.924 -0.5458  0.4539  0.3096
   97RES   H31240824   5.766   1.051   6.859 -2.8301  0.5245  0.8170
   97RES   H31340825   5.745   1.223   6.922 -1.8443 -1.2584 -0.0967
   97RES   H31440826   5.859   1.159   6.655  0.4811  1.4242 -1.5433
   97RES   H31540827   5.693   1.198   6.669  0.9669 -1.9630 -1.6099
   97RES   H31640828   5.817   1.316   6.698 -2.1723  0.0758 -2.4335
   97RES   C31740829   6.261   1.037   7.277  0.0933 -0.4407 -0.2905
   97RES   C31840830   6.306   1.032   7.425 -0.0158 -0.4402  0.2400
   97RES   C31940831   6.462   1.006   7.438 -0.6337 -0.8923 -0.8432
   97RES   C32040832   6.512   0.872   7.381  0.5868 -0.0488  0.4524
   97RES   C32140833   6.642   0.831   7.453  0.1436 -0.5866  0.8919
   97RES   C32240834   6.734   0.724   7.387  0.5847 -0.5380  0.4426
   97RES   C32340835   6.763   0.765   7.235 -0.0359 -0.1949 -0.1268
   97RES   H32440836   6.304   1.127   7.234 -0.1024 -1.1563 -2.0608
   97RES   H32540837   6.322   0.960   7.230  1.7394 -1.0049  2.6531
   97RES   H32640838   6.254   0.944   7.462  1.0023 -0.3161  2.0046
   97RES   H32740839   6.490   1.001   7.543 -1.5757 -1.9142 -0.6321
   97RES   H32840840   6.519   1.094   7.409  0.8989 -0.2888  3.5507
   97RES   H32940841   6.533   0.896   7.277 -1.9136 -2.6905 -0.7214
   97RES   H33040842   6.442   0.788   7.385 -1.5551  1.6391 -0.6175
   97RES   H33140843   6.617   0.788   7.550 -0.5428 -1.1350  0.4745
   97RES   H33240844   6.703   0.918   7.478  1.6443 -1.2497 -0.3688
   97RES   H33340845   6.706   0.619   7.386 -1.6423  0.0157  0.2395
   97RES   H33440846   6.826   0.735   7.444  0.2689 -0.5872  0.9616
   97RES   H33540847   6.678   0.746   7.170  0.6936 -0.8178 -0.9063
   97RES   H33640848   6.842   0.714   7.180  1.7494  1.0211  1.2569
   97RES   H33740849   6.791   0.870   7.231 -1.6601  0.3401  1.6818
   97RES   C33840850   6.253   1.147   7.507 -0.1459  0.1965 -0.7834
   97RES   C33940851   6.308   1.291   7.489  0.9129 -0.1451  0.4351
   97RES   C34040852   6.287   1.369   7.622  0.0286 -0.0274  0.0525
   97RES   C34140853   6.368   1.315   0.019  0.1009 -0.4313  0.5075
   97RES   C34240854   6.351   1.397   0.144 -0.5449 -0.1532  0.4039
   97RES   C34340855   6.439   1.344   0.263  0.1504 -0.2073 -0.1524
   97RES   C34440856   6.591   1.350   0.236 -0.1395 -0.3054  0.2970
   97RES   H34540857   6.273   1.122   7.611  2.6142  2.4534 -0.6924
   97RES   H34640858   6.144   1.144   7.508 -0.1889  1.5085  0.0508
   97RES   H34740859   6.413   1.283   7.463  0.6054 -2.6999 -0.1869
   97RES   H34840860   6.312   1.473   7.601 -1.2536  0.0446 -1.1827
   97RES   H34940861   6.182   1.378   7.652 -0.1924  1.9267 -1.2039
   97RES   H35040862   6.470   1.323   7.708 -0.4872 -0.5613 -1.1513
   97RES   H35140863   6.349   1.214   0.053 -0.0744 -1.1656 -1.6782
   97RES   H35240864   6.376   1.500   0.119  1.0236 -0.8108 -0.7956
   97RES   H35340865   6.244   1.389   0.168 -0.9954  0.7984 -1.2397
   97RES   H35440866   6.403   1.405   0.346 -0.7162 -0.6005 -0.2390
   97RES   H35540867   6.410   1.242   0.288  2.7359 -0.5183  1.9025
   97RES   H35640868   6.649   1.295   0.311  2.3868  1.1349 -0.5502
   97RES   H35740869   6.626   1.453   0.235 -0.9756 -0.0218 -1.6250
   97RES   H35840870   6.623   1.300   0.144  1.6303 -1.5540  1.5399
   97RES   C35940871   6.210   1.359   7.387 -0.0636 -0.2032 -0.2959
   97RES   C36040872   6.258   1.489   7.321  0.0076  0.5087 -0.0255
   97RES   C36140873   6.400   1.473   7.249  0.1677 -0.6270 -0.7437
   97RES   C36240874   6.449   1.607   7.185  0.2653 -1.3663 -0.0151
   97RES   C36340875   6.601   1.618   7.162  0.1400 -0.4862 -0.0201
   97RES   C36440876   6.633   1.735   7.072  0.3437 -0.0670  0.2967
   97RES   C36540877   6.781   1.726   7.023 -0.3369  0.1166 -0.2240
   97RES   H36640878   6.118   1.384   7.440  1.1690 -0.5603  2.0726
   97RES   H36740879   6.175   1.287   7.312 -2.3083  1.5663 -0.9968
   97RES   H36840880   6.253   1.558   7.405  1.0761 -0.5215  0.9009
   97RES   H36940881   6.477   1.422   7.306 -0.3229 -1.4972 -0.8470
   97RES   H37040882   6.374   1.406   7.167  0.6503 -0.1489 -1.2946
   97RES   H37140883   6.406   1.619   7.085 -1.2758 -1.1544  0.6625
   97RES   H37240884   6.417   1.693   7.244  3.6999 -0.4777  0.6339
   97RES   H37340885   6.654   1.629   7.256  0.6734 -0.4701 -0.3246
   97RES   H37440886   6.646   1.528   7.121 -0.8267 -1.2465  0.5555
   97RES   H37540887   6.573   1.737   6.982  1.5309  0.9622 -0.4957
   97RES   H37640888   6.621   1.821   7.138 -0.2155  0.7332 -0.8397
   97RES   H37740889   6.798   1.628   6.979 -0.7869  0.1906 -0.5751
   97RES   H37840890   6.814   1.800   6.950  0.9096 -0.4091 -0.1848
   97RES   H37940891   6.854   1.726   7.104  2.0841 -3.1805 -2.3003
   97RES   C38040892   6.168   1.554   7.220  0.1208 -0.3648  0.3347
   97RES   C38140893   6.028   1.593   7.259  0.2632 -0.3024  0.3258
   97RES   C38240894   5.979   1.737   7.230  0.7705  1.1750 -0.7520
   97RES   C38340895   5.960   1.779   7.082  0.2561  0.0012  0.2331
   97RES   C38440896   5.912   1.923   7.051  0.2708  0.0915 -0.2489
   97RES   C38540897   5.959   1.994   6.924 -0.1193 -0.3740  0.7586
   97RES   C38640898   5.921   2.142   6.908  0.4732  0.5894  0.4076
   97RES   H38740899   6.211   1.646   7.180 -1.2774  0.3755  0.4918
   97RES   H38840900   6.164   1.492   7.131  0.2256  0.7365 -0.4454
   97RES   H38940901   6.015   1.572   7.365  2.2718 -2.7036  0.1415
   97RES   H39040902   6.040   1.808   7.284 -2.5164  3.6396 -0.1059
   97RES   H39140903   5.879   1.751   7.272  1.6486 -0.4160  1.9322
   97RES   H39240904   6.049   1.756   7.024 -1.0332 -1.6374 -1.1478
   97RES   H39340905   5.883   1.714   7.041 -1.8414  1.1686  2.2087
   97RES   H39440906   5.805   1.907   7.034  0.4491 -1.9442  0.5206
   97RES   H39540907   5.924   1.983   7.141 -0.2053  1.3537 -1.0008
   97RES   H39640908   5.934   1.947   6.829 -0.4098  0.2425  0.5295
   97RES   H39740909   6.067   1.997   6.931 -0.1206  2.4545 -0.1571
   97RES   H39840910   5.990   2.197   6.843 -0.7419  0.0147 -1.4133
   97RES   H39940911   5.909   2.177   7.011 -0.0967  1.1734  0.1530
   97RES   H40040912   5.821   2.144   6.865  0.6761 -0.0053 -0.0855
   97RES   C40140913   5.941   1.490   7.183 -0.1122 -0.5175  0.2887
   97RES   C40240914   5.799   1.490   7.250 -0.6908  0.2220  0.8823
   97RES   C40340915   5.691   1.392   7.197 -0.0902 -0.1694 -0.0482
   97RES   C40440916   5.560   1.383   7.271 -0.4024 -0.0157  0.2696
   97RES   C40540917   5.459   1.495   7.233 -0.1369  0.3662 -0.2201
   97RES   C40640918   5.341   1.500   7.332  1.3232 -0.2791 -0.1022
   97RES   C40740919   5.235   1.609   7.296 -0.2986  0.2130  0.9111
   97RES   H40840920   5.991   1.393   7.182  1.4173  0.2315  1.2339
   97RES   H40940921   5.925   1.511   7.077 -1.6579  3.2741  1.1722
   97RES   H41040922   5.751   1.587   7.263  2.1361  1.8479 -0.2737
   97RES   H41140923   5.731   1.292   7.213  0.3906  0.4220  2.7037
   97RES   H41240924   5.669   1.405   7.091 -2.7943  0.8209  0.6090
   97RES   H41340925   5.580   1.405   7.376 -1.0637 -2.0101  0.8373
   97RES   H41440926   5.516   1.283   7.269 -1.2705  0.3888 -0.5352
   97RES   H41540927   5.503   1.593   7.247  1.0315 -0.0962 -0.6111
   97RES   H41640928   5.433   1.472   7.129  1.6276 -0.5585 -0.4750
   97RES   H41740929   5.299   1.400   7.343  0.1704  0.1865 -0.1963
   97RES   H41840930   5.390   1.530   7.425  0.7216  1.5953 -0.3779
   97RES   H41940931   5.190   1.602   7.197  0.4847 -3.0514  0.7066
   97RES   H42040932   5.284   1.706   7.290 -0.1757  0.0192 -1.5753
   97RES   H42140933   5.157   1.608   7.372  0.4286  0.9575  1.6724
   97RES   H42240934   5.827   1.452   7.349  2.2615  0.6466  0.2618
   98RES     C140935   4.731   3.526   2.796 -0.2408  0.0936 -0.7348
   98RES     C240936   4.581   3.564   2.801  0.2905 -0.3239 -0.2110
   98RES     C340937   4.554   3.671   2.695  0.1174  0.0841 -0.0292
   98RES     C440938   4.598   3.641   2.553  0.1126  0.5671 -0.8364
   98RES     C540939   4.553   3.753   2.458  0.2470  0.1850 -0.7591
   98RES     C640940   4.612   3.728   2.315  0.0640 -0.0664 -0.0760
   98RES     C740941   4.625   3.588   2.257 -0.1938  0.5820 -0.1776
   98RES     H840942   4.803   3.607   2.796  1.7618 -1.6404  0.3047
   98RES     H940943   4.742   3.482   2.697 -0.7858 -1.2905 -0.2035
   98RES    H1040944   4.521   3.478   2.772 -1.9391  1.1278 -0.0759
   98RES    H1140945   4.451   3.705   2.707  0.5647  1.3431  0.3490
   98RES    H1240946   4.600   3.761   2.735 -0.6762  0.9556 -1.0631
   98RES    H1340947   4.707   3.640   2.549  0.2554 -3.0950  1.6495
   98RES    H1440948   4.556   3.543   2.527  0.3973  0.0627  0.5593
   98RES    H1540949   4.604   3.842   2.493  1.5673 -1.4167  1.4981
   98RES    H1640950   4.445   3.772   2.454  0.6147  2.0069 -2.9216
   98RES    H1740951   4.711   3.774   2.324  0.3962 -0.0701 -2.9429
   98RES    H1840952   4.562   3.799   2.249  0.3386 -0.4619 -0.7170
   98RES    H1940953   4.657   3.602   2.154  0.2271  0.6115 -0.0437
   98RES    H2040954   4.526   3.542   2.264  0.2425 -0.0688  1.9890
   98RES    H2140955   4.699   3.525   2.306  0.7123  2.4419  0.8577
   98RES    H2240956   4.767   3.452   2.868 -2.5089  0.4920  0.8718
   98RES    C2340957   4.546   3.613   2.942  0.2084  0.1939  0.2158
   98RES    C2440958   4.550   3.515   3.057 -0.7161  0.5277 -0.7544
   98RES    C2540959   4.454   3.392   3.042 -0.8510  0.6157 -0.2777
   98RES    C2640960   4.298   3.411   3.033  0.1924  0.0145 -0.1059
   98RES    C2740961   4.224   3.280   3.071 -0.3191  0.2780 -0.3977
   98RES    C2840962   4.238   3.180   2.958  0.1113  0.4623 -0.2303
   98RES    C2940963   4.170   3.042   2.978 -0.1811 -0.1169  0.6851
   98RES    H3040964   4.612   3.699   2.956  0.9988 -0.5388  1.0619
   98RES    H3140965   4.446   3.657   2.942  0.8551  1.7426  2.4756
   98RES    H3240966   4.654   3.485   3.054 -0.0403  2.8369 -1.1958
   98RES    H3340967   4.470   3.317   3.119  0.4311  0.6236 -0.5281
   98RES    H3440968   4.492   3.340   2.955  1.8294  2.8240 -0.5029
   98RES    H3540969   4.259   3.436   2.934  0.0617 -0.5535 -0.1970
   98RES    H3640970   4.269   3.491   3.102  2.2951  1.2699 -0.6275
   98RES    H3740971   4.119   3.298   3.096  0.1587  0.4461  1.5997
   98RES    H3840972   4.256   3.242   3.168 -1.3550 -0.3795 -0.3068
   98RES    H3940973   4.345   3.161   2.946 -0.0493  0.6018 -2.0435
   98RES    H4040974   4.197   3.226   2.867  0.4012  0.5649 -0.3100
   98RES    H4140975   4.065   3.040   3.009 -0.8150 -1.4829 -1.4424
   98RES    H4240976   4.161   2.972   2.895  2.0475  0.0076  0.3168
   98RES    H4340977   4.223   2.998   3.062 -1.8946 -0.9674  1.3585
   98RES    C4440978   4.520   3.581   3.194  0.0023 -0.0084  0.8182
   98RES    C4540979   4.537   3.491   3.322  1.2017  0.0129  0.1596
   98RES    C4640980   4.680   3.445   3.337  0.5965  0.3708 -0.4257
   98RES    C4740981   4.720   3.376   3.469  0.2210  0.5164  0.1993
   98RES    C4840982   4.868   3.359   3.483  0.6936 -0.4494 -0.0098
   98RES    C4940983   4.888   3.245   3.589  0.2607 -0.0750  0.3877
   98RES    C5040984   4.846   3.285   3.734 -0.4277 -0.0345 -0.2198
   98RES    H5140985   4.417   3.615   3.189 -0.0336 -0.3526 -1.0441
   98RES    H5240986   4.573   3.674   3.213  0.9024 -0.2905 -0.2245
   98RES    H5340987   4.467   3.408   3.310  0.1835  1.0858 -1.5872
   98RES    H5440988   4.749   3.529   3.330 -1.5543  2.1815 -0.2866
   98RES    H5540989   4.693   3.372   3.257  1.2382  1.2158 -1.1044
   98RES    H5640990   4.692   3.424   3.563 -1.3708 -0.3389  0.1826
   98RES    H5740991   4.673   3.278   3.478 -0.3726  0.9140  1.7322
   98RES    H5840992   4.918   3.454   3.503  1.5386 -0.7780 -0.5194
   98RES    H5940993   4.907   3.331   3.386 -0.8306  0.6848 -0.9795
   98RES    H6040994   4.994   3.220   3.596  0.8366  1.8114 -1.0286
   98RES    H6140995   4.850   3.148   3.556 -1.5639  0.6343  0.3725
   98RES    H6240996   4.886   3.215   3.806  0.8451 -0.1261 -1.0001
   98RES    H6340997   4.739   3.262   3.734 -0.2085 -1.0766 -0.3948
   98RES    H6440998   4.865   3.389   3.762 -0.2029  0.1228 -0.9521
   98RES    C6540999   4.488   3.578   3.441  0.5215  0.4124 -0.6616
   98RES    C6641000   4.416   3.499   3.555 -0.1581 -0.3541 -0.3521
   98RES    C6741001   4.277   3.442   3.514  0.1590 -0.0937 -0.3901
   98RES    C6841002   4.168   3.545   3.477 -0.5959  0.2658  0.7746
   98RES    C6941003   4.042   3.476   3.452  0.2673  0.4287 -0.1710
   98RES    C7041004   3.932   3.567   3.393  0.2461  0.2477  0.0570
   98RES    C7141005   3.959   3.619   3.246  0.4698  0.0659  0.1520
   98RES    H7241006   4.571   3.632   3.487  2.2619 -2.6014 -0.1041
   98RES    H7341007   4.418   3.652   3.402 -1.6781 -1.7306 -0.8864
   98RES    H7441008   4.473   3.407   3.564 -0.7369 -0.5939  0.9319
   98RES    H7541009   4.285   3.371   3.432 -0.2572 -0.1072 -0.4194
   98RES    H7641010   4.242   3.381   3.598 -0.3892  1.2878  0.3884
   98RES    H7741011   4.155   3.617   3.557  0.3516  0.7590  0.4980
   98RES    H7841012   4.198   3.595   3.384 -0.9126 -2.2580 -0.7288
   98RES    H7941013   4.036   3.406   3.369 -2.1120  0.0216  0.2900
   98RES    H8041014   4.006   3.420   3.539  0.9863  0.4887  0.1622
   98RES    H8141015   3.916   3.657   3.453 -1.8589 -0.3495  0.4284
   98RES    H8241016   3.844   3.504   3.383 -0.1515  1.0179 -1.5108
   98RES    H8341017   3.970   3.533   3.180 -1.8425 -0.5806  0.5661
   98RES    H8441018   3.881   3.690   3.219  0.2782 -0.3036 -0.2478
   98RES    H8541019   4.049   3.681   3.239  0.6425 -0.5543 -4.0204
   98RES    C8641020   4.418   3.576   3.691  0.2657 -1.2665 -0.2990
   98RES    C8741021   4.386   3.503   3.819  0.6521  0.3091 -0.8198
   98RES    C8841022   4.504   3.420   3.877 -0.2005  0.2357  0.0182
   98RES    C8941023   4.488   3.347   4.007  0.2512 -1.0967 -0.0071
   98RES    C9041024   4.592   3.231   4.025  0.0542 -0.1334 -0.4237
   98RES    C9141025   4.556   3.141   4.145 -0.1393 -0.2129 -0.0845
   98RES    C9241026   4.646   3.006   4.152 -0.7795 -1.2905 -0.2910
   98RES    H9341027   4.510   3.631   3.712 -0.2513 -0.6827  0.4408
   98RES    H9441028   4.346   3.658   3.684 -0.9043 -2.1988  0.6135
   98RES    H9541029   4.299   3.443   3.791  0.8633  0.6286 -2.1800
   98RES    H9641030   4.530   3.350   3.797  0.2335 -0.9559  1.1729
   98RES    H9741031   4.585   3.490   3.897  3.0193 -2.2123 -3.6701
   98RES    H9841032   4.486   3.413   4.094  0.4368  0.1568 -0.9392
   98RES    H9941033   4.392   3.295   4.010  0.9215 -2.3494  0.2704
   98RES   H10041034   4.691   3.272   4.042  0.1145 -0.1369 -0.7722
   98RES   H10141035   4.585   3.164   3.940 -1.5225 -1.9632  1.0803
   98RES   H10241036   4.558   3.195   4.240 -3.5516  0.0779 -0.1008
   98RES   H10341037   4.451   3.110   4.142  0.3057 -1.6168 -1.8399
   98RES   H10441038   4.628   2.943   4.065  1.1795  0.6028 -2.1607
   98RES   H10541039   4.633   2.949   4.243  1.5717 -0.4076  0.6469
   98RES   H10641040   4.752   3.032   4.153 -0.8832 -0.8935  0.2235
   98RES   C10741041   4.339   3.609   3.927 -0.6901 -0.1126  0.2806
   98RES   C10841042   4.200   3.676   3.908  0.2201 -0.2781  0.2981
   98RES   C10941043   4.081   3.586   3.950  0.1745  0.3323 -0.0377
   98RES   C11041044   4.007   3.519   3.831  0.4570 -0.1076 -0.5433
   98RES   C11141045   3.922   3.397   3.875  0.0182  0.5394  0.0078
   98RES   C11241046   3.841   3.334   3.761  0.3811 -0.2384  0.3506
   98RES   C11341047   3.755   3.436   3.687  0.5984 -0.0398  0.6604
   98RES   H11441048   4.415   3.684   3.950 -0.0093 -0.3137 -1.2271
   98RES   H11541049   4.342   3.560   4.025  0.1611 -1.0521 -0.2001
   98RES   H11641050   4.185   3.701   3.802  0.2845 -1.1485  0.0839
   98RES   H11741051   4.014   3.635   4.021 -1.2584 -0.2436 -0.9623
   98RES   H11841052   4.122   3.497   3.998 -2.5127 -0.5888  0.6894
   98RES   H11941053   3.944   3.593   3.782 -2.8793 -1.2272  1.8218
   98RES   H12041054   4.086   3.495   3.760  0.8592 -0.4210  0.0069
   98RES   H12141055   3.853   3.425   3.954  0.4298  1.0738  0.1836
   98RES   H12241056   3.984   3.325   3.928 -1.5748  0.4977  1.8659
   98RES   H12341057   3.908   3.287   3.689 -0.5014 -0.8239 -0.1058
   98RES   H12441058   3.775   3.254   3.796 -0.1320 -0.6717 -1.5296
   98RES   H12541059   3.706   3.494   3.765 -1.5851  1.0756 -1.4856
   98RES   H12641060   3.793   3.506   3.613 -2.8361  2.3222  0.9812
   98RES   H12741061   3.667   3.394   3.638  0.9586 -0.8757  0.7248
   98RES   C12841062   4.211   3.814   3.990  0.1654  0.0435  0.6500
   98RES   C12941063   4.293   3.931   3.918  0.1010 -0.3469  0.0997
   98RES   C13041064   4.365   4.008   4.028 -0.0839 -0.0167  0.5514
   98RES   C13141065   4.269   4.090   4.120  0.3235 -0.4535 -0.5827
   98RES   C13241066   4.347   4.159   4.234 -0.1419 -0.2960  0.7303
   98RES   C13341067   4.248   4.250   4.314  0.7872 -0.2562 -0.0432
   98RES   C13441068   4.328   4.323   4.427  0.3879  0.6219 -0.3232
   98RES   H13541069   4.106   3.843   3.998  0.1231  0.5486 -1.2953
   98RES   H13641070   4.246   3.795   4.091  3.1310 -1.1447 -0.5410
   98RES   H13741071   4.367   3.890   3.849 -3.3270 -4.4527 -1.3582
   98RES   H13841072   4.438   4.069   3.975 -0.8344  1.2077  0.8955
   98RES   H13941073   4.422   3.934   4.084 -0.3742 -1.1630 -0.6633
   98RES   H14041074   4.203   4.018   4.170  0.7146  0.0551  0.6817
   98RES   H14141075   4.210   4.166   4.069  0.5334  1.3782  1.7934
   98RES   H14241076   4.424   4.213   4.180 -0.6293  1.3180  1.6159
   98RES   H14341077   4.388   4.088   4.305  2.7092 -0.7060 -1.2582
   98RES   H14441078   4.171   4.186   4.356 -1.3019  1.1815 -1.6072
   98RES   H14541079   4.200   4.320   4.245  0.8417 -1.0508 -0.9097
   98RES   H14641080   4.400   4.399   4.394  1.0873  0.2205  0.2560
   98RES   H14741081   4.385   4.263   4.498 -0.0730 -0.6451 -0.9944
   98RES   H14841082   4.261   4.387   4.484 -2.5387 -1.4002 -1.4063
   98RES   C14941083   4.205   4.022   3.834  0.1262 -0.0699  0.2427
   98RES   C15041084   4.270   4.144   3.769  0.2818 -0.2535  0.6283
   98RES   C15141085   4.158   4.237   3.717  0.6347 -0.8938 -0.4691
   98RES   C15241086   4.095   4.325   3.829 -0.2357  0.0832  0.0130
   98RES   C15341087   4.202   4.409   3.896 -0.3186 -0.2015  0.4200
   98RES   C15441088   4.144   4.528   3.980 -0.1327 -0.0346  0.2861
   98RES   C15541089   4.248   4.569   4.078  0.3641 -0.6510  0.0864
   98RES   H15641090   4.158   3.962   3.755 -1.0668 -0.1285  0.9895
   98RES   H15741091   4.124   4.048   3.901  1.0705  2.7796  0.3645
   98RES   H15841092   4.331   4.199   3.841 -1.3859 -0.5358  2.2749
   98RES   H15941093   4.203   4.295   3.636  2.7679  0.9064  1.9051
   98RES   H16041094   4.076   4.187   3.665 -0.5087 -0.5205  0.9457
   98RES   H16141095   4.041   4.272   3.909  2.1833  0.1028  1.7027
   98RES   H16241096   4.017   4.389   3.788 -1.9008 -0.1203  2.6845
   98RES   H16341097   4.276   4.441   3.822 -2.1192 -2.6607 -2.5793
   98RES   H16441098   4.248   4.340   3.967  0.5408  0.5703  0.6134
   98RES   H16541099   4.060   4.491   4.040 -1.0294  0.6709 -0.5162
   98RES   H16641100   4.115   4.610   3.914  0.1388  0.3403  0.6304
   98RES   H16741101   4.212   4.639   4.154  1.1359 -0.2733  0.1170
   98RES   H16841102   4.336   4.610   4.027 -0.8664  2.8427  0.5948
   98RES   H16941103   4.276   4.484   4.140  0.1383  0.4700  1.7464
   98RES   C17041104   4.368   4.112   3.654  0.9027  0.1837 -0.5418
   98RES   C17141105   4.451   4.224   3.588  0.5522  0.0049  0.3875
   98RES   C17241106   4.550   4.286   3.690  0.3363  0.4293  0.0384
   98RES   C17341107   4.661   4.193   3.750 -1.1390 -0.3499  0.5401
   98RES   C17441108   4.730   4.258   3.868  0.2668  0.4087 -0.5347
   98RES   C17541109   4.838   4.163   3.930  0.7207 -0.6551 -0.0352
   98RES   C17641110   4.897   4.231   4.049  0.3889  0.2671  0.2539
   98RES   H17741111   4.306   4.066   3.576 -0.8923 -1.2823  1.6621
   98RES   H17841112   4.444   4.044   3.692  2.1922  2.5256  1.1587
   98RES   H17941113   4.388   4.301   3.545  0.4466 -0.3987 -0.1886
   98RES   H18041114   4.499   4.332   3.775 -0.3075 -2.7942  1.4803
   98RES   H18141115   4.596   4.377   3.653  1.8952 -0.2529  0.2854
   98RES   H18241116   4.736   4.181   3.671 -0.9759  0.2506  0.6024
   98RES   H18341117   4.626   4.094   3.778 -0.5210 -0.8654 -0.4704
   98RES   H18441118   4.645   4.264   3.936 -0.4216 -0.3630 -1.3078
   98RES   H18541119   4.770   4.356   3.842 -1.1411  0.9300 -0.7805
   98RES   H18641120   4.905   4.138   3.848  1.3415 -0.3657  0.3878
   98RES   H18741121   4.783   4.075   3.963 -0.1122  0.0661  0.5221
   98RES   H18841122   4.946   4.318   4.007  0.1001  1.1154  1.6219
   98RES   H18941123   4.968   4.167   4.102  0.6528  0.0331 -0.3852
   98RES   H19041124   4.823   4.259   4.125  0.6298 -0.7850  0.8962
   98RES   C19141125   4.530   4.168   3.469 -0.2756 -0.6255 -0.2350
   98RES   C19241126   4.628   4.268   3.399 -0.0671  0.4537 -0.3225
   98RES   C19341127   4.697   4.204   3.289 -0.2456  0.1831  0.1859
   98RES   C19441128   4.793   4.090   3.330  0.6628 -0.1343  0.5278
   98RES   C19541129   4.868   4.036   3.213  0.5398  0.0434  0.6528
   98RES   C19641130   4.791   3.943   3.123  0.7195 -0.6837  0.4114
   98RES   C19741131   4.885   3.874   3.023  0.2640  0.0416  0.4575
   98RES   H19841132   4.456   4.129   3.399 -1.0685  1.1703 -0.4145
   98RES   H19941133   4.588   4.079   3.498 -0.8765 -1.2045 -0.8108
   98RES   H20041134   4.707   4.307   3.463  0.3366  0.3480 -0.7484
   98RES   H20141135   4.748   4.272   3.220  1.3167 -0.7811  0.3820
   98RES   H20241136   4.620   4.155   3.229 -0.8563  1.2770  0.0453
   98RES   H20341137   4.744   4.009   3.383 -0.5802  0.3820  0.1910
   98RES   H20441138   4.856   4.122   3.413 -0.0398  0.3071  0.9037
   98RES   H20541139   4.898   4.122   3.152 -0.9385 -0.8626 -1.4244
   98RES   H20641140   4.961   3.988   3.241  0.6114 -0.7734 -0.9108
   98RES   H20741141   4.715   4.006   3.076  1.2297  0.2055  0.7641
   98RES   H20841142   4.741   3.873   3.190  1.5291 -3.2211 -1.5993
   98RES   H20941143   4.935   3.952   2.967 -0.9333 -0.8591 -1.9389
   98RES   H21041144   4.827   3.818   2.949 -0.5291 -1.2502  2.0111
   98RES   H21141145   4.962   3.808   3.065  1.8722  1.3894 -0.3222
   98RES   C21241146   4.553   4.396   3.345  0.9565  0.1062 -0.7610
   98RES   C21341147   4.458   4.379   3.228  0.2765  0.2527 -0.6635
   98RES   C21441148   4.324   4.451   3.253 -0.3125  0.3279 -0.1427
   98RES   C21541149   4.217   4.381   3.324 -0.5467 -0.2070  0.1253
   98RES   C21641150   4.086   4.456   3.343 -0.1641 -0.0083  0.7438
   98RES   C21741151   3.979   4.378   3.426 -0.4353 -0.1478  0.7844
   98RES   C21841152   3.835   4.438   3.427  0.5896  0.1185  0.9032
   98RES   H21941153   4.634   4.466   3.323  0.3943  0.0982 -2.9550
   98RES   H22041154   4.508   4.456   3.424  4.6706 -0.8114  2.2182
   98RES   H22141155   4.430   4.274   3.217 -2.9182  0.6964  2.4306
   98RES   H22241156   4.327   4.550   3.298  0.2479  0.4002 -0.3323
   98RES   H22341157   4.280   4.462   3.154 -0.2590 -0.1385 -0.2188
   98RES   H22441158   4.242   4.363   3.429 -1.4255 -3.0157 -0.0893
   98RES   H22541159   4.194   4.293   3.264  1.7984 -0.0204 -1.0995
   98RES   H22641160   4.105   4.544   3.405 -2.4374  0.2616  1.0910
   98RES   H22741161   4.052   4.495   3.247  0.6578 -1.6078 -0.2359
   98RES   H22841162   3.985   4.274   3.396 -3.0873  0.0369 -0.5696
   98RES   H22941163   4.024   4.375   3.525 -0.8121  3.8918  1.1943
   98RES   H23041164   3.813   4.448   3.320  1.6179  2.3045  0.8644
   98RES   H23141165   3.836   4.534   3.479 -1.8102  0.3933  0.4931
   98RES   H23241166   3.754   4.377   3.467  2.4952 -2.3817  0.9929
   98RES   C23341167   4.516   4.424   3.097  0.2062  0.7303  0.0458
   98RES   C23441168   4.456   4.379   2.957  0.3683 -0.1496  0.0157
   98RES   C23541169   4.516   4.466   2.843 -0.4717 -0.2610  0.2590
   98RES   C23641170   4.454   4.608   2.835  0.2758 -0.4322  0.3962
   98RES   C23741171   4.483   4.671   2.698  0.0024  0.0051  0.5352
   98RES   C23841172   4.395   4.795   2.682  0.0680 -0.5133 -0.0350
   98RES   C23941173   4.393   4.849   2.542  0.2538  0.0153 -0.2958
   98RES   H24041174   4.621   4.397   3.098 -0.0084 -0.2273 -1.3758
   98RES   H24141175   4.516   4.533   3.091  1.2139  0.7677  0.7230
   98RES   H24241176   4.349   4.399   2.955  0.0039 -2.0725 -0.6327
   98RES   H24341177   4.503   4.412   2.749  0.1615 -0.5356  0.3208
   98RES   H24441178   4.625   4.473   2.848 -0.2538 -2.1670 -1.2445
   98RES   H24541179   4.494   4.676   2.911  0.8633 -0.9171  0.5325
   98RES   H24641180   4.346   4.604   2.852  0.0747  1.7960 -0.1420
   98RES   H24741181   4.447   4.604   2.620 -0.0815  1.1501 -0.4331
   98RES   H24841182   4.585   4.706   2.681  0.3763 -0.4127  1.8849
   98RES   H24941183   4.288   4.778   2.697  0.2001 -0.5662  0.9064
   98RES   H25041184   4.427   4.871   2.753  0.5786 -0.4304 -0.3560
   98RES   H25141185   4.495   4.858   2.504  0.2404  0.8186 -0.1485
   98RES   H25241186   4.340   4.791   2.467 -0.1225  0.0133 -0.0287
   98RES   H25341187   4.345   4.947   2.541  1.3642  0.5697  0.1070
   98RES   C25441188   4.482   4.235   2.921  0.3109 -0.3919  0.1905
   98RES   C25541189   4.351   4.156   2.893 -0.6137 -0.2173  0.0069
   98RES   C25641190   4.385   4.005   2.911  0.0309  0.0959 -0.6762
   98RES   C25741191   4.405   3.958   3.063  0.3260 -0.2329 -0.3594
   98RES   C25841192   4.265   3.968   3.133  0.0606  0.1063  0.1165
   98RES   C25941193   4.276   3.906   3.271 -0.0423  0.7706 -0.4311
   98RES   C26041194   4.161   3.945   3.366  0.1888 -0.4519 -0.0820
   98RES   H26141195   4.521   4.194   3.014 -1.4381 -1.2268  0.5807
   98RES   H26241196   4.565   4.218   2.853  0.7504 -1.2160  0.9157
   98RES   H26341197   4.275   4.195   2.961  1.1264  1.2116  1.1808
   98RES   H26441198   4.470   3.974   2.850  0.5113 -0.1536  0.1137
   98RES   H26541199   4.302   3.942   2.879  0.3845 -1.1085  0.7228
   98RES   H26641200   4.446   3.858   3.063 -1.4152 -0.9760 -2.1444
   98RES   H26741201   4.481   4.011   3.121 -0.0408 -0.0545 -0.0377
   98RES   H26841202   4.182   3.926   3.075 -0.4975  0.8907  0.3374
   98RES   H26941203   4.248   4.075   3.143 -1.3403 -0.1008  0.1671
   98RES   H27041204   4.283   3.797   3.265  0.5869  0.7463  0.6868
   98RES   H27141205   4.368   3.934   3.323  0.1175 -0.8925  0.2123
   98RES   H27241206   4.063   3.902   3.343  0.1712 -1.9038  2.5383
   98RES   H27341207   4.187   3.915   3.467 -0.0026  1.9508  0.7258
   98RES   H27441208   4.136   4.051   3.367  0.2610 -0.4444  1.5993
   98RES   C27541209   4.306   4.199   2.748 -0.4959  0.1927 -0.5181
   98RES   C27641210   4.187   4.121   2.687  1.2993  0.2893 -0.8245
   98RES   C27741211   4.164   4.152   2.533  0.4023 -0.1324  0.1822
   98RES   C27841212   4.101   4.288   2.490  0.8089  1.1943  0.2710
   98RES   C27941213   4.067   4.296   2.338 -0.3918 -0.1084 -0.5842
   98RES   C28041214   4.185   4.330   2.244  0.1395 -0.0892 -0.8353
   98RES   C28141215   4.202   4.473   2.213  0.1558  0.7460 -0.3385
   98RES   H28241216   4.385   4.168   2.679  0.6918 -1.4187  1.5227
   98RES   H28341217   4.295   4.307   2.737 -0.1741  0.2821  0.0497
   98RES   H28441218   4.209   4.015   2.695  0.3166 -0.0090 -1.9840
   98RES   H28541219   4.254   4.130   2.476 -0.0970 -1.8161  0.0342
   98RES   H28641220   4.090   4.083   2.493  0.9598 -0.0365 -1.0309
   98RES   H28741221   4.159   4.375   2.522  0.7503  0.3094  2.9274
   98RES   H28841222   4.004   4.301   2.538 -0.0320 -2.2266 -0.3730
   98RES   H28941223   3.986   4.369   2.327  0.4501  1.1820  1.6107
   98RES   H29041224   4.016   4.207   2.300  2.2009 -2.2938  0.9496
   98RES   H29141225   4.273   4.290   2.295  0.0102 -1.5769 -1.7704
   98RES   H29241226   4.171   4.267   2.156  2.3172 -2.1667  0.2277
   98RES   H29341227   4.201   4.530   2.306 -1.7497  1.6805 -0.9027
   98RES   H29441228   4.119   4.516   2.156 -1.5668 -0.3115  1.2992
   98RES   H29541229   4.298   4.468   2.162  0.0069 -3.1234 -0.3488
   98RES   C29641230   4.061   4.157   2.767  0.2883  0.4099  0.3981
   98RES   C29741231   3.941   4.064   2.749  0.1611 -0.1746  0.3935
   98RES   C29841232   3.810   4.138   2.791 -0.3025 -0.9033  0.6170
   98RES   C29941233   3.767   4.249   2.684  1.1191 -0.2562 -0.5273
   98RES   C30041234   3.719   4.190   2.549  0.5115 -0.1626  0.2484
   98RES   C30141235   3.657   4.304   2.468 -0.5695  0.0429 -0.4815
   98RES   C30241236   3.586   4.261   2.337 -0.2367  0.3815  0.3032
   98RES   H30341237   4.085   4.160   2.873  1.5692 -1.1007  0.1645
   98RES   H30441238   4.043   4.264   2.752  1.2566  0.5670  0.3646
   98RES   H30541239   3.928   4.038   2.644 -2.1760 -0.8580  0.8267
   98RES   H30641240   3.718   4.079   2.788 -1.6343  0.9829  3.0547
   98RES   H30741241   3.828   4.181   2.889 -1.7060 -0.4757  0.6886
   98RES   H30841242   3.827   4.339   2.688 -2.6737  2.3023  2.0334
   98RES   H30941243   3.675   4.274   2.737  2.4205  0.8742  1.2375
   98RES   H31041244   3.660   4.099   2.557 -0.7618  0.3834 -2.4551
   98RES   H31141245   3.806   4.151   2.498  0.4516 -0.0997  0.0984
   98RES   H31241246   3.577   4.356   2.520 -0.9697  0.4474 -1.4899
   98RES   H31341247   3.734   4.376   2.440 -0.2529 -0.9458 -2.2007
   98RES   H31441248   3.650   4.198   2.275 -0.5694  2.3948 -2.1465
   98RES   H31541249   3.505   4.199   2.375  0.6423 -1.5258 -0.8874
   98RES   H31641250   3.542   4.341   2.277 -0.6036  1.3753  1.8559
   98RES   C31741251   3.962   3.930   2.818 -0.2575  0.7536 -0.1327
   98RES   C31841252   3.862   3.816   2.776  0.3131 -0.3980 -0.0952
   98RES   C31941253   3.907   3.744   2.640 -0.0248  0.2332  0.0303
   98RES   C32041254   4.043   3.668   2.637 -0.1040  0.3941 -0.5082
   98RES   C32141255   4.095   3.643   2.497 -0.5092  0.0767  0.3808
   98RES   C32241256   4.209   3.548   2.492 -1.0596  0.0335  0.1478
   98RES   C32341257   4.252   3.510   2.351  0.1156  0.3822 -0.1753
   98RES   H32441258   3.963   3.949   2.925  1.0208 -3.0187  0.6108
   98RES   H32541259   4.058   3.883   2.796 -0.0730  0.1237  1.9671
   98RES   H32641260   3.769   3.867   2.751  1.6436  3.1289  1.7488
   98RES   H32741261   3.924   3.817   2.561 -0.0867  1.1737  0.8828
   98RES   H32841262   3.826   3.682   2.601  0.5283 -1.1116  0.9809
   98RES   H32941263   4.017   3.580   2.696  0.8652  0.6789  0.3617
   98RES   H33041264   4.126   3.727   2.676  0.1516 -0.7869  0.7946
   98RES   H33141265   4.127   3.740   2.458 -2.1029  1.2211  1.7789
   98RES   H33241266   4.022   3.610   2.423  0.7736 -0.5503 -0.6245
   98RES   H33341267   4.164   3.455   2.527 -2.1805  0.2877 -0.5913
   98RES   H33441268   4.298   3.575   2.549 -0.7878 -0.4969 -0.0172
   98RES   H33541269   4.182   3.443   2.301 -0.0832  0.7416 -0.3798
   98RES   H33641270   4.347   3.457   2.359  0.8903  1.7633 -0.0741
   98RES   H33741271   4.272   3.596   2.287 -1.5953  0.1519 -1.0477
   98RES   C33841272   3.844   3.716   2.890  0.7150 -0.3002 -0.2816
   98RES   C33941273   3.737   3.608   2.872  0.2044  1.4619  0.1552
   98RES   C34041274   3.595   3.670   2.876  0.5496 -0.2223 -0.0324
   98RES   C34141275   3.543   3.711   3.011 -0.1324  1.0668 -0.4311
   98RES   C34241276   3.426   3.812   3.005  0.7196  0.1426  0.2744
   98RES   C34341277   3.333   3.821   3.129  0.0207 -0.4636  0.5651
   98RES   C34441278   3.216   3.929   3.111  0.8292 -0.3398 -0.0498
   98RES   H34541279   3.822   3.767   2.983 -1.9519 -2.8298  0.5478
   98RES   H34641280   3.944   3.674   2.901  0.9395  0.2875 -0.0774
   98RES   H34741281   3.766   3.579   2.772 -1.0243  1.0543 -0.0939
   98RES   H34841282   3.582   3.749   2.802  2.2836  0.6899  0.6151
   98RES   H34941283   3.532   3.588   2.839 -1.4047  0.7478  1.0491
   98RES   H35041284   3.623   3.772   3.054 -1.2496  2.4801 -0.3129
   98RES   H35141285   3.523   3.625   3.075  0.0628  2.4867  1.5957
   98RES   H35241286   3.457   3.911   2.973 -1.3268  1.2093  1.5668
   98RES   H35341287   3.362   3.773   2.926  0.1667 -1.5532  1.5362
   98RES   H35441288   3.294   3.720   3.138 -0.0349 -0.5705 -0.8877
   98RES   H35541289   3.396   3.855   3.212  1.9208  0.7677 -1.3136
   98RES   H35641290   3.148   3.930   3.196  0.5793 -2.2395 -0.1923
   98RES   H35741291   3.144   3.901   3.035  0.9119 -1.0298  0.1185
   98RES   H35841292   3.247   4.028   3.079  2.0537 -0.9133 -0.6917
   98RES   C35941293   3.753   3.489   2.971 -0.1417 -0.3044  0.2036
   98RES   C36041294   3.685   3.355   2.935  0.4233  0.7158 -0.8437
   98RES   C36141295   3.705   3.285   2.802 -0.7355 -0.2178 -0.4819
   98RES   C36241296   3.841   3.227   2.780  0.5165 -1.0616  0.2986
   98RES   C36341297   3.865   3.179   2.641  0.1607  0.4158 -0.0357
   98RES   C36441298   4.008   3.122   2.623 -0.3503  0.1207  0.4282
   98RES   C36541299   4.030   3.042   2.489 -0.5619 -0.2437 -0.4510
   98RES   H36641300   3.731   3.512   3.075  0.9782 -0.1361  0.4089
   98RES   H36741301   3.860   3.471   2.965  0.1865  1.1623  1.5535
   98RES   H36841302   3.583   3.392   2.946 -0.0908 -1.1254  0.9238
   98RES   H36941303   3.625   3.212   2.787 -0.4455 -0.4638 -0.8234
   98RES   H37041304   3.689   3.351   2.716  0.4787 -0.7803 -1.1447
   98RES   H37141305   3.916   3.304   2.800 -0.2043  0.4451 -2.5819
   98RES   H37241306   3.860   3.148   2.853  2.3091 -0.6981  0.2463
   98RES   H37341307   3.789   3.102   2.626 -0.5128  0.7642  1.5809
   98RES   H37441308   3.842   3.253   2.565  0.8279 -0.4376 -1.1002
   98RES   H37541309   4.081   3.203   2.616  0.6158 -0.8087 -0.4107
   98RES   H37641310   4.033   3.063   2.711 -0.0014  0.0759  0.3010
   98RES   H37741311   3.981   2.945   2.483 -1.4869  0.1976 -0.2682
   98RES   H37841312   3.992   3.100   2.404 -0.3682  1.0691  0.3427
   98RES   H37941313   4.137   3.026   2.483 -0.2737  1.7086 -0.9749
   98RES   C38041314   3.705   3.252   3.050 -0.8637 -0.1981 -0.3522
   98RES   C38141315   3.691   3.294   3.200 -1.0743 -0.2954 -0.1367
   98RES   C38241316   3.551   3.350   3.229 -0.6403 -0.2476 -0.0126
   98RES   C38341317   3.526   3.398   3.365 -0.3193 -0.2256 -0.2577
   98RES   C38441318   3.371   3.417   3.365  0.3957 -0.0000 -0.4603
   98RES   C38541319   3.320   3.491   3.491  0.1813  0.0119 -0.2401
   98RES   C38641320   3.172   3.524   3.478  0.2526  0.0812 -0.2421
   98RES   H38741321   3.652   3.160   3.026 -0.3020 -0.6503  0.1254
   98RES   H38841322   3.810   3.224   3.048 -0.1156  2.5513 -2.3085
   98RES   H38941323   3.771   3.365   3.222 -0.6053 -1.3302  1.6602
   98RES   H39041324   3.483   3.270   3.200  1.5839 -3.4374  2.9906
   98RES   H39141325   3.535   3.429   3.156  0.6232 -0.5981 -0.6803
   98RES   H39241326   3.557   3.329   3.443 -1.4021 -0.4963 -0.0586
   98RES   H39341327   3.577   3.493   3.375  0.1355 -0.4636 -0.3279
   98RES   H39441328   3.354   3.487   3.283 -0.3277 -0.5136 -0.7619
   98RES   H39541329   3.301   3.337   3.340  2.6383 -1.4288 -2.4197
   98RES   H39641330   3.377   3.582   3.509  0.1353 -0.1583  0.8427
   98RES   H39741331   3.334   3.425   3.577  0.1639  1.7230  1.0895
   98RES   H39841332   3.126   3.573   3.563 -1.7021 -0.5517 -0.9107
   98RES   H39941333   3.117   3.430   3.481 -0.0927  0.3170  1.4054
   98RES   H40041334   3.138   3.588   3.397  0.1828  0.2700 -0.0632
   98RES   C40141335   3.724   3.178   3.303 -0.3402  0.2338 -0.4077
   98RES   C40241336   3.868   3.124   3.282 -0.2956 -0.0263  0.0133
   98RES   C40341337   3.916   3.028   3.399  0.4595 -0.1396  0.0518
   98RES   C40441338   4.057   2.971   3.379 -0.8758  0.2673  0.1062
   98RES   C40541339   4.170   3.070   3.412 -0.0969 -0.6575  0.4645
   98RES   C40641340   4.310   3.002   3.436 -0.2579 -0.5794  0.0889
   98RES   C40741341   4.414   3.107   3.480 -0.6997 -0.5885  0.2566
   98RES   H40841342   3.656   3.094   3.288 -0.3722  0.6043 -2.4737
   98RES   H40941343   3.725   3.212   3.407 -1.9279  0.2788 -0.4000
   98RES   H41041344   3.936   3.209   3.279 -1.1999  0.7495  0.9612
   98RES   H41141345   3.852   2.943   3.423  0.0362 -0.0682 -0.8218
   98RES   H41241346   3.916   3.086   3.492  1.6524 -2.2271  1.3926
   98RES   H41341347   4.068   2.927   3.280  0.1580 -0.1216  0.3954
   98RES   H41441348   4.071   2.877   3.432  0.1594  0.0448 -0.5488
   98RES   H41541349   4.158   3.148   3.336  0.4321  0.0096  1.0584
   98RES   H41641350   4.138   3.120   3.503  0.3208  1.7630 -0.6612
   98RES   H41741351   4.299   2.939   3.524  1.7667 -0.4488  0.4428
   98RES   H41841352   4.336   2.945   3.347 -0.9110 -1.2547  0.3283
   98RES   H41941353   4.503   3.048   3.503 -0.8277 -1.6233 -1.7970
   98RES   H42041354   4.385   3.164   3.568 -1.4171 -1.1746  0.4027
   98RES   H42141355   4.413   3.173   3.393  0.4069 -0.2767  0.4775
   98RES   H42241356   3.870   3.056   3.197  0.1647  1.0846 -0.8795
   99RES     C141357   3.913   1.164   6.445  0.0849 -1.0788  0.1762
   99RES     C241358   4.033   1.167   6.348 -0.3365 -0.4831  0.2193
   99RES     C341359   4.076   1.315   6.320  0.2921  0.4377 -0.2977
   99RES     C441360   4.084   1.411   6.439 -1.2745 -0.5415  0.3270
   99RES     C541361   4.140   1.552   6.387 -1.0232  0.0801 -0.2605
   99RES     C641362   4.118   1.673   6.485  0.2367 -0.1749  0.3551
   99RES     C741363   4.190   1.799   6.444 -0.7165 -0.0441 -0.9147
   99RES     H841364   3.924   1.216   6.540 -1.4395  1.3886 -0.9384
   99RES     H941365   3.905   1.059   6.471  0.5142 -1.0931  0.2500
   99RES    H1041366   4.115   1.133   6.411 -0.1394 -0.2389  0.0922
   99RES    H1141367   4.157   1.319   6.248  0.9718  0.6775  0.4760
   99RES    H1241368   3.989   1.350   6.265 -0.3881 -0.1992  0.3483
   99RES    H1341369   3.985   1.421   6.485  0.4181  0.1365  4.0150
   99RES    H1441370   4.140   1.373   6.525  0.4310  0.1960 -0.4316
   99RES    H1541371   4.095   1.573   6.289 -0.2766  1.9850 -0.2208
   99RES    H1641372   4.245   1.543   6.359 -1.0205 -0.0458 -0.2068
   99RES    H1741373   4.143   1.658   6.590  0.3849  1.4091  0.5568
   99RES    H1841374   4.011   1.694   6.479  0.6562  1.6539 -1.8459
   99RES    H1941375   4.292   1.789   6.482 -0.8827  2.8267  0.4428
   99RES    H2041376   4.143   1.888   6.485  0.8919  0.5450 -0.2957
   99RES    H2141377   4.200   1.825   6.338  0.6806  1.2539 -0.4913
   99RES    H2241378   3.821   1.202   6.400 -0.0521  0.2684  1.5489
   99RES    C2341379   4.023   1.076   6.217 -0.8701 -0.0430  0.1766
   99RES    C2441380   4.036   0.917   6.254 -0.0268  0.2366 -0.5441
   99RES    C2541381   4.173   0.875   6.304  0.3217 -0.3177  0.4109
   99RES    C2641382   4.158   0.754   6.394 -0.0814  0.7408  0.0462
   99RES    C2741383   4.291   0.683   6.422  0.8146  0.8556  0.5729
   99RES    C2841384   4.271   0.542   6.476  0.8006  0.0306  0.5408
   99RES    C2941385   4.405   0.461   6.477  0.4511 -0.4178  0.0497
   99RES    H3041386   3.936   1.111   6.162  0.2284  0.8315 -1.0448
   99RES    H3141387   4.113   1.095   6.159 -1.2884 -0.0107 -0.4573
   99RES    H3241388   3.971   0.898   6.339 -0.2044  1.5320 -0.3795
   99RES    H3341389   4.219   0.950   6.368 -1.9434  1.3549  0.1508
   99RES    H3441390   4.232   0.857   6.214  1.4983  2.1169  0.6606
   99RES    H3541391   4.111   0.678   6.331  1.1171  1.2138 -1.4577
   99RES    H3641392   4.107   0.780   6.487 -1.3902 -1.7595  0.0542
   99RES    H3741393   4.351   0.748   6.486  2.3276  0.6718 -0.6160
   99RES    H3841394   4.347   0.672   6.329 -0.6975 -0.2678 -0.2129
   99RES    H3941395   4.194   0.487   6.423  0.3339  1.5004 -0.3347
   99RES    H4041396   4.227   0.546   6.576  0.0106 -2.8315  0.3538
   99RES    H4141397   4.442   0.443   6.377  0.0242  1.8822 -0.5675
   99RES    H4241398   4.481   0.528   6.517  0.2135 -0.5933  0.8061
   99RES    H4341399   4.398   0.366   6.529 -0.8831 -0.2468  0.1968
   99RES    C4441400   4.000   0.832   6.128 -0.5927 -0.2832  0.1775
   99RES    C4541401   3.870   0.753   6.143 -0.4254  0.1176  0.1229
   99RES    C4641402   3.746   0.844   6.174  0.1512 -0.3358 -0.0455
   99RES    C4741403   3.616   0.775   6.229 -0.9825 -0.0446  0.3228
   99RES    C4841404   3.511   0.863   6.285 -0.8601  0.6016 -0.4694
   99RES    C4941405   3.557   0.963   6.396 -0.1733 -0.4367 -0.3837
   99RES    C5041406   3.590   0.880   6.518 -0.0795  0.0312  0.6286
   99RES    H5141407   4.083   0.773   6.088  0.9117  1.5451  0.5029
   99RES    H5241408   3.997   0.905   6.046  2.6560 -0.6707 -0.3562
   99RES    H5341409   3.866   0.693   6.233 -1.9941 -0.3458 -0.2352
   99RES    H5441410   3.708   0.895   6.086 -2.0159 -0.4342  0.8210
   99RES    H5541411   3.771   0.918   6.251  0.0830 -0.6357  0.2666
   99RES    H5641412   3.575   0.723   6.142  0.1105 -0.0445 -0.2038
   99RES    H5741413   3.639   0.697   6.302  0.6446 -1.1721 -1.3297
   99RES    H5841414   3.420   0.805   6.299  1.0663 -2.5809 -0.7023
   99RES    H5941415   3.483   0.936   6.209 -0.2705  3.1444  1.6585
   99RES    H6041416   3.482   1.033   6.432  0.4332  0.5762 -1.0625
   99RES    H6141417   3.638   1.033   6.375 -0.3774 -1.0438 -3.3730
   99RES    H6241418   3.573   0.928   6.615  2.1996  1.5682  0.3118
   99RES    H6341419   3.697   0.862   6.522 -0.5099 -2.4988  1.4071
   99RES    H6441420   3.540   0.784   6.522 -1.8754  0.8981 -0.2845
   99RES    C6541421   3.833   0.658   6.025 -0.3247 -0.1672 -0.0903
   99RES    C6641422   3.944   0.547   5.984 -0.5656  0.3050 -0.3646
   99RES    C6741423   3.896   0.487   5.857 -0.0060 -0.3429  1.2511
   99RES    C6841424   3.910   0.576   5.730  0.0093  0.2465 -0.1399
   99RES    C6941425   4.055   0.616   5.693  0.0089  0.0054  0.5368
   99RES    C7041426   4.059   0.680   5.558  0.8561 -0.2551 -0.0985
   99RES    C7141427   4.206   0.684   5.501  0.1465 -0.4503 -0.4537
   99RES    H7241428   3.744   0.600   6.051 -0.6236 -0.6787 -2.1018
   99RES    H7341429   3.796   0.710   5.936 -0.0031 -0.6372 -0.5078
   99RES    H7441430   4.040   0.596   5.969 -0.1578  0.5984  2.7612
   99RES    H7541431   3.935   0.387   5.835 -0.9937 -0.5382  0.3549
   99RES    H7641432   3.788   0.475   5.859 -0.2848  1.9674  1.0407
   99RES    H7741433   3.868   0.519   5.648 -0.8135  1.0410 -0.2795
   99RES    H7841434   3.847   0.665   5.721 -0.5363  0.0061  1.2289
   99RES    H7941435   4.102   0.678   5.769  0.3991 -0.8547  1.0061
   99RES    H8041436   4.116   0.526   5.688 -1.4509 -1.1529  2.9914
   99RES    H8141437   4.013   0.778   5.573 -0.5731 -0.6706 -1.4664
   99RES    H8241438   3.998   0.632   5.480  0.7398  1.6662 -1.2098
   99RES    H8341439   4.251   0.587   5.483  0.7856 -0.5548  1.5815
   99RES    H8441440   4.208   0.739   5.407 -0.0728  0.6385  0.1705
   99RES    H8541441   4.280   0.734   5.565 -0.0844 -1.8207  0.9336
   99RES    C8641442   3.963   0.447   6.103 -0.8346 -0.3876 -0.2988
   99RES    C8741443   4.083   0.347   6.087 -1.0134 -0.1177 -0.4869
   99RES    C8841444   4.222   0.420   6.100 -0.7624 -0.7763 -0.3960
   99RES    C8941445   4.322   0.376   5.987 -0.0939  0.0523  0.6095
   99RES    C9041446   4.439   0.481   5.958 -0.2855  0.5118 -0.5985
   99RES    C9141447   4.415   0.616   5.890 -0.1251  0.9688 -0.0749
   99RES    C9241448   4.452   0.735   5.988 -0.3788 -0.3608 -0.1419
   99RES    H9341449   3.989   0.497   6.196  0.0468 -1.9403  0.3143
   99RES    H9441450   3.867   0.399   6.118 -0.8234 -0.2428  0.2537
   99RES    H9541451   4.078   0.317   5.982  3.1636  1.0092 -1.1140
   99RES    H9641452   4.203   0.526   6.114 -0.5758 -0.4700 -2.3619
   99RES    H9741453   4.262   0.392   6.197  3.0837  1.1955 -1.3284
   99RES    H9841454   4.368   0.281   6.014  1.0498 -0.1196 -1.7724
   99RES    H9941455   4.266   0.359   5.894 -0.6545 -0.2063  0.9909
   99RES   H10041456   4.500   0.419   5.890 -2.5303 -1.6278 -0.7389
   99RES   H10141457   4.495   0.481   6.051 -0.1092 -1.4909 -0.6656
   99RES   H10241458   4.458   0.628   5.790  1.1375 -0.1128  0.3294
   99RES   H10341459   4.307   0.611   5.881 -0.0348 -1.0559 -0.1383
   99RES   H10441460   4.380   0.732   6.070 -1.4288  0.2453 -1.0248
   99RES   H10541461   4.457   0.829   5.934  0.8021 -0.1110  0.3832
   99RES   H10641462   4.544   0.729   6.046 -0.2040 -1.1948 -0.4916
   99RES   C10741463   4.065   0.227   6.182  0.2557  0.2190 -0.2557
   99RES   C10841464   3.948   0.132   6.149 -0.2058  0.2056  0.0343
   99RES   C10941465   4.003   0.043   6.028 -0.9213  0.4936 -0.2082
   99RES   C11041466   4.141   7.691   6.044 -0.0139 -0.4363  0.2982
   99RES   C11141467   4.164   7.578   5.941  0.3432 -0.1926 -0.1292
   99RES   C11241468   4.064   7.460   5.959  0.2997 -0.1124  0.9323
   99RES   C11341469   4.098   7.344   5.858 -0.0278  0.2692 -0.8430
   99RES   H11441470   4.039   0.262   6.283  0.6023  1.9964 -0.7694
   99RES   H11541471   4.152   0.167   6.208  1.4914  0.9291 -2.6622
   99RES   H11641472   3.856   0.179   6.114 -0.0480  0.5837  0.1322
   99RES   H11741473   4.005   0.105   5.938  1.5377  1.0190  0.1647
   99RES   H11841474   3.927   7.693   6.016 -0.8082  0.3106  0.2421
   99RES   H11941475   4.228   0.030   6.036 -0.7166  0.4510  0.0000
   99RES   H12041476   4.149   7.658   6.148  0.9303 -0.0515  0.3490
   99RES   H12141477   4.263   7.536   5.954  0.3805  0.6063  2.4044
   99RES   H12241478   4.165   7.613   5.837  1.7316 -0.5375 -0.2460
   99RES   H12341479   4.069   7.419   6.060  1.5572 -1.0763  0.5075
   99RES   H12441480   3.960   7.487   5.947  0.0696 -1.0318  0.8168
   99RES   H12541481   4.204   7.324   5.846  0.4347  2.3254 -0.4997
   99RES   H12641482   4.065   7.247   5.895  1.4272 -0.9834 -2.7606
   99RES   H12741483   4.051   7.362   5.761  1.3282  0.8006 -1.4137
   99RES   C12841484   3.914   0.040   6.273  0.9724 -0.3868 -0.0838
   99RES   C12941485   3.793   7.682   6.272  0.4909 -0.0526  0.0133
   99RES   C13041486   3.674   0.021   6.345  0.2205 -0.4930  1.1479
   99RES   C13141487   3.679   0.025   6.503  0.4456  0.2818  0.6051
   99RES   C13241488   3.558   0.100   6.558  0.2155 -0.1591  0.4595
   99RES   C13341489   3.559   0.100   6.713 -0.4976 -0.3104  0.0161
   99RES   C13441490   3.446   0.186   6.769 -0.2679  0.1976  0.1378
   99RES   H13541491   4.000   7.704   6.296  0.3542 -1.1390  0.1765
   99RES   H13641492   3.907   0.101   6.362  0.6063 -0.1569 -0.2662
   99RES   H13741493   3.766   7.671   6.167  0.9529 -0.3355 -0.0771
   99RES   H13841494   3.583   7.693   6.317  0.2280  0.5142 -0.9098
   99RES   H13941495   3.669   0.123   6.308 -0.5564 -0.7196  0.6020
   99RES   H14041496   3.767   0.076   6.541 -0.3047  0.2913  2.3582
   99RES   H14141497   3.686   7.653   6.549  1.3014  1.1712  2.4026
   99RES   H14241498   3.473   0.044   6.518  0.3834 -0.3477  0.3604
   99RES   H14341499   3.567   0.203   6.523  0.0747 -0.2037  0.2875
   99RES   H14441500   3.658   0.125   6.751  0.0771  1.9686 -2.7553
   99RES   H14541501   3.551   7.724   6.749 -1.3658 -0.6380 -1.0889
   99RES   H14641502   3.356   0.156   6.715  2.2116 -0.9708 -3.5490
   99RES   H14741503   3.458   0.293   6.755  1.9941  0.2827  2.4625
   99RES   H14841504   3.423   0.162   6.872  1.1302 -0.3909  0.3238
   99RES   C14941505   3.820   7.535   6.304  0.3359  0.3102 -0.2160
   99RES   C15041506   3.697   7.440   6.321  0.0353 -0.0843 -0.5017
   99RES   C15141507   3.729   7.301   6.373  0.3173  0.4145  0.7949
   99RES   C15241508   3.789   7.201   6.277  0.7467  0.1291 -0.2077
   99RES   C15341509   3.811   7.073   6.360 -0.8181  0.7565  0.1507
   99RES   C15441510   3.836   6.953   6.268 -0.0599 -0.6541 -0.1230
   99RES   C15541511   3.975   6.970   6.204  0.5025 -0.0901  0.1970
   99RES   H15641512   3.876   7.484   6.225  0.9810  1.0191 -0.2231
   99RES   H15741513   3.888   7.528   6.388 -0.2890  0.8872  0.3401
   99RES   H15841514   3.629   7.486   6.392  1.7307  0.5738  0.7400
   99RES   H15941515   3.794   7.300   6.461 -0.0223 -1.6907  1.0709
   99RES   H16041516   3.639   7.255   6.412  1.2916  0.3902  3.0800
   99RES   H16141517   3.886   7.226   6.235  0.5052 -0.7065 -1.2933
   99RES   H16241518   3.724   7.171   6.194  1.6147 -2.1828 -0.0624
   99RES   H16341519   3.732   7.061   6.435  0.6669  0.1811  1.6459
   99RES   H16441520   3.895   7.087   6.428  0.5670 -2.1936 -0.8849
   99RES   H16541521   3.752   6.951   6.198  0.1225 -1.4536 -0.3270
   99RES   H16641522   3.823   6.852   6.308  0.4101  0.2671  2.4179
   99RES   H16741523   3.996   7.058   6.143 -1.8927  0.8114  0.6439
   99RES   H16841524   4.005   6.882   6.147 -0.3037  0.1051 -0.5298
   99RES   H16941525   4.047   6.976   6.285 -0.6328  3.4940  1.0150
   99RES   C17041526   3.614   7.435   6.186 -0.0943  0.4582 -0.9264
   99RES   C17141527   3.481   7.356   6.187 -0.2105  0.2513 -0.5429
   99RES   C17241528   3.379   7.439   6.271 -0.1917 -0.4201  0.0905
   99RES   C17341529   3.240   7.364   6.291  0.1842 -0.2063  0.2641
   99RES   C17441530   3.143   7.416   6.405 -0.1434 -0.7329 -1.2261
   99RES   C17541531   3.072   7.554   6.386 -0.2574  0.1774  0.2886
   99RES   C17641532   2.957   7.579   6.485 -0.4477 -0.7348  0.5207
   99RES   H17741533   3.682   7.385   6.117  0.3972  0.5163 -0.4852
   99RES   H17841534   3.600   7.533   6.141  2.7468  1.0895 -0.5108
   99RES   H17941535   3.506   7.266   6.242  1.4466  1.0541  0.0394
   99RES   H18041536   3.371   7.540   6.229  0.3778 -0.1700  0.5751
   99RES   H18141537   3.411   7.446   6.375 -0.6340 -2.6576  0.3939
   99RES   H18241538   3.263   7.258   6.306 -1.6475 -0.7582 -0.6212
   99RES   H18341539   3.184   7.369   6.197  0.1829 -2.9342  0.0810
   99RES   H18441540   3.205   7.416   6.495 -1.8550  0.3671 -0.0061
   99RES   H18541541   3.061   7.345   6.414 -0.4295 -0.2797 -0.1488
   99RES   H18641542   3.031   7.553   6.285  2.9366  2.4206 -1.1183
   99RES   H18741543   3.152   7.629   6.386  0.8674 -1.0112  0.2625
   99RES   H18841544   2.877   7.508   6.464 -1.2563  0.0293  0.9766
   99RES   H18941545   2.907   7.673   6.459 -2.4661 -1.6084  1.1590
   99RES   H19041546   2.972   7.597   6.592 -2.1824  2.2282  0.3313
   99RES   C19141547   3.433   7.335   6.044  0.0810 -0.0668 -0.4970
   99RES   C19241548   3.485   7.208   5.974 -0.3257 -0.5548 -0.0679
   99RES   C19341549   3.440   7.074   6.037  0.0567 -0.5247  0.2809
   99RES   C19441550   3.288   7.059   6.040  0.0040 -0.2523  0.0275
   99RES   C19541551   3.246   6.908   6.034 -0.3258  0.2282 -0.5708
   99RES   C19641552   3.093   6.899   6.017 -0.4601  0.4038  0.9138
   99RES   C19741553   3.030   6.763   6.019  0.2710  0.1281  0.5979
   99RES   H19841554   3.456   7.426   5.988  1.8430  0.1435  0.5658
   99RES   H19941555   3.324   7.336   6.044  0.0639  1.7043  2.1945
   99RES   H20041556   3.593   7.215   5.991 -0.2490 -0.8927 -0.4142
   99RES   H20141557   3.481   7.085   6.137 -1.4235  1.7736  0.6840
   99RES   H20241558   3.501   6.999   5.988  1.3324 -0.0890  1.1771
   99RES   H20341559   3.252   7.117   5.955  0.8860  0.0740 -0.1190
   99RES   H20441560   3.258   7.097   6.138 -0.2079 -1.9031  0.6248
   99RES   H20541561   3.298   6.856   5.953  0.4949 -0.1717  0.1969
   99RES   H20641562   3.265   6.846   6.122 -3.3666 -0.6992 -0.5024
   99RES   H20741563   3.071   6.953   5.925 -0.7990 -0.3134  0.5713
   99RES   H20841564   3.047   6.956   6.098 -0.0838  0.1257  1.3295
   99RES   H20941565   3.011   6.721   6.118  1.4459  1.5423  1.4299
   99RES   H21041566   3.082   6.678   5.975 -2.7428 -2.0780  1.1544
   99RES   H21141567   2.930   6.771   5.974 -0.0891 -3.1904  0.6801
   99RES   C21241568   3.465   7.221   5.824 -0.5356 -0.5710  0.8833
   99RES   C21341569   3.565   7.307   5.735  0.0430 -0.0194  0.0661
   99RES   C21441570   3.673   7.217   5.669  0.1687  0.4856  0.0936
   99RES   C21541571   3.763   7.138   5.774 -0.1473 -0.3739  0.6891
   99RES   C21641572   3.877   7.053   5.697  0.2087  0.0890 -0.3514
   99RES   C21741573   3.964   6.980   5.797  0.3816 -0.8899  0.7444
   99RES   C21841574   3.893   6.855   5.844 -0.0893 -0.6939 -0.2330
   99RES   H21941575   3.370   7.274   5.817 -0.5319 -0.8745 -2.2053
   99RES   H22041576   3.444   7.126   5.775 -3.2905  0.2666  0.3633
   99RES   H22141577   3.616   7.374   5.805 -1.0291 -0.5764  1.4003
   99RES   H22241578   3.617   7.144   5.611  1.4343 -1.0625  0.7646
   99RES   H22341579   3.732   7.286   5.609 -1.0699  1.3377 -0.1486
   99RES   H22441580   3.697   7.078   5.836  1.2173  0.3306  2.8885
   99RES   H22541581   3.811   7.211   5.839 -0.0379 -0.8398  1.1342
   99RES   H22641582   3.823   6.996   5.621  1.7678  1.7763 -2.8381
   99RES   H22741583   3.939   7.121   5.637  2.0685 -0.2405  1.1472
   99RES   H22841584   4.061   6.960   5.751  0.4537  0.9680  0.0365
   99RES   H22941585   3.990   7.043   5.882  3.7465 -2.3157  0.8814
   99RES   H23041586   3.959   6.804   5.914  1.7939  1.8411 -0.0594
   99RES   H23141587   3.860   6.808   5.752 -1.0722  1.7188 -1.1533
   99RES   H23241588   3.805   6.883   5.902 -0.4266  2.1960 -2.0116
   99RES   C23341589   3.498   7.409   5.640 -0.3745 -0.4391  0.3475
   99RES   C23441590   3.586   7.532   5.599  0.5509 -0.1743 -0.4204
   99RES   C23541591   3.522   7.599   5.483  0.0938  0.3017  0.3546
   99RES   C23641592   3.376   7.661   5.512 -0.4263  0.2131  0.3346
   99RES   C23741593   3.339   0.030   5.406  0.0428 -0.4071  0.4676
   99RES   C23841594   3.213   0.105   5.417  0.3788 -0.2868  0.8675
   99RES   C23941595   3.201   0.215   5.301 -0.1452 -0.0534 -0.1917
   99RES   H24041596   3.403   7.433   5.688  0.9137 -0.1100  2.8015
   99RES   H24141597   3.475   7.356   5.548 -1.0186 -0.4477  0.5138
   99RES   H24241598   3.682   7.487   5.571  0.5179 -1.3028  1.2164
   99RES   H24341599   3.516   7.521   5.407  0.2133 -0.6029  1.2534
   99RES   H24441600   3.586   7.672   5.434 -2.0308  0.4714 -2.3159
   99RES   H24541601   3.376   7.718   5.605 -0.6640  1.9110 -0.6824
   99RES   H24641602   3.300   7.584   5.526  0.1089 -0.7300 -1.7013
   99RES   H24741603   3.332   7.705   5.310 -0.7318 -0.2932  0.4554
   99RES   H24841604   3.422   0.100   5.402 -1.8674  1.8931 -0.5217
   99RES   H24941605   3.129   0.037   5.402 -0.3613  1.0282 -1.1985
   99RES   H25041606   3.214   0.159   5.511  1.3089  0.0561  0.6607
   99RES   H25141607   3.266   0.295   5.336  2.0968 -1.9279  0.0952
   99RES   H25241608   3.236   0.190   5.201 -0.6823 -0.3034 -0.3192
   99RES   H25341609   3.097   0.247   5.291 -0.2586 -0.4868 -0.4311
   99RES   C25441610   3.606   7.630   5.719  1.0073 -0.3112 -0.8270
   99RES   C25541611   3.669   0.039   5.686  0.7052 -0.0859  0.2036
   99RES   C25641612   3.810   0.027   5.619  0.6301  0.1077  0.4029
   99RES   C25741613   3.854   0.169   5.556 -0.0960  0.0781  1.0487
   99RES   C25841614   3.997   0.159   5.502  0.1230 -0.4492 -0.0909
   99RES   C25941615   4.038   0.273   5.406 -0.4142 -0.2902  0.1097
   99RES   C26041616   4.161   0.230   5.326  0.1028  0.1620 -0.0109
   99RES   H26141617   3.665   7.592   5.802  0.7080 -1.0040 -0.9314
   99RES   H26241618   3.510   7.647   5.768  1.2618 -0.6490 -0.2068
   99RES   H26341619   3.604   0.080   5.608 -1.9369  0.1183  2.4357
   99RES   H26441620   3.819   7.672   5.547  2.5128  1.5095 -0.9826
   99RES   H26541621   3.891   0.001   5.686  0.2356  0.4363  1.0063
   99RES   H26641622   3.793   0.198   5.470  0.0776 -2.2404  0.0986
   99RES   H26741623   3.869   0.251   5.626 -2.5097  1.0046  0.5346
   99RES   H26841624   4.007   0.068   5.443 -1.9214 -1.1348  0.5980
   99RES   H26941625   4.070   0.151   5.583 -2.6834 -1.2205  2.4631
   99RES   H27041626   3.955   0.300   5.341  0.0968 -0.5226 -0.6377
   99RES   H27141627   4.059   0.364   5.463  0.3743  0.0049 -0.6445
   99RES   H27241628   4.248   0.241   5.390 -0.2416  0.5355  0.4015
   99RES   H27341629   4.158   0.126   5.292  1.5310  0.9320 -2.6061
   99RES   H27441630   4.182   0.304   5.249  2.7294  0.2878  0.7776
   99RES   C27541631   3.670   0.131   5.807  0.1966  0.0273 -0.2124
   99RES   C27641632   3.537   0.185   5.861 -0.1058 -0.0657  0.1248
   99RES   C27741633   3.470   0.291   5.762 -0.3242  0.7488 -0.2410
   99RES   C27841634   3.564   0.406   5.735  0.1949  0.3217 -0.2597
   99RES   C27941635   3.513   0.506   5.629  0.5592  0.4208  0.8211
   99RES   C28041636   3.508   0.457   5.485 -0.1189  0.1424  0.2984
   99RES   C28141637   3.517   0.557   5.374  0.5025 -0.5892 -0.3540
   99RES   H28241638   3.748   0.206   5.800  0.2429  0.1033  0.9533
   99RES   H28341639   3.716   0.074   5.888  1.4093 -1.3332 -1.8263
   99RES   H28441640   3.469   0.101   5.873 -0.3515  0.0582 -0.4188
   99RES   H28541641   3.454   0.248   5.663  0.4312  0.7728 -0.3818
   99RES   H28641642   3.372   0.322   5.797 -0.3745  0.0645  0.2387
   99RES   H28741643   3.662   0.367   5.707  0.6790  0.1949  1.5173
   99RES   H28841644   3.577   0.466   5.826  4.4345 -0.6861 -0.0715
   99RES   H28941645   3.587   0.585   5.636  0.7073  0.2875  0.7609
   99RES   H29041646   3.417   0.542   5.668  0.5484 -1.5734  2.7251
   99RES   H29141647   3.589   0.388   5.464  0.8001  1.1422  0.5438
   99RES   H29241648   3.417   0.398   5.471 -0.4771  0.9572 -0.8596
   99RES   H29341649   3.593   0.632   5.393 -2.2856  2.4754 -0.7502
   99RES   H29441650   3.423   0.610   5.361  1.7060  1.6544 -0.0628
   99RES   H29541651   3.542   0.510   5.279  2.9820 -1.1553  0.5554
   99RES   C29641652   3.548   0.240   6.011  0.1938  0.1095 -0.2287
   99RES   C29741653   3.413   0.276   6.094  0.9453  0.5468  0.2897
   99RES   C29841654   3.444   0.340   6.235  0.6576  0.6266  0.5698
   99RES   C29941655   3.337   0.426   6.292 -0.0666 -0.0304 -0.6629
   99RES   C30041656   3.368   0.470   6.436  0.1619  0.3428 -0.1905
   99RES   C30141657   3.243   0.554   6.476 -0.4308  0.6072  0.2870
   99RES   C30241658   3.233   0.576   6.626 -0.1761 -0.4599  0.1227
   99RES   H30341659   3.603   0.173   6.077  0.7666  1.3155  0.5515
   99RES   H30441660   3.617   0.325   6.007 -2.3042  2.1899 -0.6178
   99RES   H30541661   3.356   0.348   6.036 -0.1440 -2.2596 -2.2627
   99RES   H30641662   3.462   0.269   6.315  1.8490  0.6542  0.3362
   99RES   H30741663   3.531   0.405   6.222  3.8010 -2.6832  3.9571
   99RES   H30841664   3.244   0.370   6.296 -0.3352  0.4140 -0.6537
   99RES   H30941665   3.313   0.510   6.226  1.1857  2.1978  1.6057
   99RES   H31041666   3.468   0.513   6.451  0.4026 -0.4191  0.4053
   99RES   H31141667   3.373   0.380   6.497  1.9432  0.4936 -0.0762
   99RES   H31241668   3.245   0.649   6.424 -1.0816 -0.7516 -2.3381
   99RES   H31341669   3.151   0.509   6.439 -0.3249 -0.1105  0.8858
   99RES   H31441670   3.221   0.485   6.686 -3.7581  0.2376  0.5441
   99RES   H31541671   3.321   0.627   6.667  0.3951 -0.9501 -0.4829
   99RES   H31641672   3.149   0.641   6.650  0.4102  0.9716 -1.6920
   99RES   C31741673   3.333   0.148   6.123  0.2172 -0.3356  0.8077
   99RES   C31841674   3.202   0.127   6.039  0.9920  0.5667 -0.4536
   99RES   C31941675   3.163   7.704   6.025  0.1962 -0.9898 -0.2834
   99RES   C32041676   3.139   7.661   5.875 -0.0931  0.4571  0.2371
   99RES   C32141677   3.105   7.513   5.862 -0.1020 -0.5893 -0.2020
   99RES   C32241678   3.103   7.452   5.720  0.2057 -0.1084 -0.6124
   99RES   C32341679   3.068   7.306   5.733  0.5620  0.2129  0.5864
   99RES   H32441680   3.305   0.136   6.228  0.2500 -1.1755  0.7205
   99RES   H32541681   3.400   0.063   6.115  0.7487 -0.0397  1.9388
   99RES   H32641682   3.218   0.160   5.936 -1.9613 -0.3649 -1.2652
   99RES   H32741683   3.079   7.672   6.086 -1.2712 -0.6825 -2.0965
   99RES   H32841684   3.245   7.638   6.055  0.2222 -0.6092  0.4876
   99RES   H32941685   3.218   7.688   5.805 -0.7373 -0.9915 -1.0723
   99RES   H33041686   3.049   7.719   5.854 -0.9469 -1.7039 -2.3331
   99RES   H33141687   3.011   7.494   5.913  0.2495 -1.0869  0.2637
   99RES   H33241688   3.172   7.462   5.931 -0.6540  0.9220  1.4898
   99RES   H33341689   3.203   7.474   5.683 -0.2030 -1.4768 -2.6511
   99RES   H33441690   3.041   7.504   5.647 -0.7764  0.5060  0.6378
   99RES   H33541691   3.089   7.257   5.828  1.0448 -1.1780 -0.2254
   99RES   H33641692   3.131   7.252   5.662  1.5892 -0.2012  1.8011
   99RES   H33741693   2.962   7.290   5.711  0.4092 -0.5260  1.8414
   99RES   C33841694   3.085   0.210   6.104  0.4826  0.7281 -0.4455
   99RES   C33941695   2.961   0.234   6.022 -0.0881  0.0292 -0.5146
   99RES   C34041696   2.990   0.331   5.908  0.7499 -0.0314 -0.3345
   99RES   C34141697   2.930   0.301   5.770 -0.4621  0.1327  0.5156
   99RES   C34241698   2.992   0.382   5.660 -0.1001  0.7827  0.3809
   99RES   C34341699   2.968   0.532   5.654  0.1858 -0.3791  0.4663
   99RES   C34441700   2.819   0.571   5.646 -0.5569  0.7486 -0.1175
   99RES   H34541701   3.121   0.307   6.137  1.9266 -0.3053  1.1475
   99RES   H34641702   3.056   0.159   6.196 -0.9094  3.2537  0.5550
   99RES   H34741703   2.939   0.140   5.970  1.4121 -1.3134  1.1977
   99RES   H34841704   2.948   0.427   5.939 -0.1188 -0.4476 -0.2093
   99RES   H34941705   3.094   0.361   5.901  0.7157  0.3071  0.5960
   99RES   H35041706   2.824   0.318   5.755 -0.3935  0.0103 -0.1265
   99RES   H35141707   2.953   0.195   5.756  0.1221  0.3873 -0.4936
   99RES   H35241708   3.098   0.354   5.657 -0.9860 -2.7519 -0.5151
   99RES   H35341709   2.951   0.342   5.568  1.1322 -0.2597  0.2626
   99RES   H35441710   3.008   0.571   5.748  1.4672 -1.6671  0.4684
   99RES   H35541711   3.026   0.583   5.577 -1.7546  0.7666 -0.2642
   99RES   H35641712   2.762   0.515   5.572  0.8694  2.5037 -2.6408
   99RES   H35741713   2.813   0.677   5.623  1.3819  0.5783 -1.5344
   99RES   H35841714   2.770   0.556   5.742  1.7067  2.0754  1.3049
   99RES   C35941715   2.835   0.277   6.111  0.2643  0.0630 -0.5346
   99RES   C36041716   2.694   0.281   6.044 -0.1540 -0.4518  0.0647
   99RES   C36141717   2.651   0.132   6.010  0.3237 -0.2117 -0.3830
   99RES   C36241718   2.507   0.117   5.959  0.5370 -0.5837  0.3945
   99RES   C36341719   2.455   7.699   5.934  0.1692  0.5923  0.1907
   99RES   C36441720   2.509   7.624   5.812  0.1548  0.3023 -0.5717
   99RES   C36541721   2.640   7.547   5.825  0.1512  0.2351 -0.8834
   99RES   H36641722   2.856   0.373   6.157 -0.4758  0.2435 -0.5668
   99RES   H36741723   2.834   0.209   6.197  0.3447  0.7079 -0.0161
   99RES   H36841724   2.706   0.323   5.944 -1.0492 -1.9133 -0.6765
   99RES   H36941725   2.717   0.095   5.931  0.4758  3.0533 -1.8664
   99RES   H37041726   2.648   0.076   6.104 -0.8327  2.0778  0.9833
   99RES   H37141727   2.443   0.172   6.027  1.8876  1.6035 -0.0549
   99RES   H37241728   2.514   0.171   5.865  2.5357  0.2290  0.9745
   99RES   H37341729   2.477   7.652   6.030 -0.3496  1.5083  0.7802
   99RES   H37441730   2.347   7.698   5.922  0.1822 -1.4538  0.1226
   99RES   H37541731   2.428   7.558   5.782 -0.3694  1.0612 -0.8637
   99RES   H37641732   2.501   7.690   5.725  1.2909 -0.3582 -1.1794
   99RES   H37741733   2.694   7.522   5.734  3.2841  0.0143  0.9540
   99RES   H37841734   2.709   7.596   5.893 -1.3862 -0.2357  1.0578
   99RES   H37941735   2.606   7.461   5.883 -0.8883  0.6856 -0.8216
   99RES   C38041736   2.593   0.354   6.136 -0.1204 -0.5389  0.4928
   99RES   C38141737   2.612   0.497   6.185 -1.4656 -0.6508  0.2357
   99RES   C38241738   2.668   0.596   6.076  0.0889 -0.2378 -0.1704
   99RES   C38341739   2.674   0.744   6.117  0.2961  0.3520  0.3139
   99RES   C38441740   2.754   0.829   6.013  0.2644 -0.3264  0.1045
   99RES   C38541741   2.688   0.849   5.877 -0.2953 -0.3031 -0.7937
   99RES   C38641742   2.775   0.926   5.784 -0.5784 -0.1936  0.7793
   99RES   H38741743   2.503   0.366   6.076  0.5509  0.6807 -0.2823
   99RES   H38841744   2.566   0.281   6.212  1.2051 -1.8740 -0.3009
   99RES   H38941745   2.675   0.500   6.273 -1.0445  3.0136 -0.1118
   99RES   H39041746   2.600   0.594   5.991 -0.4174  2.5059  0.1250
   99RES   H39141747   2.770   0.567   6.051  0.7248  1.0075  0.8575
   99RES   H39241748   2.571   0.777   6.134 -0.3498 -0.9614 -0.9403
   99RES   H39341749   2.725   0.744   6.213  1.4536  0.7292 -0.2971
   99RES   H39441750   2.780   0.928   6.050 -0.8210  1.0441 -2.6524
   99RES   H39541751   2.854   0.787   6.004  0.9140  0.8512  1.6268
   99RES   H39641752   2.593   0.895   5.902  0.5839  1.1733 -0.1128
   99RES   H39741753   2.666   0.747   5.844  0.6804 -0.0879 -2.1750
   99RES   H39841754   2.731   0.930   5.684  2.0844 -0.8066 -0.4622
   99RES   H39941755   2.874   0.880   5.777 -0.1643  0.4490  2.2246
   99RES   H40041756   2.791   1.026   5.823 -1.4352 -1.0965  3.5164
   99RES   C40141757   2.482   0.551   6.241 -0.3871  0.0537 -0.0531
   99RES   C40241758   2.427   0.473   6.369  0.2193 -0.9523 -0.0169
   99RES   C40341759   2.295   0.531   6.428 -0.1994 -0.1269  0.0689
   99RES   C40441760   2.169   0.470   6.360  0.1432 -0.7352  0.5908
   99RES   C40541761   2.035   0.534   6.409 -0.3284 -0.6174 -0.4538
   99RES   C40641762   1.907   0.492   6.334 -0.5805 -0.8878  0.3774
   99RES   C40741763   1.868   0.344   6.356 -0.2904 -0.5340  0.6752
   99RES   H40841764   2.410   0.572   6.163  1.7384 -0.7457 -2.2851
   99RES   H40941765   2.509   0.649   6.281  0.1331  0.6010 -1.7323
   99RES   H41041766   2.510   0.488   6.438 -1.3756 -0.4949  1.8371
   99RES   H41141767   2.299   0.639   6.413 -0.9664  0.0182  0.8601
   99RES   H41241768   2.299   0.506   6.534  0.0728  0.0328  0.0970
   99RES   H41341769   2.167   0.362   6.371  0.0341 -0.6455  1.5125
   99RES   H41441770   2.171   0.493   6.253 -0.8038 -1.1404  0.4749
   99RES   H41541771   2.027   0.495   6.510 -1.3498 -0.7093 -0.5652
   99RES   H41641772   2.055   0.642   6.409 -1.6852 -0.3409 -1.8536
   99RES   H41741773   1.836   0.571   6.357  0.4045  0.8299 -2.1992
   99RES   H41841774   1.915   0.513   6.227  0.6287  1.1541  0.8408
   99RES   H41941775   1.772   0.310   6.317  0.2089 -2.8681  1.4396
   99RES   H42041776   1.861   0.319   6.461  0.7223 -1.9812  0.4210
   99RES   H42141777   1.936   0.267   6.319  0.0773  0.1168 -0.0139
   99RES   H42241778   2.418   0.365   6.358 -1.7925 -0.8004 -0.1240
  100RES     C141779   6.338   6.753   2.433  0.0095 -0.5070 -0.2701
  100RES     C241780   6.334   6.821   2.293 -0.5197  0.1618 -0.1809
  100RES     C341781   6.193   6.831   2.225 -0.0807  0.3033  0.0089
  100RES     C441782   6.093   6.912   2.308  0.5055  0.1790 -0.2573
  100RES     C541783   5.946   6.882   2.276 -0.5856 -0.2302 -0.5738
  100RES     C641784   5.849   6.981   2.338 -0.1909  0.5537 -0.2924
  100RES     C741785   5.863   7.113   2.272 -0.2993 -0.3360  0.1711
  100RES     H841786   6.253   6.777   2.497  0.2019  1.0262 -0.5703
  100RES     H941787   6.425   6.764   2.498 -0.9937  0.6890  0.9068
  100RES    H1041788   6.354   6.927   2.311  1.1746  0.0524 -1.3047
  100RES    H1141789   6.212   6.867   2.124  0.6900 -0.8637 -0.2653
  100RES    H1241790   6.140   6.738   2.206  0.6837 -0.0667 -0.3564
  100RES    H1341791   6.105   6.895   2.415 -2.0669  0.4296  0.1057
  100RES    H1441792   6.114   7.017   2.289 -3.6186  1.0351 -0.4647
  100RES    H1541793   5.913   6.786   2.315  0.1512  0.4307  1.7557
  100RES    H1641794   5.944   6.882   2.167  2.2678 -0.6621 -0.6839
  100RES    H1741795   5.855   6.987   2.447 -0.6632  2.7840 -0.3825
  100RES    H1841796   5.744   6.954   2.324 -0.7104  1.6003  1.4294
  100RES    H1941797   5.781   7.176   2.305 -0.9700 -1.1799  0.1549
  100RES    H2041798   5.866   7.106   2.163  0.4792  0.0982  0.1632
  100RES    H2141799   5.955   7.165   2.297  0.4854 -1.6684  0.1080
  100RES    H2241800   6.330   6.646   2.416  0.5482 -0.7932  1.1637
  100RES    C2341801   6.445   6.768   2.198  0.3187  0.1890  0.0841
  100RES    C2441802   6.588   6.787   2.249  0.2661  0.1101  0.0775
  100RES    C2541803   6.624   6.936   2.283 -0.0978  0.5857 -0.7099
  100RES    C2641804   6.591   7.036   2.163 -0.6980  0.2694 -0.1333
  100RES    C2741805   6.655   7.177   2.179  0.0253 -0.3011  0.1745
  100RES    C2841806   6.617   7.243   2.313  0.3146 -0.6052 -0.2301
  100RES    C2941807   6.648   7.387   2.312  0.3840 -0.6168  0.2043
  100RES    H3041808   6.424   6.663   2.178 -1.0419  0.8186 -1.9108
  100RES    H3141809   6.441   6.820   2.103  1.5092 -2.4868 -1.5163
  100RES    H3241810   6.594   6.732   2.343  2.6425  1.8038  0.9950
  100RES    H3341811   6.730   6.933   2.308 -0.0373  0.2096 -1.0096
  100RES    H3441812   6.582   6.965   2.380  0.7056 -1.3657  0.2307
  100RES    H3541813   6.485   7.053   2.144 -0.6123 -1.1850 -2.1100
  100RES    H3641814   6.625   6.988   2.071  1.2455  0.4361  0.4833
  100RES    H3741815   6.631   7.241   2.094  1.1116 -0.4810 -0.2800
  100RES    H3841816   6.761   7.164   2.160 -0.0077  0.4433 -0.5474
  100RES    H3941817   6.668   7.194   2.396  2.4660 -0.0822 -1.2060
  100RES    H4041818   6.512   7.229   2.338  0.4037 -1.1869 -0.1621
  100RES    H4141819   6.739   7.412   2.256 -0.4145 -0.8887 -1.2374
  100RES    H4241820   6.562   7.439   2.270  1.6201  1.1796 -0.2001
  100RES    H4341821   6.649   7.419   2.416  1.3164 -0.9884  0.3159
  100RES    C4441822   6.686   6.730   2.143 -0.5635  0.3343 -0.0203
  100RES    C4541823   6.714   6.571   2.149  0.1382  0.5951 -0.4243
  100RES    C4641824   6.707   6.509   2.007  0.0419  0.5786 -0.0795
  100RES    C4741825   6.687   6.352   2.006  0.1449 -0.0534 -0.2646
  100RES    C4841826   6.640   6.301   1.870 -0.3474  0.0077 -0.0856
  100RES    C4941827   6.745   6.319   1.759 -0.0919 -0.6460 -0.5263
  100RES    C5041828   6.688   6.299   1.621  0.6313 -0.3680  0.4003
  100RES    H5141829   6.783   6.779   2.150  0.3784 -1.1803 -1.8513
  100RES    H5241830   6.655   6.760   2.043 -1.6619  1.5860  0.6787
  100RES    H5341831   6.630   6.532   2.205  0.8465 -0.1739  0.1067
  100RES    H5441832   6.793   6.531   1.944 -0.1379 -1.7486 -1.1896
  100RES    H5541833   6.617   6.549   1.960 -0.3170 -1.4468 -1.1524
  100RES    H5641834   6.784   6.311   2.031 -0.4574 -0.8327  0.8507
  100RES    H5741835   6.607   6.322   2.074  0.5991 -0.5979  0.0349
  100RES    H5841836   6.546   6.347   1.841 -0.8864 -1.3345 -0.4975
  100RES    H5941837   6.625   6.193   1.879  1.0364 -0.0777  1.6840
  100RES    H6041838   6.830   6.253   1.778 -0.7365 -1.2178  0.4290
  100RES    H6141839   6.784   6.421   1.768 -0.5400 -0.4805 -0.4476
  100RES    H6241840   6.769   6.295   1.549  0.5569 -4.0515  0.4454
  100RES    H6341841   6.612   6.377   1.606 -0.8751 -1.8393  0.2304
  100RES    H6441842   6.631   6.206   1.618  2.6382 -1.7003  2.3250
  100RES    C6541843   6.839   6.539   2.222  0.4299  0.1275  0.0725
  100RES    C6641844   6.833   6.522   2.376 -0.3920  0.0801  0.7365
  100RES    C6741845   6.976   6.534   2.430 -0.4473  0.2359 -0.2576
  100RES    C6841846   7.043   6.670   2.417 -0.3677  0.6629 -0.1747
  100RES    C6941847   7.190   6.654   2.447 -0.1252 -0.2806  0.3534
  100RES    C7041848   7.251   6.793   2.418  0.5973  0.5187  0.5299
  100RES    C7141849   7.396   6.813   2.455 -0.3738  0.1772 -0.9060
  100RES    H7241850   6.866   6.439   2.188  2.5375  0.5591  0.3704
  100RES    H7341851   6.923   6.603   2.192  1.2336 -0.8047  0.2935
  100RES    H7441852   6.773   6.605   2.413  0.6492  1.5496 -0.8101
  100RES    H7541853   6.982   6.510   2.537  3.5721 -1.0706 -0.6829
  100RES    H7641854   7.040   6.459   2.383 -1.8860  0.4334 -2.5712
  100RES    H7741855   7.025   6.709   2.317 -3.0474 -1.7704 -0.7340
  100RES    H7841856   6.986   6.740   2.477 -2.6659  1.2153 -2.8515
  100RES    H7941857   7.214   6.610   2.543  2.6768 -1.8326 -1.0080
  100RES    H8041858   7.225   6.584   2.371  0.6203  0.8894 -0.4028
  100RES    H8141859   7.198   6.873   2.471 -0.2725 -1.1806  2.2711
  100RES    H8241860   7.230   6.797   2.311  1.3920  0.4378  0.3652
  100RES    H8341861   7.411   6.804   2.562  0.7996  0.9899 -0.9894
  100RES    H8441862   7.461   6.747   2.397 -0.6130  0.9575 -2.0855
  100RES    H8541863   7.422   6.910   2.412 -0.8099 -0.0876 -1.7980
  100RES    C8641864   6.773   6.381   2.419 -0.0151 -0.0794  0.0187
  100RES    C8741865   6.723   6.365   2.567 -0.2678  0.1098  0.7047
  100RES    C8841866   6.570   6.403   2.583  0.1482 -0.4451 -0.6391
  100RES    C8941867   6.551   6.536   2.668  0.4792  0.3433 -0.3400
  100RES    C9041868   6.407   6.553   2.721  0.3726  0.1913  0.0078
  100RES    C9141869   6.407   6.662   2.831 -0.4368  0.1004  0.2050
  100RES    C9241870   6.272   6.690   2.892 -0.1700  0.6690 -0.2519
  100RES    H9341871   6.685   6.366   2.356  0.2421 -0.3178 -0.2857
  100RES    H9441872   6.849   6.307   2.393 -0.4586 -0.4746 -0.1530
  100RES    H9541873   6.791   6.424   2.628 -0.2024 -0.9068  1.6293
  100RES    H9641874   6.529   6.422   2.483  0.3060  2.6625 -0.1740
  100RES    H9741875   6.508   6.324   2.625 -1.4682  0.4000 -1.3589
  100RES    H9841876   6.618   6.527   2.754  1.7123 -0.0173 -1.3141
  100RES    H9941877   6.593   6.615   2.605 -0.0996  0.1216 -1.0058
  100RES   H10041878   6.374   6.457   2.760  1.5836 -0.8518 -1.4450
  100RES   H10141879   6.330   6.579   2.648  0.0815 -0.3779  0.1096
  100RES   H10241880   6.481   6.638   2.907 -0.6810 -0.8258  0.1471
  100RES   H10341881   6.450   6.756   2.795  0.8530  0.2521  2.0761
  100RES   H10441882   6.283   6.770   2.965 -1.6657 -0.7217  1.5428
  100RES   H10541883   6.230   6.600   2.937 -4.0143  2.3256 -0.3694
  100RES   H10641884   6.208   6.724   2.810 -1.8016 -2.1740 -0.2545
  100RES   C10741885   6.740   6.218   2.618  0.1394  0.3129 -0.4992
  100RES   C10841886   6.701   6.173   2.761 -0.3568  0.5726  0.1792
  100RES   C10941887   6.680   6.020   2.768 -0.1786 -0.1858 -0.2518
  100RES   C11041888   6.800   5.923   2.766  0.1756 -0.0183  0.9695
  100RES   C11141889   6.764   5.773   2.760  1.1651  0.1809  0.3923
  100RES   C11241890   6.890   5.694   2.725  0.2395 -0.5286 -0.3725
  100RES   C11341891   6.977   5.658   2.849  0.3496  0.6046  0.0885
  100RES   H11441892   6.842   6.181   2.607 -0.3943 -1.5227  0.6136
  100RES   H11541893   6.679   6.162   2.547  0.0821  1.3118 -1.2608
  100RES   H11641894   6.599   6.208   2.777 -0.8012  0.0848 -1.4552
  100RES   H11741895   6.608   5.994   2.691  0.1594  1.4892 -1.1581
  100RES   H11841896   6.633   5.985   2.860 -0.3892  0.6515 -0.0345
  100RES   H11941897   6.853   5.943   2.672  0.0971  0.1663  0.9645
  100RES   H12041898   6.869   5.933   2.850 -0.0864  0.2138  1.1559
  100RES   H12141899   6.694   5.757   2.678  1.2705 -1.1935  0.5686
  100RES   H12241900   6.713   5.731   2.846 -0.2804 -0.1202 -0.5954
  100RES   H12341901   6.870   5.608   2.661 -0.8128  0.2330 -1.0795
  100RES   H12441902   6.956   5.765   2.674 -1.0073  1.5008  0.7929
  100RES   H12541903   7.030   5.742   2.893 -0.0927  0.8227  0.2166
  100RES   H12641904   6.906   5.615   2.920  2.3961 -2.4593  0.3410
  100RES   H12741905   7.053   5.583   2.831 -0.6097 -0.3190 -0.2073
  100RES   C12841906   6.790   6.223   2.875 -0.2060 -0.3631  1.1326
  100RES   C12941907   6.724   6.228   3.019 -0.4120  0.1953 -0.5163
  100RES   C13041908   6.629   6.350   3.037 -0.0795 -0.3923  0.2565
  100RES   C13141909   6.539   6.350   3.160 -0.1357 -0.0213 -0.5456
  100RES   C13241910   6.433   6.456   3.153  0.6316  0.6057  0.1735
  100RES   C13341911   6.361   6.447   3.285  1.1654 -0.2746 -0.4633
  100RES   C13441912   6.221   6.515   3.292  0.0418 -0.2357 -0.5199
  100RES   H13541913   6.880   6.162   2.873  0.8893  1.2449  0.6672
  100RES   H13641914   6.827   6.324   2.855  0.8949 -1.2912 -1.7628
  100RES   H13741915   6.658   6.144   3.038 -1.0599  0.6531 -0.7018
  100RES   H13841916   6.546   6.337   2.968 -0.8659  2.0681  0.6709
  100RES   H13941917   6.679   6.445   3.016 -1.3355 -0.1051 -1.4900
  100RES   H14041918   6.590   6.357   3.256 -1.6220 -2.2676  0.4276
  100RES   H14141919   6.494   6.251   3.163  0.3649 -0.1947  2.6251
  100RES   H14241920   6.371   6.436   3.066  0.1810 -0.6065  0.7542
  100RES   H14341921   6.480   6.553   3.143 -0.1207  0.8586 -1.0507
  100RES   H14441922   6.433   6.485   3.357 -0.3871  3.8935 -0.9549
  100RES   H14541923   6.348   6.341   3.305 -0.5172  0.3062  1.7377
  100RES   H14641924   6.160   6.477   3.374  2.1383 -2.0564  0.2560
  100RES   H14741925   6.169   6.508   3.197  0.1184  0.2660 -0.5961
  100RES   H14841926   6.238   6.622   3.300 -0.6571 -0.1911  0.5844
  100RES   C14941927   6.835   6.225   3.126 -0.2797  0.0219 -0.4663
  100RES   C15041928   6.925   6.096   3.128  0.0291 -0.1299  0.3133
  100RES   C15141929   6.883   5.980   3.225  0.1875  0.3146 -0.1362
  100RES   C15241930   6.753   5.912   3.178  0.3158  0.0855 -0.6915
  100RES   C15341931   6.738   5.772   3.252  0.1335  0.5771  0.3009
  100RES   C15441932   6.845   5.667   3.226  0.4417 -0.3167 -0.0379
  100RES   C15541933   6.832   5.528   3.300  0.3308  0.4585 -0.5339
  100RES   H15641934   6.883   6.320   3.103 -1.5346  0.6451 -0.5994
  100RES   H15741935   6.788   6.224   3.224  1.3196  1.0173  0.3132
  100RES   H15841936   6.931   6.051   3.029 -0.8372 -1.1908  0.7394
  100RES   H15941937   6.975   5.922   3.221 -0.3603 -0.6671  1.2251
  100RES   H16041938   6.870   6.007   3.330  0.4616  2.3665 -0.6078
  100RES   H16141939   6.759   5.900   3.070  0.8886 -1.6334 -0.4839
  100RES   H16241940   6.666   5.976   3.194  0.8511  0.6064  0.2044
  100RES   H16341941   6.642   5.731   3.219  2.3092 -2.5561 -2.3897
  100RES   H16441942   6.726   5.794   3.358  1.0351 -0.7293  0.6855
  100RES   H16541943   6.942   5.710   3.252 -0.5867  1.8345  0.3798
  100RES   H16641944   6.846   5.653   3.118  0.0577  0.3161 -0.1292
  100RES   H16741945   6.864   5.533   3.404 -2.3548 -0.1650  0.3706
  100RES   H16841946   6.862   5.438   3.247  0.3945 -1.5036  2.7034
  100RES   H16941947   6.727   5.500   3.314  0.8070 -0.9815  0.2337
  100RES   C17041948   7.069   6.150   3.157  0.4042  0.2895  0.5096
  100RES   C17141949   7.139   6.219   3.032  0.3308  0.6650 -0.3292
  100RES   C17241950   7.176   6.361   3.075  0.3424  0.8208  0.2741
  100RES   C17341951   7.182   6.447   2.948  0.4296 -0.3168  0.0764
  100RES   C17441952   7.204   6.594   2.997  0.6876  0.1026 -0.2344
  100RES   C17541953   7.215   6.698   2.883 -0.3798  0.2497  0.8096
  100RES   C17641954   7.359   6.716   2.827  0.6603  0.0989 -0.3211
  100RES   H17741955   7.129   6.066   3.193  0.5438  0.6239  1.0538
  100RES   H17841956   7.055   6.211   3.246  1.0869  1.7008 -0.3169
  100RES   H17941957   7.056   6.230   2.962 -1.1772  1.5918  1.5481
  100RES   H18041958   7.276   6.366   3.118 -0.0925 -1.0598  1.5653
  100RES   H18141959   7.106   6.405   3.146  0.0051 -1.4593  1.3826
  100RES   H18241960   7.090   6.439   2.891 -0.5200  2.5101  1.1294
  100RES   H18341961   7.260   6.417   2.878 -1.2842 -2.9226 -0.7613
  100RES   H18441962   7.288   6.587   3.065 -0.5093  1.7984  1.4503
  100RES   H18541963   7.125   6.621   3.067  1.6682  0.8016  0.6178
  100RES   H18641964   7.181   6.794   2.922  1.0608  1.2055 -0.2167
  100RES   H18741965   7.149   6.680   2.798 -0.5576  1.3589  0.7045
  100RES   H18841966   7.356   6.791   2.748 -0.1222 -0.0459 -0.4339
  100RES   H18941967   7.395   6.623   2.783  1.9512  1.0974 -1.4152
  100RES   H19041968   7.422   6.755   2.907 -0.9280  1.7751  0.1312
  100RES   C19141969   7.266   6.141   2.993  0.0050 -0.1455  1.1016
  100RES   C19241970   7.240   6.014   2.911 -0.4568 -0.1114  0.5126
  100RES   C19341971   7.180   6.047   2.772 -0.4085 -0.1862  0.0682
  100RES   C19441972   7.263   6.140   2.680  0.0821 -0.1979 -0.3265
  100RES   C19541973   7.197   6.156   2.543 -0.5682 -0.7946  0.2140
  100RES   C19641974   7.274   6.246   2.447 -0.1020 -0.0406 -0.1793
  100RES   C19741975   7.388   6.175   2.377 -0.1565  0.7185  0.0056
  100RES   H19841976   7.308   6.115   3.090 -0.0916  0.0453  1.1951
  100RES   H19941977   7.347   6.200   2.950 -0.8071 -0.0488 -0.3146
  100RES   H20041978   7.167   5.951   2.963 -0.4034  1.2438  2.3012
  100RES   H20141979   7.088   6.099   2.796  0.2636  0.5658  1.0486
  100RES   H20241980   7.149   5.954   2.725 -2.6722 -0.6129  2.2992
  100RES   H20341981   7.365   6.102   2.676  0.3044  0.2487  0.8441
  100RES   H20441982   7.266   6.235   2.735 -1.4540 -0.1051 -0.3647
  100RES   H20541983   7.180   6.057   2.501  1.8143 -1.0041 -0.2849
  100RES   H20641984   7.108   6.217   2.560  0.7408  1.2425 -0.0662
  100RES   H20741985   7.311   6.334   2.499  0.8131 -0.6849  0.2770
  100RES   H20841986   7.212   6.285   2.367  1.8690 -0.6163 -2.0465
  100RES   H20941987   7.450   6.111   2.440 -0.3419 -1.8014 -2.2582
  100RES   H21041988   7.450   6.250   2.328  0.6760 -0.6536 -1.1023
  100RES   H21141989   7.348   6.110   2.298  2.3478 -1.8087  0.7246
  100RES   C21241990   7.363   5.930   2.898 -0.1111  0.6484 -0.4265
  100RES   C21341991   7.401   5.844   3.027  0.1227 -0.8046  0.5343
  100RES   C21441992   7.345   5.700   3.011  0.3031 -0.6655 -0.3219
  100RES   C21541993   7.307   5.648   3.152 -0.5039  0.1107  0.1801
  100RES   C21641994   7.287   5.503   3.172  0.4012 -0.0538  0.3258
  100RES   C21741995   7.249   5.463   3.311 -0.3095 -0.0644  0.2642
  100RES   C21841996   7.193   5.322   3.311  0.0259 -0.1906 -0.3787
  100RES   H21941997   7.448   5.990   2.865  0.6197 -0.6718 -0.9922
  100RES   H22041998   7.354   5.867   2.809 -0.8910 -0.2121  0.2519
  100RES   H22141999   7.356   5.881   3.119 -0.2462  1.0926 -0.3859
  100RES   H22242000   7.252   5.691   2.954 -0.5888 -0.6169  1.0802
  100RES   H22342001   7.426   5.647   2.961  0.7995 -1.1370  0.9715
  100RES   H22442002   7.211   5.691   3.180 -0.3877  1.0834 -0.8943
  100RES   H22542003   7.382   5.679   3.224  0.7107 -0.4469 -0.8179
  100RES   H22642004   7.201   5.479   3.111 -0.1714  1.1363  0.6394
  100RES   H22742005   7.366   5.438   3.135  0.6967 -0.7096  2.0430
  100RES   H22842006   7.328   5.483   3.384 -3.1399  0.9432  3.1813
  100RES   H22942007   7.175   5.532   3.351 -2.6110 -2.3800  0.0963
  100RES   H23042008   7.252   5.250   3.254  2.4180  1.1376  0.3188
  100RES   H23142009   7.102   5.330   3.253 -1.9224 -0.8912  2.4776
  100RES   H23242010   7.162   5.278   3.406 -0.8287  0.0169 -0.5662
  100RES   C23342011   7.556   5.851   3.033  0.6295  0.1047  0.0597
  100RES   C23442012   7.611   5.982   3.082 -0.5136 -0.3101  0.0385
  100RES   C23542013   7.632   5.984   3.242 -0.2487  0.0777 -0.0237
  100RES   C23642014   7.501   5.980   3.313 -0.0035  0.0090  0.6289
  100RES   C23742015   7.526   5.998   3.467  0.5226  0.6088 -0.1451
  100RES   C23842016   7.396   6.016   3.555  1.1554 -0.4111  0.1244
  100RES   C23942017   7.435   6.037   3.704  0.0831  0.0629  0.5993
  100RES   H24042018   7.594   5.806   2.941  1.5936 -0.0088  0.5079
  100RES   H24142019   7.600   5.783   3.106 -0.3705 -1.1567 -0.4806
  100RES   H24242020   7.539   6.060   3.055 -0.6342 -0.5142 -0.2383
  100RES   H24342021   7.689   6.076   3.257  0.1575 -0.0241 -0.9098
  100RES   H24442022   7.694   5.900   3.273  2.3739  1.8888 -0.2444
  100RES   H24542023   7.460   5.880   3.300  2.6490 -1.0281 -0.1671
  100RES   H24642024   7.432   6.056   3.275  0.2603  0.5893  1.2752
  100RES   H24742025   7.595   6.082   3.478  2.1885 -0.8827  1.1157
  100RES   H24842026   7.589   5.919   3.509 -1.1357 -0.6590 -0.0347
  100RES   H24942027   7.336   6.090   3.502 -1.3934 -1.0649  2.0301
  100RES   H25042028   7.335   5.926   3.547  0.8130 -0.1342 -0.3858
  100RES   H25142029   7.352   6.052   3.773 -0.3104  0.1963  0.1010
  100RES   H25242030   7.498   5.958   3.745 -0.7000 -1.1636 -0.5284
  100RES   H25342031   7.492   6.130   3.706 -0.1425  0.2108  0.1701
  100RES   C25442032   0.020   6.019   3.016 -0.0249  0.4137  1.2815
  100RES   C25542033   0.048   6.176   3.006 -0.2053  0.3959  0.1752
  100RES   C25642034   7.683   6.239   2.903  0.0681  0.2289 -0.4766
  100RES   C25742035   7.681   6.388   2.909  0.1477 -0.0341  0.3725
  100RES   C25842036   7.614   6.454   2.787 -0.3034 -0.1893 -0.1077
  100RES   C25942037   7.676   6.446   2.648 -0.5884  0.1899 -0.4403
  100RES   C26042038   7.607   6.555   2.566  0.1575  0.2642  0.6074
  100RES   H26142039   0.028   5.985   2.912 -0.3202 -1.9036  1.9785
  100RES   H26242040   0.107   5.972   3.062  0.9894  1.4812  0.4669
  100RES   H26342041   0.031   6.227   3.101 -1.6624 -1.5892  1.0237
  100RES   H26442042   7.580   6.207   2.913 -0.3823  1.5118 -0.9186
  100RES   H26542043   7.706   6.208   2.801 -1.0394  0.6580 -0.8633
  100RES   H26642044   7.631   6.426   2.998 -1.7452  1.6042 -1.3333
  100RES   H26742045   0.057   6.420   2.894  0.0037  0.0539 -0.4917
  100RES   H26842046   7.594   6.559   2.810 -0.6945 -0.6109  1.5516
  100RES   H26942047   7.519   6.401   2.787  0.1016 -0.9167 -0.0630
  100RES   H27042048   0.057   6.461   2.659 -0.4559 -0.8455 -0.2478
  100RES   H27142049   7.662   6.353   2.594 -0.4933  0.4926 -0.9956
  100RES   H27242050   7.632   6.655   2.602 -1.5554  0.6457  0.7533
  100RES   H27342051   7.630   6.548   2.460 -0.1138  1.2213  0.4852
  100RES   H27442052   7.500   6.542   2.581 -0.2286  0.8246 -1.5698
  100RES   C27542053   0.200   6.184   2.966 -0.2678 -0.6451  0.0782
  100RES   C27642054   0.294   6.244   3.081 -0.3175  0.5412  0.1498
  100RES   C27742055   0.433   6.283   3.026 -0.7927 -0.3576 -0.5295
  100RES   C27842056   0.429   6.426   2.980 -0.4027  0.1740 -0.2117
  100RES   C27942057   0.575   6.479   2.963  0.6320 -0.4491  0.0573
  100RES   C28042058   0.579   6.621   2.901  0.1381  0.1457 -0.0137
  100RES   C28142059   0.722   6.673   2.883 -0.4313 -0.2486  0.4466
  100RES   H28242060   0.210   6.250   2.880  1.0758  0.7548  1.2954
  100RES   H28342061   0.249   6.095   2.927  1.3917  0.3819 -0.1900
  100RES   H28442062   0.252   6.340   3.112 -0.6605  1.0868 -1.9185
  100RES   H28542063   0.510   6.270   3.103 -0.6567 -0.7414 -0.7295
  100RES   H28642064   0.471   6.218   2.948  2.6556 -1.3849  1.8810
  100RES   H28742065   0.379   6.491   3.051 -0.1700 -0.1116  0.2140
  100RES   H28842066   0.391   6.429   2.878 -0.1220  0.1040 -0.3184
  100RES   H28942067   0.635   6.411   2.901  0.4257 -1.3555  0.8369
  100RES   H29042068   0.621   6.490   3.061  0.3332  1.5810 -0.0091
  100RES   H29142069   0.517   6.630   2.812  0.1007  1.2132  0.1125
  100RES   H29242070   0.531   6.678   2.980 -0.3856  2.0984 -1.6745
  100RES   H29342071   0.782   6.685   2.973  1.5489 -0.9457 -0.7393
  100RES   H29442072   0.730   6.769   2.832 -0.1412  0.1260  1.1906
  100RES   H29542073   0.785   6.616   2.814 -0.8221  0.0662 -0.1704
  100RES   C29642074   0.304   6.145   3.207 -0.3115  0.3377  0.7476
  100RES   C29742075   0.385   6.190   3.327  0.1299  0.5122  0.4128
  100RES   C29842076   0.414   6.072   3.433  0.3629  0.4374  0.2889
  100RES   C29942077   0.304   5.974   3.464 -0.1958 -0.0532 -0.2868
  100RES   C30042078   0.341   5.880   3.580  0.6707  0.1054 -0.4234
  100RES   C30142079   0.211   5.834   3.657  0.0466 -0.7638  0.4627
  100RES   C30242080   0.239   5.732   3.763  0.3712 -0.6347 -0.3842
  100RES   H30342081   0.201   6.135   3.242 -1.2888  0.9493 -1.7842
  100RES   H30442082   0.341   6.047   3.175  0.1969  0.3874  1.1868
  100RES   H30542083   0.484   6.220   3.294 -0.0381  1.1919  0.5225
  100RES   H30642084   0.502   6.017   3.401 -0.3615  0.4596 -1.7793
  100RES   H30742085   0.449   6.115   3.527 -0.6770 -2.0048  1.8833
  100RES   H30842086   0.273   5.908   3.383 -1.5168  0.6493 -0.3556
  100RES   H30942087   0.214   6.030   3.488 -0.5709 -0.7732  0.0115
  100RES   H31042088   0.394   5.935   3.658  1.7367 -1.0820 -0.2997
  100RES   H31142089   0.398   5.791   3.553  2.1924  1.2558 -1.0375
  100RES   H31242090   0.169   5.918   3.712  0.4324 -1.5640  2.0153
  100RES   H31342091   0.126   5.802   3.596 -0.8112  1.9619  0.1797
  100RES   H31442092   0.252   5.633   3.720 -1.8690 -1.4596  0.7570
  100RES   H31542093   0.323   5.752   3.829 -2.1768  2.0237  2.1984
  100RES   H31642094   0.149   5.736   3.824  0.1614  1.8699 -0.7895
  100RES   C31742095   0.325   6.312   3.399 -0.2346 -0.7255  0.3439
  100RES   C31842096   0.434   6.396   3.466  0.2137  0.3204  0.3228
  100RES   C31942097   0.519   6.483   3.368  0.2604  0.6327  0.1567
  100RES   C32042098   0.652   6.529   3.438  0.1302 -0.2400 -0.0742
  100RES   C32142099   0.737   6.617   3.344  0.1958 -0.5611 -0.2518
  100RES   C32242100   0.687   6.765   3.350  0.0574 -0.2440  0.9367
  100RES   C32342101   0.778   6.853   3.277  0.7377  0.6901 -0.8471
  100RES   H32442102   0.256   6.263   3.469  0.0517  0.8202  1.7357
  100RES   H32542103   0.257   6.375   3.343  1.1410  0.2294 -0.2764
  100RES   H32642104   0.504   6.330   3.518  2.0982  0.6880 -1.6585
  100RES   H32742105   0.460   6.565   3.328  0.6663 -0.3381 -2.5458
  100RES   H32842106   0.551   6.423   3.283 -1.5132  1.1196 -0.8956
  100RES   H32942107   0.701   6.443   3.483 -2.0086  0.3464  3.5419
  100RES   H33042108   0.632   6.591   3.525 -0.1507 -0.6011  0.1212
  100RES   H33142109   0.722   6.584   3.241 -0.3244  0.8062 -0.6211
  100RES   H33242110   0.842   6.613   3.372 -0.4313 -2.6000  1.9632
  100RES   H33342111   0.694   6.807   3.451 -0.9319 -0.5734  1.1432
  100RES   H33442112   0.586   6.777   3.311  0.2478  0.3359  0.6201
  100RES   H33542113   0.882   6.823   3.271  0.3971 -0.3679 -1.6175
  100RES   H33642114   0.783   6.951   3.323  0.3613  0.9241 -1.3024
  100RES   H33742115   0.734   6.860   3.178 -0.4356  0.1519 -0.3780
  100RES   C33842116   0.360   6.487   3.561 -0.0297 -0.1683 -0.1183
  100RES   C33942117   0.325   6.405   3.693 -0.0856 -0.3630  0.3342
  100RES   C34042118   0.205   6.478   3.770 -0.6952 -0.1704 -0.6337
  100RES   C34142119   0.067   6.424   3.740 -0.0452  0.4095 -0.2498
  100RES   C34242120   7.682   6.478   3.832  0.2328 -0.2283 -0.0327
  100RES   C34342121   7.541   6.460   3.763  0.0189 -0.3373 -0.4039
  100RES   C34442122   7.425   6.524   3.844  0.2153 -0.2918 -0.0240
  100RES   H34542123   0.270   6.530   3.516  0.5155 -0.3929 -1.4608
  100RES   H34642124   0.420   6.575   3.583  0.1494  0.3112 -2.4009
  100RES   H34742125   0.300   6.302   3.670  0.3525 -0.2539 -0.6452
  100RES   H34842126   0.213   6.470   3.878  0.4266 -0.5644 -0.7385
  100RES   H34942127   0.208   6.586   3.759 -2.0278 -0.0671 -0.0946
  100RES   H35042128   0.055   6.316   3.747  0.5111  0.5131  3.0442
  100RES   H35142129   0.048   6.451   3.636 -2.1338 -1.1359 -0.2933
  100RES   H35242130   7.688   6.443   3.936  2.1791 -1.9209 -0.6803
  100RES   H35342131   7.691   6.585   3.853  2.8105 -0.6377  1.1608
  100RES   H35442132   7.531   6.500   3.662  0.9193 -2.7396 -1.5029
  100RES   H35542133   7.515   6.354   3.757  0.9434 -0.5366 -1.0571
  100RES   H35642134   7.326   6.498   3.806  0.4746 -2.2584  0.6205
  100RES   H35742135   7.421   6.633   3.851 -1.6993 -0.3108 -0.5258
  100RES   H35842136   7.423   6.493   3.948 -0.8701 -2.1042 -0.5679
  100RES   C35942137   0.454   6.408   3.779 -0.2290  0.2612  0.1860
  100RES   C36042138   0.454   6.314   3.909 -0.3397 -0.0885  0.1323
  100RES   C36142139   0.444   6.167   3.872 -0.3706 -0.5026 -0.4040
  100RES   C36242140   0.380   6.078   3.977  0.2438 -0.0352 -0.1020
  100RES   C36342141   0.227   6.114   4.007 -0.5030  0.3954 -0.5337
  100RES   C36442142   0.139   5.995   4.060 -0.5134 -0.1232 -0.3083
  100RES   C36542143   0.196   5.949   4.191  0.4929  0.0174 -0.1512
  100RES   H36642144   0.473   6.512   3.807  0.2900  0.0775  0.5215
  100RES   H36742145   0.536   6.367   3.719  0.1748  0.4704  0.5928
  100RES   H36842146   0.367   6.347   3.965  1.7162 -0.0000  3.4324
  100RES   H36942147   0.380   6.155   3.784 -0.7423  0.3743 -0.2599
  100RES   H37042148   0.546   6.131   3.857  0.8901  2.1087  1.5985
  100RES   H37142149   0.385   5.973   3.948  0.6720 -0.1059  0.2184
  100RES   H37242150   0.445   6.077   4.065 -0.4656 -0.3649  0.4241
  100RES   H37342151   0.220   6.199   4.074 -1.1736  1.1332 -1.5179
  100RES   H37442152   0.174   6.136   3.914 -0.1429 -0.0931 -0.8565
  100RES   H37542153   0.031   6.009   4.055 -0.5787 -0.6478 -0.3779
  100RES   H37642154   0.152   5.916   3.987 -0.4286 -0.9662  0.6149
  100RES   H37742155   0.161   6.003   4.279 -1.8547 -0.8263 -0.5377
  100RES   H37842156   0.183   5.843   4.209  2.3696  0.0334  1.4415
  100RES   H37942157   0.304   5.960   4.191  0.5689 -0.7176 -0.3223
  100RES   C38042158   0.584   6.348   3.993  0.3546  0.1657  0.1621
  100RES   C38142159   0.589   6.316   4.145 -0.2832 -0.8506  0.3039
  100RES   C38242160   0.724   6.247   4.178 -0.2471 -0.2955  0.5269
  100RES   C38342161   0.724   6.096   4.140  0.0610 -0.2598  0.4900
  100RES   C38442162   0.645   6.006   4.231 -0.2918  0.0434 -0.1842
  100RES   C38542163   0.654   5.859   4.180  0.9487  0.3615  0.3297
  100RES   C38642164   0.587   5.754   4.274 -0.2413 -0.3108  0.1173
  100RES   H38742165   0.669   6.305   3.940 -1.8664 -3.8474 -0.3806
  100RES   H38842166   0.604   6.453   3.972 -0.4151 -0.1586 -2.4010
  100RES   H38942167   0.502   6.258   4.176 -1.2834  1.0104  1.0659
  100RES   H39042168   0.729   6.239   4.286 -0.2262 -0.2162  0.5320
  100RES   H39142169   0.816   6.293   4.141  0.7550 -0.3649  2.8378
  100RES   H39242170   0.682   6.074   4.042  0.2230 -1.6810  0.7265
  100RES   H39342171   0.827   6.061   4.137  0.3390  0.5731  0.3143
  100RES   H39442172   0.692   6.012   4.329  0.7074 -0.6981 -0.6252
  100RES   H39542173   0.545   6.050   4.242  0.4674  1.3676  1.6749
  100RES   H39642174   0.752   5.812   4.177  0.2392 -1.3968  2.8488
  100RES   H39742175   0.618   5.850   4.078  0.8059  0.0770  0.4034
  100RES   H39842176   0.634   5.759   4.372  0.7758 -1.0441 -0.3305
  100RES   H39942177   0.587   5.659   4.220  1.1301 -0.5632  0.5577
  100RES   H40042178   0.482   5.780   4.291  0.2549  0.6237  1.8343
  100RES   C40142179   0.590   6.454   4.222  0.3288  0.2120  0.5324
  100RES   C40242180   0.526   6.444   4.362  0.0253  0.7150 -0.6430
  100RES   C40342181   0.573   6.559   4.460  0.2740 -0.6194 -0.4228
  100RES   C40442182   0.494   6.583   4.586  0.1849 -0.3654  0.0113
  100RES   C40542183   0.525   6.485   4.697 -1.2140  0.4279 -0.8209
  100RES   C40642184   0.439   6.517   4.820 -0.1907 -0.6145  0.6231
  100RES   C40742185   0.440   6.404   4.919 -0.4921 -0.4479  0.9139
  100RES   H40842186   0.530   6.533   4.175  0.6589  1.2670  1.8601
  100RES   H40942187   0.692   6.491   4.233 -0.8384  3.5425  0.5883
  100RES   H41042188   0.570   6.361   4.416 -0.0768  0.1232 -1.4587
  100RES   H41142189   0.564   6.647   4.397  0.8500 -0.2783 -0.0317
  100RES   H41242190   0.677   6.538   4.489  0.9074 -2.6619 -3.8009
  100RES   H41342191   0.391   6.583   4.550 -0.1615  2.1018  0.8638
  100RES   H41442192   0.508   6.678   4.638 -0.6100 -0.4426  0.3757
  100RES   H41542193   0.499   6.384   4.668 -0.6428 -0.3281  1.2350
  100RES   H41642194   0.628   6.481   4.732 -1.0894 -3.3644 -1.4103
  100RES   H41742195   0.475   6.607   4.871  0.8553 -0.3998 -0.4732
  100RES   H41842196   0.338   6.533   4.784 -0.5232  1.3851  2.3262
  100RES   H41942197   0.366   6.408   4.998 -1.5759 -0.0557 -0.0976
  100RES   H42042198   0.533   6.400   4.975  0.7533 -0.5889 -1.0852
  100RES   H42142199   0.436   6.312   4.859  3.6920  0.5679 -1.1194
  100RES   H42242200   0.417   6.445   4.356 -0.1424  0.4867  1.7518
  101RES     C142201   6.178   0.328   5.387 -0.0481 -0.0101 -0.1795
  101RES     C242202   6.210   0.474   5.397 -0.3566 -0.3515  0.2934
  101RES     C342203   6.127   0.543   5.511  0.5020 -0.0685 -0.5346
  101RES     C442204   6.121   0.469   5.641  0.5159  0.0970 -0.5605
  101RES     C542205   6.107   0.551   5.770 -0.2054  0.8337 -0.5106
  101RES     C642206   6.109   0.473   5.899  0.3817 -0.2149  0.3287
  101RES     C742207   6.079   0.564   6.022  0.0540 -0.3733  0.1187
  101RES     H842208   6.248   0.290   5.312  0.4630 -2.5183  1.4769
  101RES     H942209   6.079   0.321   5.344 -0.0879  2.0319 -0.4477
  101RES    H1042210   6.310   0.484   5.440 -0.6481  2.7478  0.3758
  101RES    H1142211   6.166   0.644   5.522 -3.1851  1.3714  0.0959
  101RES    H1242212   6.026   0.557   5.471  0.4520 -0.5368 -0.5667
  101RES    H1342213   6.046   0.391   5.630  0.4849 -0.2201  1.6593
  101RES    H1442214   6.215   0.417   5.661  0.3837 -0.2902 -0.9399
  101RES    H1542215   6.011   0.603   5.760 -0.8471 -0.3411 -0.5920
  101RES    H1642216   6.189   0.623   5.767 -3.0186  4.1993 -0.5088
  101RES    H1742217   6.205   0.426   5.923 -0.2336 -0.1800  2.9924
  101RES    H1842218   6.030   0.398   5.899  0.9757 -0.8561 -0.6270
  101RES    H1942219   6.166   0.601   6.078 -0.5437  1.7976 -0.3519
  101RES    H2042220   6.032   0.502   6.098 -0.8619  2.4076  1.8953
  101RES    H2142221   6.010   0.646   6.003 -0.5587 -1.1068 -0.8553
  101RES    H2242222   6.193   0.280   5.484 -0.1492  0.0205 -0.1481
  101RES    C2342223   6.201   0.563   5.265  0.1205  0.2757 -0.3397
  101RES    C2442224   6.311   0.530   5.151  0.1849  0.0616  0.3055
  101RES    C2542225   6.458   0.538   5.206 -0.0863 -0.0944  0.2736
  101RES    C2642226   6.515   0.671   5.262  1.2222  0.4340  0.3820
  101RES    C2742227   6.668   0.679   5.290  0.0688  0.2610  0.0655
  101RES    C2842228   6.722   0.620   5.426 -0.1689  0.0974  0.4123
  101RES    C2942229   6.866   0.584   5.422 -0.0588  0.3197 -0.0832
  101RES    H3042230   6.104   0.540   5.222  0.3577  0.5067 -1.0027
  101RES    H3142231   6.211   0.671   5.276 -0.1021  0.6139 -3.0451
  101RES    H3242232   6.302   0.425   5.124  0.5389 -0.2118  1.2618
  101RES    H3342233   6.517   0.506   5.120 -1.3301  1.0829 -1.0386
  101RES    H3442234   6.465   0.459   5.281 -0.7179 -0.1227  0.3127
  101RES    H3542235   6.454   0.685   5.351  1.3886  1.5336  0.3248
  101RES    H3642236   6.482   0.743   5.187 -0.5931 -2.1025 -1.3422
  101RES    H3742237   6.699   0.784   5.285  0.9135 -0.0210 -0.8802
  101RES    H3842238   6.724   0.629   5.211 -0.4369 -1.6646  0.9151
  101RES    H3942239   6.664   0.531   5.453 -0.6918  0.3229  0.0298
  101RES    H4042240   6.699   0.687   5.509  0.0346 -1.0713  1.4408
  101RES    H4142241   6.888   0.515   5.341 -1.7549  0.1294 -0.3971
  101RES    H4242242   6.937   0.667   5.413  0.4466  0.2964  3.1429
  101RES    H4342243   6.887   0.540   5.519 -0.2386  0.0459 -0.1682
  101RES    C4442244   6.289   0.607   5.019  0.4147  0.4446  0.3721
  101RES    C4542245   6.375   0.562   4.889 -0.6496  0.6949  0.2674
  101RES    C4642246   6.340   0.423   4.832 -0.3652  0.1251 -0.4313
  101RES    C4742247   6.441   0.357   4.738  0.1176  0.5863 -0.2132
  101RES    C4842248   6.426   0.206   4.724  0.2334  0.3266 -0.5459
  101RES    C4942249   6.493   0.130   4.610 -0.2662  0.5774 -0.6555
  101RES    C5042250   6.647   0.138   4.622 -0.1757 -0.3418  0.5609
  101RES    H5142251   6.299   0.710   5.053 -0.0517  0.5435  0.2082
  101RES    H5242252   6.182   0.593   5.002  0.4700 -0.7369  0.9228
  101RES    H5342253   6.476   0.554   4.928 -0.5562  1.1179  0.1150
  101RES    H5442254   6.234   0.420   4.804 -0.4604 -1.1786  0.0186
  101RES    H5542255   6.341   0.355   4.917 -1.0900 -0.3368 -0.7877
  101RES    H5642256   6.443   0.404   4.640 -1.3898 -0.6985 -0.8776
  101RES    H5742257   6.543   0.377   4.772  0.0843  1.6876 -0.7493
  101RES    H5842258   6.318   0.189   4.720  0.3980 -0.3401 -2.1897
  101RES    H5942259   6.456   0.156   4.816 -0.2612 -1.0756 -1.1269
  101RES    H6042260   6.453   0.170   4.517  0.1883 -1.8233 -1.9217
  101RES    H6142261   6.454   0.029   4.618 -1.1439  0.8969 -0.8544
  101RES    H6242262   6.692   0.103   4.714  1.3424 -0.3190 -0.1601
  101RES    H6342263   6.688   0.238   4.609 -0.8318 -0.2739 -1.2814
  101RES    H6442264   6.698   0.076   4.548  0.4550 -0.0980  0.7904
  101RES    C6542265   6.350   0.668   4.783  0.6570  0.2390  0.3428
  101RES    C6642266   6.428   0.803   4.811  0.0305 -0.1360 -0.2968
  101RES    C6742267   6.375   0.906   4.708 -0.1624 -0.1229 -0.2585
  101RES    C6842268   6.232   0.949   4.749  0.7218  0.2741 -0.1824
  101RES    C6942269   6.177   1.067   4.662 -0.0068 -0.6914  0.2013
  101RES    C7042270   6.037   1.121   4.696 -0.2293  0.5564 -0.0938
  101RES    C7142271   5.929   1.014   4.696  0.2052 -0.6381  0.2794
  101RES    H7242272   6.367   0.637   4.680  2.2309  0.9948  0.3678
  101RES    H7342273   6.242   0.686   4.787  0.5204 -0.2996 -0.6918
  101RES    H7442274   6.413   0.841   4.912 -0.6970 -0.4272 -0.2910
  101RES    H7542275   6.444   0.990   4.702  0.6053 -0.8765 -2.7500
  101RES    H7642276   6.382   0.854   4.613 -0.8603  0.1540 -0.4660
  101RES    H7742277   6.169   0.862   4.731  2.1703 -0.6560 -0.8305
  101RES    H7842278   6.233   0.979   4.854  2.9284  2.5898 -0.8069
  101RES    H7942279   6.250   1.144   4.639 -0.0882 -0.0052  2.1358
  101RES    H8042280   6.166   1.031   4.560 -1.0249 -0.0277  0.0695
  101RES    H8142281   6.002   1.193   4.622  0.8721  1.6521  0.4281
  101RES    H8242282   6.048   1.182   4.786 -0.1538 -1.1195  1.0612
  101RES    H8342283   5.939   0.961   4.601 -1.4817  0.9867 -0.8422
  101RES    H8442284   5.950   0.942   4.776  2.9489 -2.0385 -1.6301
  101RES    H8542285   5.832   1.062   4.708  1.5482  2.3559 -0.3917
  101RES    C8642286   6.582   0.783   4.792 -0.4070  0.4533  0.2909
  101RES    C8742287   6.671   0.911   4.814 -0.4402 -0.0113  0.2486
  101RES    C8842288   6.674   0.939   4.968  0.0123 -0.3250  0.1578
  101RES    C8942289   6.728   1.078   4.991 -0.3443  0.7798 -0.1371
  101RES    C9042290   6.740   1.106   5.139 -0.0614 -0.3377 -0.0538
  101RES    C9142291   6.822   1.228   5.175 -0.5439 -0.5186 -0.2837
  101RES    C9242292   6.760   1.363   5.133 -0.5024  0.5729  0.1545
  101RES    H9342293   6.621   0.702   4.854  1.0726  0.4156 -0.6795
  101RES    H9442294   6.590   0.738   4.693 -0.8963 -0.4602  0.6519
  101RES    H9542295   6.641   1.001   4.760 -0.5071 -0.6420 -0.7863
  101RES    H9642296   6.572   0.934   5.005 -0.8331 -2.1945 -2.2902
  101RES    H9742297   6.731   0.865   5.023  0.1409 -0.2727  0.0950
  101RES    H9842298   6.830   1.091   4.955  0.7220  0.1171  2.5944
  101RES    H9942299   6.666   1.150   4.936 -0.3446 -1.3379 -3.0659
  101RES   H10042300   6.780   1.024   5.199  2.5791  0.5840 -0.4947
  101RES   H10142301   6.635   1.114   5.169 -0.1510  0.2743 -0.5224
  101RES   H10242302   6.826   1.220   5.283 -1.7075  1.6297 -0.0350
  101RES   H10342303   6.927   1.228   5.146 -0.3243  0.5159  0.4678
  101RES   H10442304   6.816   1.447   5.175 -0.6076  0.6406  0.1605
  101RES   H10542305   6.666   1.371   5.187  0.4536  1.2858  1.7558
  101RES   H10642306   6.738   1.370   5.027  0.8779  1.5929 -0.0882
  101RES   C10742307   6.822   0.882   4.772  0.9083 -0.4151  0.0846
  101RES   C10842308   6.855   0.931   4.632 -0.1613 -0.5869  0.2554
  101RES   C10942309   6.762   0.878   4.523 -0.2595  0.1556 -0.9098
  101RES   C11042310   6.762   0.723   4.507 -0.1114 -0.0585 -0.0632
  101RES   C11142311   6.644   0.674   4.428  0.2189 -0.3924 -0.1871
  101RES   C11242312   6.648   0.518   4.415  1.4847 -0.0817 -0.0397
  101RES   C11342313   6.529   0.466   4.343 -0.6965 -0.1453 -0.3118
  101RES   H11442314   6.850   0.778   4.787 -1.0140 -0.9819 -0.1687
  101RES   H11542315   6.897   0.925   4.839 -0.5143  0.6596  1.0388
  101RES   H11642316   6.956   0.895   4.616  0.7242  1.8975  0.1030
  101RES   H11742317   6.785   0.924   4.427 -2.6469  0.4654 -1.3651
  101RES   H11842318   6.663   0.916   4.548 -0.1264 -0.2675  0.3023
  101RES   H11942319   6.860   0.694   4.468  0.0944 -1.1799  1.2596
  101RES   H12042320   6.765   0.669   4.601  1.5565 -1.3938 -0.8461
  101RES   H12142321   6.646   0.716   4.327 -1.5829  0.8798  0.2867
  101RES   H12242322   6.557   0.716   4.478 -0.7181 -1.3154 -1.0149
  101RES   H12342323   6.735   0.475   4.366 -0.3306 -2.3400 -1.3676
  101RES   H12442324   6.636   0.483   4.518 -2.0980  0.5235 -0.1860
  101RES   H12542325   6.531   0.464   4.234  0.0312  0.2667 -0.3113
  101RES   H12642326   6.499   0.366   4.373  1.0034 -0.6854 -0.3618
  101RES   H12742327   6.436   0.518   4.363 -0.4429  0.3175 -0.3307
  101RES   C12842328   6.865   1.087   4.626  0.1668 -0.1915  0.2621
  101RES   C12942329   6.954   1.141   4.515  0.2505 -0.0765 -0.1056
  101RES   C13042330   7.103   1.108   4.520  0.3001 -0.2430  0.0969
  101RES   C13142331   7.180   1.180   4.630  0.0096 -0.7913 -0.3068
  101RES   C13242332   7.323   1.131   4.645  0.1332  0.0670 -0.3878
  101RES   C13342333   7.414   1.168   4.527  0.5298  0.1467 -0.2337
  101RES   C13442334   7.463   1.046   4.451  0.4562  0.4322  0.2806
  101RES   H13542335   6.766   1.132   4.629  1.2033  2.4031 -2.0635
  101RES   H13642336   6.918   1.114   4.717  0.8393 -0.8188  0.0648
  101RES   H13742337   6.927   1.097   4.419  0.1470  0.1684 -0.1890
  101RES   H13842338   7.140   1.150   4.426 -0.8249  0.7695  0.0991
  101RES   H13942339   7.115   1.000   4.518  0.9121 -0.1918  0.9333
  101RES   H14042340   7.142   1.166   4.732  1.7899 -0.0339  0.4858
  101RES   H14142341   7.164   1.286   4.613  0.0938 -0.7545 -0.1610
  101RES   H14242342   7.322   1.022   4.636  1.7526  0.0486 -0.5221
  101RES   H14342343   7.350   1.157   4.748  0.6115 -0.7955 -0.2940
  101RES   H14442344   7.504   1.219   4.563  0.8682  0.9055 -2.1229
  101RES   H14542345   7.351   1.220   4.455 -0.6424 -3.1817 -1.7254
  101RES   H14642346   7.374   1.002   4.407  0.5424  0.5961 -0.0602
  101RES   H14742347   7.510   0.971   4.514  0.2551 -0.3364 -0.4760
  101RES   H14842348   7.534   1.055   4.368 -0.3325 -0.9655 -0.5613
  101RES   C14942349   6.924   1.298   4.505  0.0908 -0.1068 -0.5964
  101RES   C15042350   6.806   1.335   4.415  0.1171 -0.9783 -0.0275
  101RES   C15142351   6.844   1.313   4.271  0.4228  0.2053  0.1699
  101RES   C15242352   6.717   1.299   4.174  0.5720 -0.8377  0.5524
  101RES   C15342353   6.756   1.287   4.022 -0.0018 -0.0008 -0.1078
  101RES   C15442354   6.628   1.268   3.939  0.2711 -0.3206 -0.0603
  101RES   C15542355   6.552   1.390   3.899 -0.8326 -0.0672  0.7774
  101RES   H15642356   6.907   1.325   4.609  1.8864 -2.1866  0.2695
  101RES   H15742357   7.012   1.357   4.482  0.1915  0.5940  1.4788
  101RES   H15842358   6.722   1.268   4.433 -0.2299 -0.6272 -0.3188
  101RES   H15942359   6.898   1.401   4.236  0.1460  0.8190  1.2862
  101RES   H16042360   6.909   1.227   4.249 -0.2671  0.1072 -1.5975
  101RES   H16142361   6.645   1.380   4.188  0.4755 -1.2422  2.5184
  101RES   H16242362   6.668   1.207   4.206  0.7700 -0.6738  1.3349
  101RES   H16342363   6.821   1.200   4.012  1.0627  0.9875 -2.1158
  101RES   H16442364   6.829   1.359   3.984  1.9130 -1.7975  0.0956
  101RES   H16542365   6.561   1.199   3.991  0.6485 -1.3854 -0.9834
  101RES   H16642366   6.654   1.210   3.851  0.5982  0.6568 -0.6132
  101RES   H16742367   6.488   1.360   3.816 -0.3028  0.6877  0.0860
  101RES   H16842368   6.617   1.466   3.855  0.8299 -1.4416  0.8207
  101RES   H16942369   6.489   1.443   3.971 -1.2043 -0.6872  0.9092
  101RES   C17042370   6.757   1.488   4.435 -0.7694  0.4826  0.0985
  101RES   C17142371   6.672   1.512   4.565  0.0371  0.1118 -0.6753
  101RES   C17242372   6.720   1.644   4.633 -0.1551 -0.1855 -0.3504
  101RES   C17342373   6.713   1.649   4.779  0.0832  0.6585 -0.6388
  101RES   C17442374   6.784   1.764   4.858 -0.4731 -0.2205  0.4435
  101RES   C17542375   6.807   1.740   5.010  0.1008  0.4086 -0.3267
  101RES   C17642376   6.906   1.843   5.064 -0.1948 -1.1927  0.1489
  101RES   H17742377   6.705   1.525   4.347  1.4547  0.5204 -1.2600
  101RES   H17842378   6.853   1.540   4.435  0.4433 -1.5320 -4.3852
  101RES   H17942379   6.696   1.434   4.637 -0.7806  2.3695  2.1271
  101RES   H18042380   6.667   1.730   4.592 -0.4212  0.3386  1.0836
  101RES   H18142381   6.827   1.659   4.621  0.0621 -2.5214 -1.6387
  101RES   H18242382   6.764   1.555   4.803  0.7849  1.5935  1.6978
  101RES   H18342383   6.609   1.635   4.809  1.3490 -1.9743  2.9908
  101RES   H18442384   6.728   1.857   4.851 -1.3585 -0.7101  0.9949
  101RES   H18542385   6.883   1.777   4.814  0.3070 -3.8639  0.9560
  101RES   H18642386   6.840   1.636   5.013 -0.4584  0.2524  1.0491
  101RES   H18742387   6.706   1.743   5.051  0.1217 -0.2423 -0.2228
  101RES   H18842388   6.852   1.938   5.062 -0.6195 -1.4144  0.8480
  101RES   H18942389   6.996   1.846   5.003 -0.3872  0.3954 -0.0719
  101RES   H19042390   6.935   1.811   5.164  1.5916 -0.1165 -0.0055
  101RES   C19142391   6.517   1.525   4.538  0.2655  0.7462 -0.0867
  101RES   C19242392   6.440   1.398   4.574  0.4811 -0.0990 -0.4171
  101RES   C19342393   6.427   1.371   4.721 -0.2522  0.5201 -0.4750
  101RES   C19442394   6.350   1.479   4.808 -0.0931  0.0087 -0.9463
  101RES   C19542395   6.328   1.421   4.949  0.7363 -0.2250  0.4863
  101RES   C19642396   6.286   1.519   5.055  0.5714 -0.0864 -0.0134
  101RES   C19742397   6.403   1.590   5.115  0.2498  0.1310 -0.0081
  101RES   H19842398   6.499   1.571   4.441 -0.4913  0.1456 -0.2334
  101RES   H19942399   6.463   1.594   4.604  0.3779  1.7202 -1.0056
  101RES   H20042400   6.498   1.315   4.533  0.0514 -0.0215 -1.2112
  101RES   H20142401   6.528   1.349   4.757 -0.4713  0.5191  0.1427
  101RES   H20242402   6.374   1.278   4.736  1.6468 -0.5097  0.0382
  101RES   H20342403   6.246   1.497   4.784 -0.4095  0.5115  0.7338
  101RES   H20442404   6.405   1.573   4.814  0.6481 -0.4329 -0.6753
  101RES   H20542405   6.250   1.345   4.940  1.5527 -0.7701 -2.4551
  101RES   H20642406   6.410   1.361   4.987  1.3866 -0.2899 -0.9938
  101RES   H20742407   6.227   1.475   5.135  0.3121 -0.2840 -0.3151
  101RES   H20842408   6.211   1.583   5.009 -0.2274 -0.4143  0.8374
  101RES   H20942409   6.490   1.524   5.127 -0.7080 -1.3744 -1.1656
  101RES   H21042410   6.386   1.629   5.215 -3.0065 -0.7691 -0.1450
  101RES   H21142411   6.440   1.671   5.053 -1.5112 -0.2016 -1.5524
  101RES   C21242412   6.304   1.409   4.501 -0.5412 -0.6562 -0.7790
  101RES   C21342413   6.316   1.377   4.349  0.1269 -0.2488  0.7461
  101RES   C21442414   6.298   1.223   4.317  0.3559  0.3521 -0.3610
  101RES   C21542415   6.411   1.129   4.362  0.2624 -0.1167  0.1397
  101RES   C21642416   6.378   0.993   4.307 -0.2498  0.0379 -0.2812
  101RES   C21742417   6.438   0.965   4.175  0.3788  0.2502  0.0588
  101RES   C21842418   6.411   0.825   4.111  0.3783  0.3020  0.2987
  101RES   H21942419   6.258   1.506   4.519 -2.4172 -1.8933  1.3084
  101RES   H22042420   6.230   1.337   4.536 -0.6798 -0.3545 -0.4421
  101RES   H22142421   6.418   1.396   4.314 -0.7121  3.3700  0.1379
  101RES   H22242422   6.198   1.191   4.347  0.7889 -0.4308  0.2517
  101RES   H22342423   6.310   1.221   4.209  2.4625 -1.1586 -0.1309
  101RES   H22442424   6.411   1.124   4.471 -0.5964 -3.4926  0.0521
  101RES   H22542425   6.509   1.165   4.332  0.0862  2.8399  2.8552
  101RES   H22642426   6.425   0.926   4.380 -0.0257  1.5219  0.9705
  101RES   H22742427   6.270   0.978   4.302 -0.2682 -0.0044  0.1505
  101RES   H22842428   6.395   1.033   4.101 -2.7120  0.4295  1.9416
  101RES   H22942429   6.545   0.982   4.167  1.2758 -4.6616 -0.2284
  101RES   H23042430   6.308   0.798   4.090  1.3871 -2.6040 -1.1820
  101RES   H23142431   6.442   0.748   4.182 -3.5791  1.3090  3.2757
  101RES   H23242432   6.463   0.810   4.016  0.5222  1.3672  0.2100
  101RES   C23342433   6.217   1.456   4.256  0.0384 -0.2649  0.2877
  101RES   C23442434   6.250   1.610   4.255 -0.7884 -0.2050  0.5126
  101RES   C23542435   6.384   1.654   4.183  0.2517  0.3936  0.5066
  101RES   C23642436   6.436   1.792   4.235 -0.4460  0.0083  0.2318
  101RES   C23742437   6.585   1.818   4.182  1.0334 -0.0928  0.4239
  101RES   C23842438   6.668   1.925   4.255 -0.1488 -0.2201 -0.2268
  101RES   C23942439   6.816   1.916   4.211 -0.7098 -0.2429 -0.4274
  101RES   H24042440   6.110   1.453   4.276  0.0750  2.5142  1.0447
  101RES   H24142441   6.220   1.414   4.155 -0.2694 -0.9882  0.5793
  101RES   H24242442   6.258   1.647   4.358 -1.3505 -0.0774  0.5105
  101RES   H24342443   6.364   1.664   4.076  0.1463 -2.6679  0.1949
  101RES   H24442444   6.460   1.576   4.195 -1.3087 -1.2301  0.0760
  101RES   H24542445   6.449   1.788   4.343 -0.5928  1.0751  0.2926
  101RES   H24642446   6.371   1.873   4.204 -0.9354 -0.0208  1.1665
  101RES   H24742447   6.578   1.844   4.076  2.0308  2.3971  0.9171
  101RES   H24842448   6.628   1.718   4.174 -0.7340 -0.6928 -2.0239
  101RES   H24942449   6.643   2.028   4.229 -0.8235 -0.0191  1.1539
  101RES   H25042450   6.652   1.900   4.360  2.0512 -1.4776 -0.1751
  101RES   H25142451   6.878   1.990   4.262 -2.0943 -0.3430  1.4430
  101RES   H25242452   6.849   1.815   4.236 -1.2605 -0.1163  0.8079
  101RES   H25342453   6.842   1.932   4.106  3.2408 -1.7839  0.2363
  101RES   C25442454   6.133   1.696   4.199  0.1090 -0.3690  0.4201
  101RES   C25542455   6.013   1.707   4.297  0.3107  0.4401 -0.5225
  101RES   C25642456   5.878   1.724   4.226 -0.0154 -0.5003 -0.4246
  101RES   C25742457   5.860   1.848   4.146 -0.1385 -0.3238  0.0077
  101RES   C25842458   5.735   1.853   4.053 -0.1865 -0.3169  0.1732
  101RES   C25942459   5.736   1.986   3.974 -0.0180  0.6151  0.8263
  101RES   C26042460   5.589   2.025   3.928  0.0305  0.2348 -0.8443
  101RES   H26142461   6.097   1.659   4.103  1.9673  1.0530 -0.8427
  101RES   H26242462   6.164   1.799   4.180 -0.8991 -0.3683 -1.2844
  101RES   H26342463   6.005   1.615   4.354  1.9207  1.1929  0.9869
  101RES   H26442464   5.804   1.720   4.306  1.5327 -1.7523  0.9761
  101RES   H26542465   5.871   1.635   4.163 -0.3536  0.4523 -1.7631
  101RES   H26642466   5.861   1.935   4.213 -0.0013 -0.2725 -0.0604
  101RES   H26742467   5.949   1.856   4.084 -2.1531  0.7384 -2.8684
  101RES   H26842468   5.647   1.857   4.118  0.2512 -0.6474  0.7835
  101RES   H26942469   5.728   1.769   3.984 -0.7336  0.5716 -0.8684
  101RES   H27042470   5.769   2.058   4.049 -0.6334  0.3850  1.3275
  101RES   H27142471   5.810   1.983   3.895 -1.1925 -1.2525 -0.2264
  101RES   H27242472   5.535   1.955   3.865 -1.8632  0.7489  0.1858
  101RES   H27342473   5.525   2.023   4.016  0.6989 -2.5089 -0.3808
  101RES   H27442474   5.588   2.125   3.884  0.7047 -0.1268 -1.7047
  101RES   C27542475   6.031   1.817   4.413  0.3175  0.3451  0.4634
  101RES   C27642476   5.938   1.793   4.535  0.4026  0.3041 -0.1518
  101RES   C27742477   5.924   1.921   4.613  0.0641  0.3074  0.8453
  101RES   C27842478   5.848   2.036   4.552  0.1600 -0.5775  0.0625
  101RES   C27942479   5.843   2.161   4.638  0.1543 -0.0227 -0.3238
  101RES   C28042480   5.774   2.280   4.582  0.1817  0.0330  0.2400
  101RES   C28142481   5.744   2.379   4.686 -0.4828  1.1120 -0.1610
  101RES   H28242482   6.023   1.916   4.368  1.9115  0.7666  1.0722
  101RES   H28342483   6.133   1.819   4.450 -1.0757  2.1594  4.5105
  101RES   H28442484   5.841   1.771   4.491  0.5902 -2.3912  0.6735
  101RES   H28542485   5.870   1.896   4.704 -1.6200  0.9359  0.0415
  101RES   H28642486   6.025   1.955   4.633 -0.0401  3.2368 -2.9872
  101RES   H28742487   5.745   2.007   4.531  0.5599 -1.5158 -0.6538
  101RES   H28842488   5.892   2.082   4.463 -0.2202 -1.1213 -0.4176
  101RES   H28942489   5.944   2.190   4.667 -0.1255 -0.0702  0.7339
  101RES   H29042490   5.793   2.138   4.733  1.8793  1.4385  0.9626
  101RES   H29142491   5.834   2.325   4.504  1.6985 -2.7345 -0.2702
  101RES   H29242492   5.674   2.255   4.546  0.2038 -0.1905  0.3322
  101RES   H29342493   5.834   2.407   4.739 -1.7607 -0.3524  2.9365
  101RES   H29442494   5.672   2.349   4.763 -0.0148 -1.1427 -0.5667
  101RES   H29542495   5.700   2.470   4.646 -0.0337  1.7618  0.8018
  101RES   C29642496   5.986   1.668   4.621 -0.2094 -0.4009 -0.4032
  101RES   C29742497   5.878   1.598   4.698  0.1012 -0.0620  0.9862
  101RES   C29842498   5.954   1.510   4.793 -0.7866 -0.0184  0.7955
  101RES   C29942499   5.866   1.427   4.885  0.3385  0.1428 -0.8635
  101RES   C30042500   5.937   1.374   5.014 -0.2973 -0.6647 -0.1149
  101RES   C30142501   5.822   1.311   5.103  0.7983 -0.1860  0.5183
  101RES   C30242502   5.872   1.205   5.201 -0.3032 -0.0522 -0.2112
  101RES   H30342503   6.040   1.594   4.562  1.6226  0.4572  0.1518
  101RES   H30442504   6.057   1.710   4.693  0.2530  1.0396 -1.6645
  101RES   H30542505   5.824   1.677   4.751 -1.6607 -0.6955  0.1675
  101RES   H30642506   6.023   1.441   4.745  0.2209  0.3870  1.6461
  101RES   H30742507   6.020   1.570   4.856 -1.8980  1.6088  0.4500
  101RES   H30842508   5.840   1.338   4.828 -1.0538 -0.1196  0.1513
  101RES   H30942509   5.776   1.482   4.910 -0.0885 -0.1572 -1.7260
  101RES   H31042510   5.991   1.447   5.074  0.2147 -0.7098 -0.5228
  101RES   H31142511   6.002   1.289   4.997  2.7439  1.5346  0.1512
  101RES   H31242512   5.773   1.398   5.147  0.9408  0.1905 -0.0617
  101RES   H31342513   5.738   1.267   5.050  0.5266 -0.8634  1.4968
  101RES   H31442514   5.906   1.109   5.162 -1.2919 -0.8032  0.7458
  101RES   H31542515   5.959   1.233   5.261 -1.0045  0.4122  0.6060
  101RES   H31642516   5.789   1.182   5.268  0.2654 -1.9783 -0.1295
  101RES   C31742517   5.786   1.517   4.594  0.8077  0.2420 -0.3961
  101RES   C31842518   5.640   1.515   4.651  0.8907 -0.4096  0.3755
  101RES   C31942519   5.562   1.642   4.631 -0.7164  0.4977 -0.3294
  101RES   C32042520   5.563   1.742   4.750 -0.1583  0.3687 -0.2217
  101RES   C32142521   5.472   1.860   4.715  0.5991 -0.3871 -0.0268
  101RES   C32242522   5.478   1.969   4.823  0.3331 -0.0833 -0.2240
  101RES   C32342523   5.392   2.091   4.786  0.1030  0.0442  0.1301
  101RES   H32442524   5.824   1.417   4.579  2.5479  0.9511 -0.7792
  101RES   H32542525   5.782   1.559   4.494  0.1377  0.1102 -0.4257
  101RES   H32642526   5.633   1.497   4.758 -0.5051  2.5698  0.8145
  101RES   H32742527   5.460   1.618   4.603 -0.5392  0.7487 -1.2280
  101RES   H32842528   5.597   1.682   4.536 -0.4023 -1.2363 -0.9649
  101RES   H32942529   5.664   1.785   4.752 -0.1675  0.3837 -0.0714
  101RES   H33042530   5.527   1.694   4.841  0.4360 -0.9823 -0.6885
  101RES   H33142531   5.376   1.812   4.695  0.8408 -0.4778 -1.0193
  101RES   H33242532   5.496   1.910   4.621 -0.9322 -0.9376 -0.7378
  101RES   H33342533   5.582   2.003   4.827  0.4149 -0.3441 -0.1153
  101RES   H33442534   5.457   1.931   4.923 -0.6065  3.7506  1.1055
  101RES   H33542535   5.406   2.183   4.842 -1.7469  0.3004  0.2060
  101RES   H33642536   5.285   2.069   4.790  0.0690  0.0682 -0.5852
  101RES   H33742537   5.401   2.117   4.680 -0.1732 -1.1584 -0.2016
  101RES   C33842538   5.579   1.385   4.578  0.2123 -0.5020  0.1604
  101RES   C33942539   5.441   1.338   4.618  0.0323  0.5243 -0.1903
  101RES   C34042540   5.428   1.301   4.771  0.2525  0.3859 -0.1797
  101RES   C34142541   5.495   1.175   4.831  0.1595  0.2364  0.4539
  101RES   C34242542   5.474   1.146   4.979 -0.3888 -0.0938 -0.4430
  101RES   C34342543   5.538   1.016   5.028 -0.1486  0.1392 -0.0703
  101RES   C34442544   5.531   1.007   5.179 -0.1922 -0.1835 -0.6725
  101RES   H34542545   5.640   1.295   4.588  2.2130  0.6709 -1.0789
  101RES   H34642546   5.578   1.406   4.471  4.4341 -0.9035 -0.0317
  101RES   H34742547   5.381   1.426   4.597  3.0335  2.8183  0.5817
  101RES   H34842548   5.465   1.386   4.829 -0.3858  0.4733  0.1006
  101RES   H34942549   5.321   1.300   4.791  0.0237  0.9186 -1.3690
  101RES   H35042550   5.600   1.160   4.808  0.2077  1.3781 -0.0949
  101RES   H35142551   5.450   1.092   4.776  0.2299  0.1836  0.4766
  101RES   H35242552   5.484   1.231   5.046 -0.6607  1.1226 -1.9060
  101RES   H35342553   5.366   1.132   4.985 -0.4722  1.3140  1.5963
  101RES   H35442554   5.485   0.939   4.972  0.8864 -0.9137  0.3679
  101RES   H35542555   5.643   1.012   4.999 -0.2419 -2.9891 -0.0756
  101RES   H35642556   5.426   1.014   5.207 -0.0561  1.2914 -0.5225
  101RES   H35742557   5.583   1.088   5.229  0.6106 -0.2760 -1.3423
  101RES   H35842558   5.559   0.904   5.203  1.4648  0.7106  1.3431
  101RES   C35942559   5.385   1.231   4.523 -0.2175 -0.0392 -0.2230
  101RES   C36042560   5.238   1.194   4.546 -0.5283  0.5743  0.1613
  101RES   C36142561   5.155   1.325   4.537 -0.0222 -0.6399 -0.3556
  101RES   C36242562   5.168   1.406   4.403  0.2094 -0.3905 -0.0387
  101RES   C36342563   5.085   1.536   4.395  0.1544  0.4857 -0.7237
  101RES   C36442564   5.110   1.624   4.274 -0.3004  0.1461 -0.3661
  101RES   C36542565   5.238   1.707   4.294  0.3911 -0.7687  0.6653
  101RES   H36642566   5.453   1.146   4.526  2.1373  1.8312  0.7236
  101RES   H36742567   5.400   1.260   4.419 -0.9001  1.1139  0.0014
  101RES   H36842568   5.224   1.140   4.640  0.0489  0.0950 -0.0225
  101RES   H36942569   5.049   1.307   4.558  0.2805 -0.8943  1.0046
  101RES   H37042570   5.182   1.391   4.619 -0.7085  0.4952 -1.0261
  101RES   H37142571   5.270   1.440   4.386 -1.0694  2.4849 -2.6716
  101RES   H37242572   5.138   1.339   4.322  3.0279 -3.8862  1.7031
  101RES   H37342573   4.983   1.496   4.386  0.0238 -0.5767  4.1228
  101RES   H37442574   5.084   1.593   4.488  0.6893 -0.4313 -0.1485
  101RES   H37542575   5.116   1.557   4.188  2.8884  0.0695 -0.1621
  101RES   H37642576   5.020   1.683   4.257 -1.4075 -1.6222 -0.8529
  101RES   H37742577   5.329   1.668   4.340  0.5605 -2.0483 -0.6950
  101RES   H37842578   5.288   1.742   4.204  0.1542 -2.7787 -0.2954
  101RES   H37942579   5.216   1.796   4.352  0.4505 -1.3245  1.5527
  101RES   C38042580   5.197   1.098   4.439 -0.7404 -0.5875 -1.0958
  101RES   C38142581   5.261   0.953   4.440  0.3965 -0.3972  0.1956
  101RES   C38242582   5.170   0.861   4.526 -0.3260  0.5637 -0.6421
  101RES   C38342583   5.231   0.716   4.544 -0.4321 -0.8740  0.3702
  101RES   C38442584   5.148   0.645   4.644  0.0141  0.0587  0.5845
  101RES   C38542585   5.174   0.489   4.643  0.0688  0.0878 -0.7218
  101RES   C38642586   5.112   0.421   4.763 -0.2211 -0.7250 -0.7175
  101RES   H38742587   5.090   1.085   4.458 -0.2959 -1.4727  0.8347
  101RES   H38842588   5.212   1.145   4.342 -1.9182 -1.3631 -1.6753
  101RES   H38942589   5.357   0.959   4.492  0.4175  0.6534  0.0491
  101RES   H39042590   5.072   0.861   4.480 -0.9186  0.5339  0.6126
  101RES   H39142591   5.166   0.907   4.624 -0.5252 -0.7219 -0.0317
  101RES   H39242592   5.229   0.667   4.447 -1.7484 -0.7540  0.3307
  101RES   H39342593   5.333   0.720   4.584 -0.5298  1.2286  0.4603
  101RES   H39442594   5.169   0.693   4.739 -1.1456 -0.3966  1.0845
  101RES   H39542595   5.042   0.662   4.624  0.3948 -0.0848 -1.7093
  101RES   H39642596   5.281   0.469   4.641 -0.2912 -1.8877 -0.8981
  101RES   H39742597   5.142   0.443   4.550  1.4862 -2.0587 -0.1993
  101RES   H39842598   5.118   0.312   4.751  1.2237 -0.2832 -4.7026
  101RES   H39942599   5.010   0.441   4.798  0.5842  1.1245  0.6103
  101RES   H40042600   5.163   0.448   4.856  0.6266  0.8642 -1.6444
  101RES   C40142601   5.305   0.899   4.303 -0.1156 -0.4708  0.1697
  101RES   C40242602   5.437   0.977   4.250 -0.3891  0.1697  0.0037
  101RES   C40342603   5.564   0.930   4.309 -0.5634  0.4553  0.8691
  101RES   C40442604   5.688   1.009   4.271 -0.0825  0.2525  0.3040
  101RES   C40542605   5.709   1.147   4.341 -0.4286 -0.2007 -0.0176
  101RES   C40642606   5.859   1.184   4.338  0.1296 -0.2385 -0.5011
  101RES   C40742607   5.932   1.185   4.206 -0.8472  0.2632  0.7436
  101RES   H40842608   5.218   0.902   4.236 -0.8282  0.9197  1.1207
  101RES   H40942609   5.326   0.793   4.300  1.6766 -0.1035 -0.6544
  101RES   H41042610   5.409   1.082   4.260 -0.1242  0.1008  1.5219
  101RES   H41142611   5.569   0.825   4.284 -2.4805  0.3231  0.9261
  101RES   H41242612   5.551   0.915   4.416 -1.7501 -0.9602  0.5470
  101RES   H41342613   5.701   1.015   4.163 -1.3724  2.6395  0.2330
  101RES   H41442614   5.772   0.946   4.298  1.0354  1.5735 -0.0462
  101RES   H41542615   5.641   1.220   4.298  1.2034  0.5344 -1.3774
  101RES   H41642616   5.685   1.133   4.446  1.4383 -1.5498  0.2520
  101RES   H41742617   5.867   1.282   4.384  0.0646 -1.4246  2.1263
  101RES   H41842618   5.908   1.116   4.409  0.4047  1.4111  0.9133
  101RES   H41942619   5.864   1.224   4.131 -0.5762 -0.2074  0.2489
  101RES   H42042620   5.953   1.085   4.169  0.1876  1.0913 -0.9710
  101RES   H42142621   6.029   1.236   4.206 -0.5338 -0.3269  0.4465
  101RES   H42242622   5.438   0.962   4.142 -3.4906 -3.5226  0.4123
  102RES     C142623   3.829   6.260   4.709  0.1011 -0.2494  0.0100
  102RES     C242624   3.789   6.116   4.679  0.3178 -0.0701  0.7106
  102RES     C342625   3.826   6.068   4.535 -0.6758  0.4771 -0.4565
  102RES     C442626   3.976   6.079   4.509 -0.1898 -0.6210  0.4195
  102RES     C542627   4.027   6.024   4.372 -0.1704 -0.0053  0.3557
  102RES     C642628   4.033   6.128   4.260 -0.1178 -0.9407 -0.2972
  102RES     C742629   4.115   6.069   4.142 -0.0438 -0.3694  0.0076
  102RES     H842630   3.801   6.331   4.632 -1.9719 -0.0086  0.9761
  102RES     H942631   3.938   6.265   4.711  0.0421  0.7668  2.2103
  102RES    H1042632   3.833   6.044   4.748  1.4354  0.9953  1.1329
  102RES    H1142633   3.799   5.964   4.521  3.6615 -0.5607 -1.8481
  102RES    H1242634   3.765   6.119   4.461 -0.6159 -0.1782 -0.9617
  102RES    H1342635   4.000   6.185   4.517 -1.4796 -0.2636 -0.2955
  102RES    H1442636   4.019   6.054   4.606 -0.1380 -0.5383  0.4190
  102RES    H1542637   3.965   5.939   4.343  0.5120 -0.6380  0.7112
  102RES    H1642638   4.125   5.976   4.376 -1.1037 -1.8266  2.1341
  102RES    H1742639   4.075   6.227   4.275 -1.4383 -0.7047  2.0109
  102RES    H1842640   3.931   6.150   4.230 -0.8992  0.3419  3.0571
  102RES    H1942641   4.217   6.036   4.161  1.1071  3.2175  0.4216
  102RES    H2042642   4.125   6.153   4.073 -1.6294 -0.9307 -0.9356
  102RES    H2142643   4.064   5.988   4.090 -0.6446 -0.3500  0.5583
  102RES    H2242644   3.799   6.285   4.811 -0.0354 -1.3143  0.2381
  102RES    C2342645   3.633   6.116   4.712 -0.7665 -0.0996  0.1821
  102RES    C2442646   3.567   5.977   4.723  0.4151 -0.0435 -0.3820
  102RES    C2542647   3.421   5.985   4.688  0.2277  0.2867  0.1596
  102RES    C2642648   3.337   6.061   4.785 -0.7851 -0.4726 -0.2631
  102RES    C2742649   3.198   6.079   4.730 -0.4111 -0.5183  1.0752
  102RES    C2842650   3.087   6.099   4.843 -0.3266  0.6084  0.2225
  102RES    C2942651   3.075   6.240   4.913 -0.0963  0.2905 -0.0414
  102RES    H3042652   3.617   6.158   4.811  3.2054  1.3773  0.2666
  102RES    H3142653   3.573   6.174   4.641 -1.4600 -0.0021  0.8388
  102RES    H3242654   3.612   5.929   4.636  0.6960 -0.6015  0.0696
  102RES    H3342655   3.382   5.883   4.677 -0.3000  0.4904  0.1363
  102RES    H3442656   3.417   6.038   4.593  2.5579  2.1642  1.0815
  102RES    H3542657   3.379   6.159   4.809  1.0213 -1.3794  0.2623
  102RES    H3642658   3.330   6.006   4.879  0.5391 -2.4862 -1.3105
  102RES    H3742659   3.168   5.986   4.682  0.9189  0.8877 -2.6791
  102RES    H3842660   3.204   6.154   4.651 -0.9395 -1.0036  0.5749
  102RES    H3942661   3.125   6.031   4.919  2.2292 -0.9614 -2.3854
  102RES    H4042662   2.992   6.067   4.802  0.6959 -1.9037 -0.2925
  102RES    H4142663   3.021   6.313   4.852 -0.2956 -2.2119 -3.0114
  102RES    H4242664   3.038   6.218   5.013  2.6321  0.5722  1.0822
  102RES    H4342665   3.173   6.283   4.934 -0.1583 -0.7403  2.5012
  102RES    C4442666   3.600   5.883   4.841  0.4474  0.2673  0.4086
  102RES    C4542667   3.576   5.736   4.812 -0.2059  0.0422  0.8261
  102RES    C4642668   3.716   5.667   4.815 -0.6224  0.0024  0.4391
  102RES    C4742669   3.806   5.689   4.693 -1.0160  0.0337 -0.1732
  102RES    C4842670   3.945   5.654   4.729  0.2297 -0.2248  0.0164
  102RES    C4942671   4.047   5.696   4.609 -0.2258  0.2918  0.2258
  102RES    C5042672   4.165   5.600   4.609 -0.7361 -0.2816  0.5340
  102RES    H5142673   3.539   5.914   4.926  0.1840  0.6841  0.0688
  102RES    H5242674   3.699   5.887   4.887 -0.7018  3.7735  2.8387
  102RES    H5342675   3.544   5.719   4.710  1.1932 -1.6679  0.6396
  102RES    H5442676   3.700   5.560   4.827 -0.1851 -0.3951 -2.2009
  102RES    H5542677   3.770   5.697   4.904  1.3989 -0.1145 -0.7192
  102RES    H5642678   3.767   5.626   4.613 -1.3443 -0.8750  0.6869
  102RES    H5742679   3.800   5.791   4.656  3.3499  0.1323 -0.8601
  102RES    H5842680   3.945   5.547   4.748  0.6571 -0.3603 -0.7452
  102RES    H5942681   3.991   5.695   4.819 -2.1955  0.8060  0.8498
  102RES    H6042682   4.089   5.793   4.635  0.4672 -0.1663  0.8383
  102RES    H6142683   3.999   5.703   4.512  2.5940  0.7430 -1.1864
  102RES    H6242684   4.141   5.495   4.593  0.4042 -0.4834  0.1525
  102RES    H6342685   4.221   5.604   4.703  0.3262 -2.3687  0.0224
  102RES    H6442686   4.229   5.632   4.527 -0.0979  1.2264  1.5848
  102RES    C6542687   3.472   5.675   4.909 -0.3564  0.7784  0.2033
  102RES    C6642688   3.403   5.555   4.834  0.3023 -0.2478  0.0389
  102RES    C6742689   3.302   5.597   4.725  0.9553  0.4525 -0.0884
  102RES    C6842690   3.167   5.649   4.769  0.2216 -0.0897 -0.2108
  102RES    C6942691   3.086   5.703   4.649 -0.6098  0.1313 -0.0444
  102RES    C7042692   2.937   5.722   4.667  0.6360 -0.1269  0.0551
  102RES    C7142693   2.885   5.808   4.555 -0.5108 -0.5689  0.3248
  102RES    H7242694   3.523   5.636   4.996  1.7221  1.1386 -0.8200
  102RES    H7342695   3.402   5.748   4.948  0.6111  0.6267  2.2775
  102RES    H7442696   3.481   5.498   4.782 -0.2756 -1.7452  0.7787
  102RES    H7542697   3.347   5.659   4.648 -0.5938  0.9583 -0.5828
  102RES    H7642698   3.281   5.506   4.670  2.2135 -0.6081  1.1474
  102RES    H7742699   3.120   5.564   4.818  0.9513  0.5267  1.6111
  102RES    H7842700   3.173   5.722   4.850  0.6269 -0.3745  0.0190
  102RES    H7942701   3.139   5.784   4.598 -0.3173 -0.3107 -0.4403
  102RES    H8042702   3.092   5.625   4.573  3.1254  1.5019 -1.2924
  102RES    H8142703   2.942   5.772   4.764  0.2801  0.4538 -0.2245
  102RES    H8242704   2.888   5.625   4.679 -1.2318  1.0033  1.9813
  102RES    H8342705   2.932   5.906   4.557  4.4851 -2.8052 -0.5166
  102RES    H8442706   2.882   5.765   4.455  0.7608  3.9636 -1.7926
  102RES    H8542707   2.779   5.828   4.570 -0.9922 -2.3126 -0.6300
  102RES    C8642708   3.331   5.461   4.940  0.0461 -0.4572 -0.3659
  102RES    C8742709   3.428   5.363   5.006 -0.0088  0.0880 -0.3124
  102RES    C8842710   3.378   5.308   5.140  0.1267  0.6498  0.3832
  102RES    C8942711   3.377   5.411   5.255 -0.1793 -0.2532  0.6797
  102RES    C9042712   3.378   5.344   5.394  1.1624  0.5183 -0.2710
  102RES    C9142713   3.242   5.277   5.428 -0.3403 -0.4761 -0.3328
  102RES    C9242714   3.224   5.220   5.563  0.1520  0.0195 -0.6117
  102RES    H9342715   3.299   5.535   5.013  0.2679  0.3380 -1.0774
  102RES    H9442716   3.242   5.407   4.908  0.4636 -0.3381 -1.7517
  102RES    H9542717   3.524   5.410   5.027 -0.4289  0.2170  1.3242
  102RES    H9642718   3.273   5.282   5.122  0.7256 -0.0593 -2.2973
  102RES    H9742719   3.428   5.214   5.161 -1.2014 -0.4208 -1.1143
  102RES    H9842720   3.465   5.474   5.252  1.3506 -2.3666 -0.0355
  102RES    H9942721   3.296   5.481   5.234 -0.1529 -0.1761  0.8363
  102RES   H10042722   3.403   5.413   5.475  0.5008  1.7991 -1.1344
  102RES   H10142723   3.451   5.264   5.398  2.2344  1.4881 -0.0305
  102RES   H10242724   3.155   5.341   5.410  0.9620  1.0899 -1.1548
  102RES   H10342725   3.217   5.196   5.360  1.1996  0.8637 -2.5226
  102RES   H10442726   3.297   5.141   5.576  0.5418  0.5367  0.3629
  102RES   H10542727   3.120   5.192   5.582  0.6054 -1.0775  0.3083
  102RES   H10642728   3.252   5.294   5.638  0.3192  0.0144 -0.6683
  102RES   C10742729   3.457   5.243   4.907 -0.2149  0.0996 -0.5448
  102RES   C10842730   3.594   5.176   4.909 -0.0825 -0.5650  0.1607
  102RES   C10942731   3.581   5.050   4.821 -0.2080  0.2264  0.5524
  102RES   C11042732   3.524   4.929   4.901  0.0164  0.6081  0.0322
  102RES   C11142733   3.494   4.814   4.799 -0.1211  0.1030 -0.0485
  102RES   C11242734   3.455   4.680   4.872  0.0675  1.1395  0.5945
  102RES   C11342735   3.445   4.566   4.766  0.0550  0.4499  0.1338
  102RES   H11442736   3.441   5.279   4.805 -1.9610 -0.0183 -0.3186
  102RES   H11542737   3.381   5.167   4.923  0.6863 -0.6391  0.2382
  102RES   H11642738   3.612   5.138   5.010 -1.1323 -0.1458  0.5081
  102RES   H11742739   3.674   5.023   4.770 -0.5170 -0.3011  0.2589
  102RES   H11842740   3.521   5.077   4.734  1.0674 -2.0827 -1.1198
  102RES   H11942741   3.578   4.897   4.990 -1.0955  2.5470  1.4486
  102RES   H12042742   3.425   4.955   4.938 -1.2948 -0.7462 -2.4343
  102RES   H12142743   3.578   4.800   4.731  0.0163 -1.4146  0.4271
  102RES   H12242744   3.426   4.847   4.719  0.2293  1.8868  0.3572
  102RES   H12342745   3.517   4.657   4.958  0.8770 -0.4309 -0.3703
  102RES   H12442746   3.359   4.691   4.921 -0.6339  1.9346 -0.8945
  102RES   H12542747   3.367   4.588   4.694  3.2387  1.5881 -3.1376
  102RES   H12642748   3.537   4.566   4.708  0.1928  1.0933  0.3569
  102RES   H12742749   3.427   4.470   4.815  3.1589 -0.5006 -0.4417
  102RES   C12842750   3.713   5.266   4.862  0.2767  0.4029 -0.4270
  102RES   C12942751   3.858   5.216   4.897  0.5956  0.2874  0.3573
  102RES   C13042752   3.907   5.291   5.028 -0.1673  0.0293  0.3723
  102RES   C13142753   3.847   5.245   5.158  0.1292  0.2032 -0.3383
  102RES   C13242754   3.921   5.287   5.279  0.5668 -0.2733  0.1153
  102RES   C13342755   3.834   5.260   5.406  0.2131  0.2342 -0.3582
  102RES   C13442756   3.896   5.320   5.528 -0.2929 -0.2032  0.2699
  102RES   H13542757   3.701   5.282   4.755  1.0732 -0.2431 -0.6181
  102RES   H13642758   3.693   5.366   4.902  0.6371 -0.2626  1.4616
  102RES   H13742759   3.850   5.107   4.907  1.9108  0.0676 -0.7963
  102RES   H13842760   3.889   5.397   5.010  0.5827 -0.0941 -1.1276
  102RES   H13942761   4.015   5.293   5.035 -0.2637  4.1715  2.9185
  102RES   H14042762   3.847   5.136   5.157 -1.9570  0.1730 -1.9229
  102RES   H14142763   3.743   5.280   5.158  0.0537 -0.0216  0.6883
  102RES   H14242764   3.926   5.396   5.279  0.5180 -0.2713  0.3360
  102RES   H14342765   4.015   5.232   5.282  1.1205  0.4646 -2.2442
  102RES   H14442766   3.814   5.154   5.418  2.8060 -0.1774  0.5976
  102RES   H14542767   3.736   5.305   5.386 -1.4272 -2.5931  1.0428
  102RES   H14642768   3.980   5.259   5.560 -1.1829 -0.5603  1.9391
  102RES   H14742769   3.821   5.313   5.606 -0.8371  0.5292 -0.1741
  102RES   H14842770   3.926   5.425   5.528  0.3058 -0.3070 -2.8792
  102RES   C14942771   3.953   5.235   4.767  0.5749 -0.0553 -0.5704
  102RES   C15042772   3.973   5.104   4.684 -0.8590  0.1694  0.1910
  102RES   C15142773   4.075   5.004   4.741 -0.0628 -0.3048 -0.7885
  102RES   C15242774   4.043   4.852   4.729  0.1067  0.0846  0.4044
  102RES   C15342775   3.908   4.794   4.781 -0.2487 -0.1141 -0.0454
  102RES   C15442776   3.864   4.663   4.723 -0.1599 -0.0117 -0.1100
  102RES   C15542777   3.941   4.541   4.783 -0.2323 -0.1542 -0.5079
  102RES   H15642778   3.914   5.314   4.703  0.6923 -0.5985 -1.3238
  102RES   H15742779   4.043   5.291   4.790 -0.1747  0.1431  2.0183
  102RES   H15842780   3.873   5.062   4.685 -0.4519 -0.8522 -0.2208
  102RES   H15942781   4.176   5.019   4.703  1.0096 -1.7574  1.3886
  102RES   H16042782   4.076   5.022   4.849  1.1110  0.4039 -0.9043
  102RES   H16142783   4.121   4.810   4.793  0.6085  1.3315  0.6187
  102RES   H16242784   4.072   4.817   4.630  0.9453 -1.2283  1.1001
  102RES   H16342785   3.833   4.872   4.777  0.5820  0.8331  1.9228
  102RES   H16442786   3.922   4.778   4.888  1.2725  1.7323  0.0637
  102RES   H16542787   3.884   4.675   4.616  0.4396  0.8816  0.0960
  102RES   H16642788   3.758   4.650   4.745 -0.8643  0.0835 -3.2307
  102RES   H16742789   4.049   4.539   4.770 -0.1650  0.5561 -0.0719
  102RES   H16842790   3.900   4.450   4.738 -0.4547 -0.0450 -0.5252
  102RES   H16942791   3.916   4.535   4.889 -0.5549 -1.2052 -0.6351
  102RES   C17042792   4.007   5.139   4.535 -0.1046  0.5468 -0.2354
  102RES   C17142793   3.970   5.030   4.434 -0.6288 -0.0149 -0.0622
  102RES   C17242794   3.822   5.061   4.406 -0.1072 -0.7672  0.1058
  102RES   C17342795   3.737   4.944   4.408  0.1141 -0.4315 -0.3039
  102RES   C17442796   3.591   4.982   4.396  0.0853  0.2932 -0.0503
  102RES   C17542797   3.511   4.854   4.365 -0.4600  0.4509  0.1122
  102RES   C17642798   3.363   4.867   4.400  0.6145 -0.5405 -0.8337
  102RES   H17742799   4.112   5.160   4.516 -0.0483 -0.4450 -1.0531
  102RES   H17842800   3.952   5.230   4.510  0.0328  0.0921 -2.2177
  102RES   H17942801   3.975   4.931   4.479 -1.6207 -0.3638 -0.7231
  102RES   H18042802   3.814   5.111   4.310 -2.2680 -3.4461 -1.1784
  102RES   H18142803   3.769   5.124   4.477  0.8273  1.1308 -0.8618
  102RES   H18242804   3.766   4.877   4.489  0.3501  0.0217 -0.0171
  102RES   H18342805   3.754   4.878   4.322 -0.7332 -0.3661 -0.5263
  102RES   H18442806   3.571   5.064   4.327 -3.2934 -0.2684  0.2009
  102RES   H18542807   3.561   5.021   4.494  0.7021 -3.4232  1.6841
  102RES   H18642808   3.538   4.782   4.442  0.4704  0.1097 -0.5288
  102RES   H18742809   3.526   4.812   4.266  0.9567  1.4254 -0.0978
  102RES   H18842810   3.333   4.897   4.500  0.9568  1.0503 -1.1953
  102RES   H18942811   3.316   4.769   4.392 -1.2533  0.0829  2.0035
  102RES   H19042812   3.308   4.931   4.331  0.4654 -0.0162 -0.2220
  102RES   C19142813   4.055   5.023   4.310 -0.0670  0.3007  0.3869
  102RES   C19242814   4.211   5.004   4.321  0.4732  0.3896 -0.2223
  102RES   C19342815   4.239   4.870   4.388  0.6862 -0.1443 -0.1245
  102RES   C19442816   4.366   4.863   4.469  0.0432 -0.1522 -0.2008
  102RES   C19542817   4.391   4.724   4.524  0.2982 -0.4374  0.1113
  102RES   C19642818   4.524   4.724   4.602  0.3121 -0.8676  0.2562
  102RES   C19742819   4.561   4.588   4.671  0.9456 -0.3612 -0.8765
  102RES   H19842820   4.028   5.107   4.246  0.6106  0.3651  0.1889
  102RES   H19942821   4.017   4.940   4.251  1.1919  0.6955 -0.9961
  102RES   H20042822   4.255   5.088   4.375  2.6401 -1.0545  0.3404
  102RES   H20142823   4.261   4.795   4.312 -1.5701 -0.9149 -0.0600
  102RES   H20242824   4.152   4.828   4.439 -0.2438  1.3836 -0.4346
  102RES   H20342825   4.349   4.930   4.553 -0.6376 -0.8926  0.2654
  102RES   H20442826   4.448   4.905   4.412 -0.9859  0.0589 -1.5347
  102RES   H20542827   4.308   4.703   4.591  0.3766 -1.0459  0.0164
  102RES   H20642828   4.389   4.649   4.445  2.5779 -0.7069  0.2641
  102RES   H20742829   4.529   4.804   4.676 -1.2837  0.0841 -0.6365
  102RES   H20842830   4.602   4.763   4.536 -1.0955  2.3652  0.4214
  102RES   H20942831   4.661   4.592   4.715  1.6004 -0.4090 -2.3077
  102RES   H21042832   4.564   4.514   4.591  0.4445  0.6802 -1.8863
  102RES   H21142833   4.481   4.558   4.738 -0.1922  0.7667 -1.7078
  102RES   C21242834   4.267   5.015   4.183  0.1730 -0.6505  0.0218
  102RES   C21342835   4.420   5.031   4.162  0.2371  0.2449  0.2329
  102RES   C21442836   4.438   5.035   4.004 -0.5381 -0.5638 -1.1168
  102RES   C21542837   4.449   4.894   3.943 -0.1779  0.4369 -0.2934
  102RES   C21642838   4.561   4.860   3.844  0.1968 -0.4107  0.4770
  102RES   C21742839   4.590   4.712   3.831  0.0319 -0.9086  0.4741
  102RES   C21842840   4.706   4.681   3.739 -0.4201  1.2762  0.1820
  102RES   H21942841   4.227   5.100   4.127 -1.2604 -1.2325  0.1512
  102RES   H22042842   4.234   4.933   4.120 -1.5486  1.0893 -1.4046
  102RES   H22142843   4.471   4.941   4.198 -0.7246 -0.4807 -0.1980
  102RES   H22242844   4.353   5.083   3.955  0.8525  1.3155 -1.7295
  102RES   H22342845   4.524   5.094   3.972  1.4132 -3.2498 -1.0218
  102RES   H22442846   4.354   4.863   3.898 -1.0180  3.1899 -0.4740
  102RES   H22542847   4.458   4.821   4.024  1.5673 -1.2127 -1.9293
  102RES   H22642848   4.551   4.910   3.748  3.3176  1.9750  1.2891
  102RES   H22742849   4.646   4.906   3.895 -0.4132 -1.0355  2.0936
  102RES   H22842850   4.625   4.680   3.930  0.3197 -0.9814  0.3478
  102RES   H22942851   4.499   4.656   3.806  0.9634 -2.6438  0.8611
  102RES   H23042852   4.684   4.695   3.633  2.3572 -1.4245 -0.8271
  102RES   H23142853   4.749   4.581   3.742 -0.3642  1.3515  2.9518
  102RES   H23242854   4.787   4.752   3.758 -0.6755  1.9109 -1.0504
  102RES   C23342855   4.475   5.154   4.237 -0.0703  0.5768  0.2855
  102RES   C23442856   4.630   5.161   4.263 -0.5824  0.2648 -0.4078
  102RES   C23542857   4.723   5.087   4.162 -0.2689  0.9697  0.1676
  102RES   C23642858   4.874   5.085   4.192 -0.2923  0.7685 -0.3077
  102RES   C23742859   4.920   5.038   4.332  0.2355 -0.5828 -0.4086
  102RES   C23842860   5.073   5.049   4.337  0.0088 -0.0174 -0.0484
  102RES   C23942861   5.130   5.046   4.480 -0.2994  0.3152  0.0714
  102RES   H24042862   4.426   5.175   4.332 -0.4029 -1.5110  0.5922
  102RES   H24142863   4.446   5.237   4.173  0.9340  2.3060  1.9944
  102RES   H24242864   4.636   5.094   4.349 -0.7949  0.3021 -0.3632
  102RES   H24342865   4.714   5.121   4.059  2.5195  0.7381 -0.1885
  102RES   H24442866   4.695   4.982   4.148 -1.3901  1.0616  1.6133
  102RES   H24542867   4.919   5.184   4.194  0.1191  0.5775 -0.2150
  102RES   H24642868   4.922   5.023   4.117  0.4285  1.5353 -0.4862
  102RES   H24742869   4.883   4.939   4.358 -2.2159  0.5848  0.6477
  102RES   H24842870   4.868   5.105   4.400  1.0072 -2.3019  1.9520
  102RES   H24942871   5.111   4.965   4.279  0.0397 -0.5122  0.6793
  102RES   H25042872   5.105   5.142   4.291  3.7565 -0.2972  1.7435
  102RES   H25142873   5.239   5.051   4.476 -0.0407 -2.2272  2.5385
  102RES   H25242874   5.110   5.129   4.547  0.5209  1.1087 -0.6508
  102RES   H25342875   5.110   4.956   4.538  2.5534  0.5069  1.4564
  102RES   C25442876   4.670   5.306   4.292  0.1759 -0.4981 -0.7518
  102RES   C25542877   4.585   5.386   4.402  0.1018 -0.0077  0.2481
  102RES   C25642878   4.575   5.317   4.541 -0.0770 -0.3132 -1.0382
  102RES   C25742879   4.698   5.289   4.628 -0.8820  0.0058  0.2609
  102RES   C25842880   4.784   5.407   4.678 -0.3778  0.0629 -0.6870
  102RES   C25942881   4.706   5.535   4.726 -0.2548 -0.3661  0.1538
  102RES   C26042882   4.599   5.503   4.836  0.0178 -0.9379 -0.4653
  102RES   H26142883   4.672   5.375   4.208  3.6786  1.5735  0.9201
  102RES   H26242884   4.774   5.308   4.324 -0.1070  1.8577  0.1315
  102RES   H26342885   4.655   5.467   4.422  2.7515 -1.9213 -0.8933
  102RES   H26442886   4.527   5.220   4.531  3.1105 -1.7872 -2.6334
  102RES   H26542887   4.502   5.379   4.593  2.1717  2.3562 -0.9391
  102RES   H26642888   4.667   5.230   4.715  1.7179 -1.9066 -0.0443
  102RES   H26742889   4.759   5.210   4.584  0.5364  1.1564  0.1049
  102RES   H26842890   4.849   5.426   4.592  2.0642 -1.4149  0.7584
  102RES   H26942891   4.850   5.373   4.758  0.0660 -1.0586 -1.5122
  102RES   H27042892   4.776   5.610   4.762 -1.5632  1.6855 -1.4768
  102RES   H27142893   4.656   5.580   4.640  1.0982 -2.1860 -1.6389
  102RES   H27242894   4.651   5.491   4.931  1.7271  1.0350 -1.1245
  102RES   H27342895   4.529   5.585   4.841  0.0139 -0.9869  0.3371
  102RES   H27442896   4.545   5.410   4.817 -2.6849  0.5324 -0.0663
  102RES   C27542897   4.457   5.464   4.353 -0.6602  0.2345  0.0161
  102RES   C27642898   4.464   5.566   4.239  0.1160  0.5313 -0.8659
  102RES   C27742899   4.571   5.669   4.256  0.3006 -0.4944  0.3369
  102RES   C27842900   4.570   5.756   4.392  0.3015 -0.2189  0.2776
  102RES   C27942901   4.512   5.893   4.361 -0.4131  0.4569  0.7432
  102RES   C28042902   4.614   5.991   4.316  0.2281 -0.8204  0.4533
  102RES   C28142903   4.558   6.136   4.301 -0.2722  0.2687  0.8183
  102RES   H28242904   4.430   5.512   4.447 -2.5968 -1.0062  0.1126
  102RES   H28342905   4.376   5.394   4.334  0.9096 -1.4774 -0.5486
  102RES   H28442906   4.489   5.514   4.146  3.1006  0.3722 -0.0400
  102RES   H28542907   4.671   5.625   4.248  0.7718 -0.1599  3.5459
  102RES   H28642908   4.573   5.738   4.172  1.5576 -2.3450 -1.2201
  102RES   H28742909   4.675   5.766   4.420 -0.0693  1.5044  1.1584
  102RES   H28842910   4.510   5.716   4.474  0.3883  1.3674  1.1458
  102RES   H28942911   4.473   5.945   4.449  2.4457  3.4576  0.3358
  102RES   H29042912   4.429   5.885   4.292 -0.9188 -1.2036  1.5067
  102RES   H29142913   4.699   5.988   4.385  0.3289 -0.2597  0.3579
  102RES   H29242914   4.659   5.961   4.221 -0.5695 -1.4763  0.2752
  102RES   H29342915   4.499   6.144   4.210 -0.5260 -1.3262  0.8243
  102RES   H29442916   4.646   6.197   4.280 -0.9967  0.0423 -3.3899
  102RES   H29542917   4.511   6.173   4.392 -3.0687 -2.4350  0.5595
  102RES   C29642918   4.331   5.636   4.221 -0.2797 -0.5992 -0.3301
  102RES   C29742919   4.204   5.558   4.173 -0.7282 -0.4700 -0.0876
  102RES   C29842920   4.232   5.442   4.072 -0.2637  0.0860 -0.2560
  102RES   C29942921   4.277   5.490   3.936  0.7548 -0.6039 -0.8153
  102RES   C30042922   4.300   5.363   3.856  0.1634 -0.3008 -0.2899
  102RES   C30142923   4.320   5.392   3.709  0.3717 -0.1173  0.0662
  102RES   C30242924   4.337   5.272   3.616 -0.3907  0.1141 -0.2731
  102RES   H30342925   4.296   5.684   4.312 -0.1979  1.1907 -1.2259
  102RES   H30442926   4.345   5.717   4.149 -0.1036 -0.9965 -0.7457
  102RES   H30542927   4.172   5.497   4.257 -0.4654  2.3805  2.1886
  102RES   H30642928   4.305   5.376   4.118 -1.9921 -0.7482  1.3443
  102RES   H30742929   4.139   5.385   4.067 -1.4227  1.6466  2.1098
  102RES   H30842930   4.362   5.557   3.941  1.5842 -1.7190  0.5028
  102RES   H30942931   4.196   5.543   3.887  0.3539 -0.0222  0.4473
  102RES   H31042932   4.224   5.286   3.871 -0.2893  0.5613  2.1440
  102RES   H31142933   4.395   5.321   3.889 -0.5874  1.2827  4.3728
  102RES   H31242934   4.232   5.448   3.679  1.1583  1.1283  0.0804
  102RES   H31342935   4.407   5.454   3.691  0.1808 -0.3940 -1.9443
  102RES   H31442936   4.435   5.229   3.637 -0.3860  0.5961  0.7388
  102RES   H31542937   4.274   5.187   3.645  2.7591 -2.1133  0.3251
  102RES   H31642938   4.322   5.297   3.511 -3.2785 -1.3133 -0.2554
  102RES   C31742939   4.092   5.658   4.139 -1.0012  0.7608  0.3291
  102RES   C31842940   3.954   5.596   4.131 -0.2382 -0.2904 -0.3973
  102RES   C31942941   3.897   5.558   4.270  0.2262  0.0028 -0.9888
  102RES   C32042942   3.769   5.471   4.258 -0.2040 -0.0220  0.0332
  102RES   C32142943   3.708   5.437   4.396  0.0856  0.0094  0.0477
  102RES   C32242944   3.574   5.375   4.374 -0.3947 -0.4213  0.0191
  102RES   C32342945   3.502   5.327   4.504  0.0432 -0.0174  0.3903
  102RES   H32442946   4.113   5.697   4.039 -0.7399 -0.1828  0.0127
  102RES   H32542947   4.095   5.733   4.218 -2.8098 -0.5815  1.6959
  102RES   H32642948   3.959   5.510   4.064  0.4869 -0.6764  0.1446
  102RES   H32742949   3.889   5.651   4.327  0.2481 -1.5471  1.6119
  102RES   H32842950   3.973   5.498   4.320  0.4575  1.1021 -0.0177
  102RES   H32942951   3.785   5.386   4.192  1.3031  0.9463 -0.8803
  102RES   H33042952   3.688   5.531   4.217  0.2263  1.7345  1.6357
  102RES   H33142953   3.689   5.534   4.442  1.3607 -1.1349  3.0964
  102RES   H33242954   3.782   5.392   4.461  1.1507  1.8695  0.1508
  102RES   H33342955   3.599   5.289   4.312 -1.6071 -0.8437  0.1041
  102RES   H33442956   3.509   5.442   4.317  0.7578  1.2053  0.5546
  102RES   H33542957   3.574   5.254   4.543 -0.7166 -0.9911 -0.0052
  102RES   H33642958   3.410   5.272   4.485  0.1686 -0.6989  1.7117
  102RES   H33742959   3.479   5.402   4.578  0.3831 -0.3926  0.8807
  102RES   C33842960   3.864   5.703   4.066  0.1028 -0.0861 -1.3075
  102RES   C33942961   3.785   5.649   3.939  0.5086  0.3940  0.0442
  102RES   C34042962   3.882   5.631   3.822  0.0605 -0.5762  0.5666
  102RES   C34142963   3.940   5.743   3.735 -0.3164  0.6347 -0.9081
  102RES   C34242964   4.027   5.683   3.618  0.0222 -0.3940 -1.3583
  102RES   C34342965   3.945   5.599   3.517 -0.4413 -0.3594  0.1681
  102RES   C34442966   4.023   5.551   3.391 -0.5559  0.3755 -0.1772
  102RES   H34542967   3.918   5.792   4.033  1.0839 -0.4069 -0.5830
  102RES   H34642968   3.794   5.742   4.140  0.7837 -0.3685 -0.5080
  102RES   H34742969   3.754   5.555   3.986 -0.4826  1.0433  0.7003
  102RES   H34842970   3.968   5.569   3.844  0.2444 -1.3477 -2.1577
  102RES   H34942971   3.825   5.569   3.753  1.2316 -0.2431 -0.7319
  102RES   H35042972   4.009   5.802   3.795  0.4530 -2.1557  1.0784
  102RES   H35142973   3.859   5.805   3.697 -0.1757  0.6659 -1.1584
  102RES   H35242974   4.094   5.761   3.581 -1.2768  1.8877  0.9145
  102RES   H35342975   4.098   5.621   3.674 -1.9792 -0.2401  1.4593
  102RES   H35442976   3.909   5.500   3.544 -1.5330  0.2751  1.0835
  102RES   H35542977   3.853   5.653   3.491  0.3266  0.7089 -0.3856
  102RES   H35642978   4.113   5.502   3.429  0.4606 -0.9262 -4.0169
  102RES   H35742979   4.052   5.632   3.324  0.8065  0.1056  0.0718
  102RES   H35842980   3.972   5.476   3.329 -1.1647 -0.6138  1.4789
  102RES   C35942981   3.655   5.726   3.904 -0.2476  0.1473 -0.3620
  102RES   C36042982   3.566   5.661   3.792  0.2086  0.1937 -0.1972
  102RES   C36142983   3.537   5.516   3.825  0.4116  0.2840  0.6171
  102RES   C36242984   3.459   5.479   3.959  0.4695 -1.1228  0.7701
  102RES   C36342985   3.431   5.327   3.980 -0.2721  0.3773  0.0789
  102RES   C36442986   3.332   5.306   4.096  0.3574  0.2806 -0.0349
  102RES   C36542987   3.315   5.162   4.117  0.0596 -0.0072 -0.0753
  102RES   H36642988   3.686   5.825   3.871 -0.9645  0.3342 -0.4746
  102RES   H36742989   3.598   5.736   3.995  0.5070 -2.4984  0.4590
  102RES   H36842990   3.625   5.663   3.701 -0.2084  0.3831 -0.4662
  102RES   H36942991   3.496   5.467   3.736  2.2935 -0.9834  0.4240
  102RES   H37042992   3.630   5.459   3.829  1.1855  1.5128  0.4057
  102RES   H37142993   3.523   5.517   4.039  2.3278 -1.2280 -0.6409
  102RES   H37242994   3.366   5.536   3.963  0.5926 -0.7694 -0.9566
  102RES   H37342995   3.383   5.276   3.896 -1.5399  1.4029  0.1586
  102RES   H37442996   3.526   5.279   4.002 -0.3785 -0.1126 -0.5202
  102RES   H37542997   3.368   5.353   4.187 -3.1521  2.0089  0.5343
  102RES   H37642998   3.239   5.360   4.079  0.5087  1.1312  1.7179
  102RES   H37742999   3.260   5.143   4.209  0.9524  3.6393  1.3128
  102RES   H37843000   3.257   5.125   4.032  2.1460 -1.8784 -0.7185
  102RES   H37943001   3.406   5.104   4.131 -0.1454 -0.7069 -1.5330
  102RES   C38043002   3.425   5.739   3.780 -1.0778 -0.0303  0.3262
  102RES   C38143003   3.333   5.691   3.662 -0.0643 -0.1261 -0.1628
  102RES   C38243004   3.185   5.736   3.675 -0.2160  0.1169 -0.5014
  102RES   C38343005   3.158   5.889   3.681 -0.6614 -0.1154 -0.5193
  102RES   C38443006   3.014   5.936   3.712  0.0752 -0.3065 -0.6093
  102RES   C38543007   2.978   5.927   3.860 -0.1428 -0.1000  0.4140
  102RES   C38643008   2.831   5.965   3.880  0.4579  0.5445 -0.3154
  102RES   H38743009   3.370   5.735   3.875 -1.3343 -1.9179  0.1076
  102RES   H38843010   3.445   5.845   3.761  0.5733 -0.6110 -1.3203
  102RES   H38943011   3.326   5.583   3.651 -3.3326  0.2161 -2.1631
  102RES   H39043012   3.147   5.689   3.766 -0.7855 -0.2562 -0.9275
  102RES   H39143013   3.129   5.688   3.594 -0.5769 -0.6132  0.1642
  102RES   H39243014   3.235   5.944   3.735 -0.2158 -1.8948  0.7118
  102RES   H39343015   3.167   5.926   3.579  2.6319 -0.6868 -0.4886
  102RES   H39443016   3.001   6.039   3.677 -1.4414 -0.7709 -1.4596
  102RES   H39543017   2.935   5.880   3.662 -0.2669  0.5925 -1.0907
  102RES   H39643018   3.042   5.977   3.933 -2.1329  2.1457  0.6643
  102RES   H39743019   2.990   5.820   3.877  0.8874 -0.0151  0.2603
  102RES   H39843020   2.819   6.073   3.866  1.4708  0.5534 -1.2108
  102RES   H39943021   2.791   5.947   3.980  1.8003  2.2013  0.5582
  102RES   H40043022   2.768   5.914   3.807  0.5114 -0.1201  0.0999
  102RES   C40143023   3.389   5.747   3.526 -0.0455 -0.5806  0.4111
  102RES   C40243024   3.316   5.692   3.406  0.7860 -0.1823 -0.2188
  102RES   C40343025   3.397   5.700   3.280  0.6670 -0.5548  0.1156
  102RES   C40443026   3.312   5.667   3.152 -0.1454  0.0186 -0.1236
  102RES   C40543027   3.406   5.652   3.030 -0.6683 -0.5578 -0.3867
  102RES   C40643028   3.326   5.608   2.905  0.0391  0.1355  0.3372
  102RES   C40743029   3.407   5.600   2.779 -0.2161 -0.4606 -0.1497
  102RES   H40843030   3.488   5.700   3.528  1.2590  2.1012  2.4172
  102RES   H40943031   3.398   5.856   3.534  1.3978 -0.6913  0.5039
  102RES   H41043032   3.221   5.744   3.390 -0.2590 -1.4727  1.5177
  102RES   H41143033   3.479   5.627   3.284  0.1386 -1.1714 -0.2150
  102RES   H41243034   3.444   5.797   3.263  1.0253 -0.7460 -0.0095
  102RES   H41343035   3.239   5.747   3.140  0.4448  0.7310  0.9648
  102RES   H41443036   3.253   5.577   3.171  0.7675 -0.4135  0.6675
  102RES   H41543037   3.473   5.736   3.012  0.6213 -1.0540  1.9278
  102RES   H41643038   3.475   5.569   3.041  0.0801  0.1556  0.3743
  102RES   H41743039   3.293   5.505   2.921  3.1276 -0.7030  1.7209
  102RES   H41843040   3.247   5.679   2.884  1.0110  0.8903 -0.8412
  102RES   H41943041   3.495   5.537   2.791  0.5530  0.3154 -1.5777
  102RES   H42043042   3.436   5.700   2.746 -1.3451  0.0539  0.3718
  102RES   H42143043   3.340   5.554   2.707  0.1095 -1.6742  0.3190
  102RES   H42243044   3.299   5.584   3.411  1.4262 -0.2311  1.3125
  103RES     C143045   1.801   5.908   1.380  0.6927 -0.3340  0.3102
  103RES     C243046   1.840   5.875   1.528  0.1772  0.5422 -0.2853
  103RES     C343047   1.938   5.980   1.584 -0.1307 -0.0549 -0.7535
  103RES     C443048   1.964   5.986   1.737  0.5834 -0.3640 -0.6378
  103RES     C543049   2.023   6.130   1.780 -0.0580 -0.1748 -0.2350
  103RES     C643050   2.054   6.160   1.926 -0.4150 -0.1410  0.3407
  103RES     C743051   1.939   6.174   2.017  0.2076 -0.5318 -0.3513
  103RES     H843052   1.711   5.848   1.362  0.9292 -1.8794  3.9213
  103RES     H943053   1.878   5.899   1.304  0.7799 -2.4960  0.6120
  103RES    H1043054   1.751   5.878   1.589  0.1924 -0.6275 -0.1973
  103RES    H1143055   2.030   5.969   1.527 -0.3161 -1.5932 -0.7862
  103RES    H1243056   1.906   6.081   1.559 -0.4943 -0.1126 -0.5289
  103RES    H1343057   1.871   5.989   1.793  0.9669 -0.4105  0.0083
  103RES    H1443058   2.020   5.907   1.785 -0.6952  0.2446  1.9103
  103RES    H1543059   1.967   6.214   1.740  1.5073 -0.1391 -2.4449
  103RES    H1643060   2.117   6.144   1.727 -0.3168  1.1519 -0.3596
  103RES    H1743061   2.095   6.261   1.932 -0.4830 -0.1718  1.5151
  103RES    H1843062   2.128   6.091   1.965 -0.5852 -1.1539 -1.0907
  103RES    H1943063   1.868   6.235   1.961  0.6383 -1.1430 -1.5778
  103RES    H2043064   1.964   6.225   2.110 -0.6256  0.0431 -0.4361
  103RES    H2143065   1.897   6.076   2.042  1.2829 -1.0779 -0.6640
  103RES    H2243066   1.757   6.007   1.366 -0.5871 -1.0699 -1.0136
  103RES    C2343067   1.908   5.733   1.523  0.0359 -0.1443  0.1820
  103RES    C2443068   1.803   5.618   1.522  1.0012 -1.0572  0.9990
  103RES    C2543069   1.733   5.609   1.659 -0.6751 -0.6378  0.5359
  103RES    C2643070   1.825   5.581   1.783  0.2624 -0.1757 -0.9006
  103RES    C2743071   1.754   5.548   1.921 -0.0306  0.3364  0.2588
  103RES    C2843072   1.847   5.523   2.042  0.6537  0.2197  0.2787
  103RES    C2943073   1.931   5.648   2.081 -0.3717  0.0562 -0.4119
  103RES    H3043074   1.959   5.728   1.427  1.6459  2.6061  0.8341
  103RES    H3143075   1.986   5.717   1.597  1.8072  0.8979 -1.4013
  103RES    H3243076   1.721   5.655   1.459  2.1227  0.6912  0.5244
  103RES    H3343077   1.650   5.538   1.654  1.0341 -2.5975 -1.1202
  103RES    H3443078   1.688   5.706   1.679  1.4526  0.4654  0.1383
  103RES    H3543079   1.897   5.658   1.813  0.6315 -1.5433  1.8459
  103RES    H3643080   1.881   5.490   1.766 -1.8955 -1.9651  1.3056
  103RES    H3743081   1.693   5.459   1.904 -0.3327  0.6088 -0.0745
  103RES    H3843082   1.681   5.625   1.945  0.4503  0.9743 -0.3073
  103RES    H3943083   1.908   5.439   2.010  0.3415  0.0247  0.1948
  103RES    H4043084   1.784   5.487   2.124 -0.3883 -0.7544 -0.9235
  103RES    H4143085   1.857   5.723   2.109 -1.0306 -0.2904 -1.2245
  103RES    H4243086   1.994   5.627   2.168  1.2832 -3.0258 -2.2470
  103RES    H4343087   2.010   5.686   2.017  0.1252  2.2783  1.4358
  103RES    C4443088   1.863   5.482   1.474  0.3030 -0.5659  0.1515
  103RES    C4543089   1.760   5.362   1.442  0.4783 -0.6119 -0.5305
  103RES    C4643090   1.634   5.417   1.364  0.4849 -0.1800 -0.5417
  103RES    C4743091   1.666   5.488   1.226 -0.5141 -0.5073 -0.3244
  103RES    C4843092   1.537   5.495   1.154 -0.1646 -0.7235 -0.0395
  103RES    C4943093   1.553   5.565   1.018 -0.5521 -0.0467 -0.3287
  103RES    C5043094   1.415   5.571   0.961 -0.3824  0.5127  1.0248
  103RES    H5143095   1.951   5.461   1.534  1.1386 -0.6930 -1.0929
  103RES    H5243096   1.914   5.503   1.380 -0.0171 -2.5247 -0.4641
  103RES    H5343097   1.726   5.332   1.541 -0.3747  2.6912  0.2467
  103RES    H5443098   1.583   5.480   1.437  0.2682 -1.0063  0.0171
  103RES    H5543099   1.571   5.329   1.351 -0.8314  0.5097  1.0296
  103RES    H5643100   1.689   5.594   1.234  0.3768 -0.7948  1.1939
  103RES    H5743101   1.744   5.450   1.160 -1.1236  1.7763 -2.4260
  103RES    H5843102   1.458   5.536   1.216 -0.1930  0.2164 -0.6788
  103RES    H5943103   1.511   5.391   1.138  0.2621 -0.3446 -3.6304
  103RES    H6043104   1.629   5.523   0.951 -0.8288  0.6690 -1.1165
  103RES    H6143105   1.590   5.668   1.023 -0.2060 -0.2540  1.3984
  103RES    H6243106   1.396   5.466   0.943  1.5034  0.6614 -2.3818
  103RES    H6343107   1.407   5.617   0.862 -1.7263 -2.2329 -0.1890
  103RES    H6443108   1.351   5.613   1.039 -0.9428  1.5468  0.0238
  103RES    C6543109   1.836   5.251   1.371  0.3743 -0.1436  0.0980
  103RES    C6643110   1.777   5.113   1.383 -0.2225 -0.2977 -0.2502
  103RES    C6743111   1.804   5.056   1.523  0.2129  0.9651 -0.1686
  103RES    C6843112   1.697   4.955   1.565  0.2157 -0.2812  0.2025
  103RES    C6943113   1.736   4.873   1.687 -0.0575  0.1728  0.3909
  103RES    C7043114   1.630   4.785   1.755  0.0452  0.0364 -0.8693
  103RES    C7143115   1.683   4.736   1.888 -0.2131 -0.5615  0.2665
  103RES    H7243116   1.859   5.291   1.273  0.0105 -0.0584  0.0460
  103RES    H7343117   1.936   5.243   1.415  0.5671  1.1190 -0.0991
  103RES    H7443118   1.668   5.111   1.378 -0.3174 -1.8480  1.5848
  103RES    H7543119   1.901   5.008   1.532 -0.3511 -0.7209 -2.3575
  103RES    H7643120   1.802   5.133   1.599 -1.5676  1.3168 -0.5449
  103RES    H7743121   1.606   5.009   1.591 -0.6542 -0.3407 -2.5497
  103RES    H7843122   1.677   4.890   1.480  0.9015  2.1236 -1.8631
  103RES    H7943123   1.828   4.818   1.666 -0.0176  0.3956 -0.0145
  103RES    H8043124   1.775   4.943   1.761 -1.6560  0.2189  1.2061
  103RES    H8143125   1.600   4.702   1.690  1.2363 -1.1993  0.1441
  103RES    H8243126   1.543   4.848   1.775 -0.3385 -0.8353  0.2350
  103RES    H8343127   1.768   4.672   1.865 -2.6000 -3.1440 -1.6519
  103RES    H8443128   1.720   4.809   1.960  1.4045  1.0500 -2.1131
  103RES    H8543129   1.612   4.674   1.941 -0.5089 -0.1676  0.3322
  103RES    C8643130   1.836   5.022   1.275 -0.0397  0.9410 -0.1862
  103RES    C8743131   1.765   5.034   1.137 -0.4240  0.6176  0.5651
  103RES    C8843132   1.862   4.972   1.033  0.7893 -1.1194 -0.2610
  103RES    C8943133   1.825   5.032   0.900 -0.0282  0.1232  0.2105
  103RES    C9043134   1.882   4.954   0.780 -0.0685 -0.0756 -0.0466
  103RES    C9143135   1.888   4.801   0.792 -0.2546  0.2191 -0.2441
  103RES    C9243136   1.938   4.734   0.667  0.0752 -0.0450 -0.7573
  103RES    H9343137   1.938   5.056   1.260 -0.1462  1.7082  0.8080
  103RES    H9443138   1.844   4.919   1.311 -0.2419  1.4968  1.4879
  103RES    H9543139   1.752   5.141   1.119 -2.4788 -0.0298 -2.0975
  103RES    H9643140   1.964   5.010   1.043 -0.3318  2.8384 -2.5504
  103RES    H9743141   1.856   4.865   1.050 -1.9965 -0.6545  2.2200
  103RES    H9843142   1.717   5.038   0.890 -0.4846 -3.5988  2.1118
  103RES    H9943143   1.850   5.138   0.904 -0.3380  0.2412 -0.8799
  103RES   H10043144   1.977   4.995   0.747 -0.5665 -0.9112 -2.5939
  103RES   H10143145   1.828   4.977   0.688 -0.0941 -1.7105 -0.4609
  103RES   H10243146   1.947   4.767   0.876  0.6063  0.7218 -0.6375
  103RES   H10343147   1.786   4.774   0.817 -0.5686  0.3911 -1.2868
  103RES   H10443148   2.043   4.757   0.647  0.1519 -1.0157 -1.5194
  103RES   H10543149   1.893   4.776   0.576  0.9017 -0.4096 -1.3397
  103RES   H10643150   1.922   4.627   0.660 -0.5909  0.0938 -1.5039
  103RES   C10743151   1.626   4.959   1.132 -0.2531 -0.5146 -0.3619
  103RES   C10843152   1.498   5.049   1.133  0.2210  0.6091 -0.7434
  103RES   C10943153   1.480   5.124   0.997  0.1574  0.1427 -0.0967
  103RES   C11043154   1.436   5.045   0.874 -0.2477  0.8058 -0.4484
  103RES   C11143155   1.367   5.134   0.768  0.7379 -0.6875  0.0670
  103RES   C11243156   1.253   5.064   0.689  0.1471  0.4736 -0.4151
  103RES   C11343157   1.209   5.150   0.575  0.2563  0.2078 -0.3216
  103RES   H11443158   1.622   4.872   1.198  3.2510  0.3825  1.1909
  103RES   H11543159   1.628   4.905   1.037 -0.3238  1.2831 -1.4152
  103RES   H11643160   1.537   5.127   1.198 -0.4473  0.8001 -0.5752
  103RES   H11743161   1.562   5.192   0.980 -0.2186  0.0911 -2.2100
  103RES   H11843162   1.400   5.196   1.014  0.3865  0.3854 -0.0466
  103RES   H11943163   1.512   4.977   0.836  1.2115  1.6333  0.9526
  103RES   H12043164   1.355   4.978   0.905  0.4617 -0.3425 -1.0421
  103RES   H12143165   1.444   5.159   0.695  0.5935 -1.3780 -0.3305
  103RES   H12243166   1.335   5.234   0.797 -3.0654 -2.2104  1.3493
  103RES   H12343167   1.275   4.962   0.656  0.4991  0.2415  0.5159
  103RES   H12443168   1.167   5.058   0.755 -0.2943  0.7072 -0.9733
  103RES   H12543169   1.291   5.170   0.506  0.4014 -1.0445 -0.5181
  103RES   H12643170   1.133   5.104   0.512 -0.9188  1.4402  0.1623
  103RES   H12743171   1.172   5.242   0.620 -0.3598 -1.2784  2.3182
  103RES   C12843172   1.365   4.976   1.191  0.3469  0.2302 -0.2517
  103RES   C12943173   1.277   5.053   1.289 -0.0153  0.7329 -0.4966
  103RES   C13043174   1.230   5.187   1.233 -0.3031  0.0140  0.8125
  103RES   C13143175   1.135   5.178   1.108  0.2576 -0.3842  0.0073
  103RES   C13243176   1.098   5.307   1.042 -0.0704 -0.5893  0.0154
  103RES   C13343177   0.981   5.295   0.944 -0.0309 -0.2752 -0.4181
  103RES   C13443178   0.981   5.419   0.858  0.3703 -0.1155  0.5579
  103RES   H13543179   1.311   4.935   1.105  1.8227 -1.5588 -0.3717
  103RES   H13643180   1.397   4.883   1.238  0.6784  0.5596  0.1689
  103RES   H13743181   1.197   4.979   1.299 -0.3055  1.2270  0.8735
  103RES   H13843182   1.309   5.260   1.214 -0.3667 -0.2312 -0.3773
  103RES   H13943183   1.172   5.235   1.312 -0.0900  1.6902 -0.0227
  103RES   H14043184   1.042   5.126   1.130  0.7821 -0.9108  1.0175
  103RES   H14143185   1.187   5.116   1.035  0.4113 -1.4733  1.0067
  103RES   H14243186   1.182   5.342   0.982 -0.1237 -0.5471 -0.0345
  103RES   H14343187   1.077   5.388   1.111 -1.9823 -0.3932 -0.7726
  103RES   H14443188   0.883   5.288   0.992  0.4355 -1.1294  0.4137
  103RES   H14543189   0.993   5.206   0.882 -0.1630 -0.5069 -0.1094
  103RES   H14643190   0.902   5.414   0.783  0.5710 -1.3693  0.4198
  103RES   H14743191   1.070   5.425   0.795  0.2236 -1.1247  0.2536
  103RES   H14843192   0.967   5.507   0.922 -1.1400 -1.4232  2.0785
  103RES   C14943193   1.343   5.061   1.426 -0.7814  0.0864  0.1017
  103RES   C15043194   1.251   5.119   1.535  0.1129 -0.8556 -0.1644
  103RES   C15143195   1.299   5.261   1.587 -0.0140 -0.1074 -0.2657
  103RES   C15243196   1.194   5.361   1.639  0.7209  0.7175  0.1731
  103RES   C15343197   1.259   5.489   1.696  0.1612  0.0924  0.0306
  103RES   C15443198   1.321   5.481   1.833 -0.4347  0.8206 -0.3839
  103RES   C15543199   1.419   5.593   1.879  0.0643 -0.1730  0.3327
  103RES   H15643200   1.372   4.958   1.448  0.1205  0.2747 -0.2074
  103RES   H15743201   1.432   5.121   1.416 -0.1178 -1.0152 -0.7311
  103RES   H15843202   1.150   5.139   1.499  0.4510  0.8578 -0.1770
  103RES   H15943203   1.383   5.244   1.653  2.6212 -0.6067 -3.6384
  103RES   H16043204   1.346   5.317   1.506  0.4850 -1.0050 -0.6044
  103RES   H16143205   1.130   5.317   1.716  0.2001 -0.0518 -0.6997
  103RES   H16243206   1.136   5.397   1.554 -1.1848 -0.3938  0.9642
  103RES   H16343207   1.173   5.556   1.702 -0.9676 -1.3513  0.0183
  103RES   H16443208   1.328   5.528   1.621  1.4115  0.3069  1.2795
  103RES   H16543209   1.370   5.385   1.841 -0.2082  1.1197  2.2547
  103RES   H16643210   1.246   5.480   1.912 -0.0838 -0.8679 -0.0628
  103RES   H16743211   1.441   5.588   1.986  3.3183  3.0728 -0.0720
  103RES   H16843212   1.369   5.689   1.882  0.1231 -0.0287 -2.2393
  103RES   H16943213   1.507   5.585   1.815 -0.7871 -0.0631 -0.8741
  103RES   C17043214   1.226   5.018   1.652 -0.3544 -0.4882  0.4857
  103RES   C17143215   1.145   4.890   1.608  1.0109  0.6031 -0.3336
  103RES   C17243216   1.196   4.777   1.697 -0.0210  0.1026 -0.5475
  103RES   C17343217   1.172   4.791   1.849  0.2125 -0.2708 -0.6582
  103RES   C17443218   1.235   4.678   1.932  0.0697 -0.3295 -0.3708
  103RES   C17543219   1.246   4.681   2.088  0.0738 -0.5732 -0.6063
  103RES   C17643220   1.330   4.794   2.144 -0.0730 -0.0341  1.0559
  103RES   H17743221   1.171   5.062   1.735  0.2195 -1.5709  1.4411
  103RES   H17843222   1.319   4.995   1.703  0.8766  0.6899 -1.1761
  103RES   H17943223   1.179   4.868   1.506  1.1163 -2.3781  0.3213
  103RES   H18043224   1.300   4.753   1.672 -0.4370 -2.1901 -0.2335
  103RES   H18143225   1.143   4.686   1.670 -1.2769  1.2215 -1.9443
  103RES   H18243226   1.066   4.781   1.872  0.4988 -0.6306  0.5463
  103RES   H18343227   1.204   4.888   1.887  0.6305 -0.3041 -0.9250
  103RES   H18443228   1.339   4.659   1.906  0.1234 -1.5494  0.6967
  103RES   H18543229   1.183   4.585   1.909  1.7920 -1.0912 -1.2760
  103RES   H18643230   1.280   4.583   2.119  1.0920 -0.3681 -1.0575
  103RES   H18743231   1.145   4.689   2.127  0.7999 -0.6089  1.3030
  103RES   H18843232   1.268   4.884   2.152 -1.6132 -1.0169  0.5003
  103RES   H18943233   1.417   4.821   2.084 -1.5723  1.5456 -0.4891
  103RES   H19043234   1.367   4.766   2.243 -0.7122  0.8115  1.5413
  103RES   C19143235   0.991   4.919   1.627 -0.4696  0.5544  0.3002
  103RES   C19243236   0.894   4.807   1.583 -0.5851 -0.5954  0.1299
  103RES   C19343237   0.748   4.844   1.633 -0.9100  0.7025  0.0616
  103RES   C19443238   0.635   4.750   1.593 -0.7545  0.3151 -0.1558
  103RES   C19543239   0.518   4.748   1.696 -0.0249 -0.4655 -0.4818
  103RES   C19643240   0.417   4.643   1.648  0.0555  0.3066 -0.3283
  103RES   C19743241   0.276   4.701   1.640 -0.3021 -0.1092  0.6962
  103RES   H19843242   0.964   5.006   1.568  0.8417  0.3374 -0.6326
  103RES   H19943243   0.978   4.942   1.733 -1.9106 -3.0055  0.9992
  103RES   H20043244   0.928   4.718   1.636  0.4986 -0.4798 -0.3570
  103RES   H20143245   0.723   4.940   1.587  0.6773  0.7039 -0.8104
  103RES   H20243246   0.735   4.855   1.741  0.5268  1.6035  0.1598
  103RES   H20343247   0.678   4.654   1.562 -0.0419  0.9936 -1.2887
  103RES   H20443248   0.599   4.788   1.497 -0.4374  2.3618  0.5155
  103RES   H20543249   0.562   4.721   1.792 -1.0940 -0.4651  0.0082
  103RES   H20643250   0.470   4.845   1.708  2.8196  1.1493 -1.6439
  103RES   H20743251   0.419   4.558   1.716 -3.2992 -0.3282 -0.9469
  103RES   H20843252   0.447   4.599   1.553  1.1420 -2.9819  1.4478
  103RES   H20943253   0.248   4.726   1.743 -0.2685  1.5335  0.3323
  103RES   H21043254   0.216   4.616   1.609  2.0525 -1.7906  0.6358
  103RES   H21143255   0.262   4.787   1.575  2.2752 -1.6700 -2.0425
  103RES   C21243256   0.901   4.779   1.430  0.2424 -0.3227  0.7699
  103RES   C21343257   0.973   4.652   1.380 -0.5779  0.6058  0.8200
  103RES   C21443258   0.887   4.525   1.395 -0.0364 -0.1309 -0.0315
  103RES   C21543259   0.783   4.502   1.281 -0.3522 -0.3300  0.3164
  103RES   C21643260   0.660   4.426   1.339  0.2367 -0.0700  0.2662
  103RES   C21743261   0.543   4.395   1.230  0.2517  0.6544 -0.4372
  103RES   C21843262   0.595   4.304   1.123 -0.1186  0.1409  0.1098
  103RES   H21943263   0.940   4.868   1.380  0.8521 -2.3726 -2.5736
  103RES   H22043264   0.804   4.787   1.381  0.4572  0.7618  0.5075
  103RES   H22143265   1.060   4.633   1.442 -0.2179  1.9702  0.7598
  103RES   H22243266   0.937   4.429   1.410  0.8682  0.0910 -1.4602
  103RES   H22343267   0.831   4.531   1.488  1.1883  2.6759  0.5593
  103RES   H22443268   0.822   4.449   1.194  0.0920  0.9477 -0.2819
  103RES   H22543269   0.753   4.598   1.238  0.2454  0.2128  1.1122
  103RES   H22643270   0.696   4.326   1.362  2.7947  0.9566  0.9033
  103RES   H22743271   0.613   4.469   1.428 -1.6942  1.7602 -1.6031
  103RES   H22843272   0.461   4.344   1.281  1.1817  2.0032  2.4911
  103RES   H22943273   0.513   4.490   1.186 -1.0758 -1.0352 -3.3625
  103RES   H23043274   0.506   4.263   1.075  0.7765 -0.2485 -1.2116
  103RES   H23143275   0.655   4.220   1.158  0.2249  0.4240  0.2025
  103RES   H23243276   0.641   4.355   1.039  0.3429 -0.5154 -0.0362
  103RES   C23343277   1.040   4.662   1.238 -0.6425 -0.0278 -0.5886
  103RES   C23443278   1.136   4.556   1.174  0.1748 -0.5576  0.2509
  103RES   C23543279   1.125   4.568   1.019 -0.4063  0.6904 -0.4695
  103RES   C23643280   1.012   4.500   0.963  0.2148  0.2591 -0.5182
  103RES   C23743281   1.021   4.344   0.977 -0.3748 -0.5091 -0.3028
  103RES   C23843282   0.931   4.277   0.863  0.4554  0.1034 -0.6981
  103RES   C23943283   0.932   4.122   0.864  0.0852  0.6221 -0.3709
  103RES   H24043284   1.081   4.761   1.219 -0.1446  0.1009  1.1026
  103RES   H24143285   0.950   4.675   1.177 -2.5705 -1.6255  1.7976
  103RES   H24243286   1.096   4.459   1.205 -1.1380 -1.0280 -2.7518
  103RES   H24343287   1.212   4.519   0.976  0.1806  1.2112  0.1128
  103RES   H24443288   1.131   4.670   0.980  2.7748  1.0405  0.8351
  103RES   H24543289   1.007   4.511   0.855 -0.5651 -0.0337 -0.5177
  103RES   H24643290   0.927   4.554   1.005 -0.9244 -1.7687 -0.1629
  103RES   H24743291   0.985   4.311   1.074 -0.6029 -1.6718 -0.7726
  103RES   H24843292   1.128   4.322   0.974 -0.2832  0.0020 -0.8766
  103RES   H24943293   0.828   4.311   0.857  0.3515 -0.1229 -0.1962
  103RES   H25043294   0.987   4.302   0.773 -0.4690  0.1701 -1.2553
  103RES   H25143295   1.035   4.089   0.853 -0.8627 -1.7749 -2.7759
  103RES   H25243296   0.878   4.083   0.950 -1.2783 -1.1664 -1.9910
  103RES   H25343297   0.880   4.089   0.774  1.2980  0.3881 -1.0008
  103RES   C25443298   1.283   4.578   1.224  0.2119  0.4735  0.0394
  103RES   C25543299   1.319   4.503   1.354 -0.1067 -0.2711  0.7897
  103RES   C25643300   1.428   4.574   1.444  0.1294 -0.1224  0.1290
  103RES   C25743301   1.573   4.581   1.386  0.3715 -0.0292  0.6070
  103RES   C25843302   1.671   4.507   1.468 -0.4959  0.2601  0.4726
  103RES   C25943303   1.814   4.519   1.427  0.0043 -0.3503  0.2222
  103RES   C26043304   1.859   4.462   1.291 -0.0887 -0.1378 -0.2212
  103RES   H26143305   1.288   4.686   1.233  0.1797  0.4460  0.3995
  103RES   H26243306   1.354   4.568   1.142 -0.6993 -1.7139 -0.5196
  103RES   H26343307   1.224   4.502   1.408 -0.1550  0.3484  0.7253
  103RES   H26443308   1.426   4.540   1.547 -0.0794  0.5683  0.3586
  103RES   H26543309   1.393   4.677   1.452  1.9743  0.5030  0.3740
  103RES   H26643310   1.582   4.553   1.281 -1.6530  1.7801 -0.0731
  103RES   H26743311   1.590   4.688   1.386  0.5689 -0.0592 -0.7653
  103RES   H26843312   1.645   4.401   1.470  0.8263 -0.0636  2.2732
  103RES   H26943313   1.670   4.533   1.574  0.1808 -1.9113  1.0539
  103RES   H27043314   1.840   4.624   1.432  2.8133 -0.9851 -0.2887
  103RES   H27143315   1.880   4.473   1.501 -0.5572  0.3805  1.1867
  103RES   H27243316   1.967   4.464   1.280 -0.1571  1.7831 -0.8057
  103RES   H27343317   1.839   4.356   1.280  0.9173 -0.2149 -1.3780
  103RES   H27443318   1.811   4.527   1.217 -0.0267 -0.4189 -0.5079
  103RES   C27543319   1.361   4.349   1.328 -0.2488  0.2693  0.8235
  103RES   C27643320   1.361   4.262   1.459  0.3333  0.0450  0.2307
  103RES   C27743321   1.420   4.122   1.422 -0.1945  0.2733 -0.2370
  103RES   C27843322   1.564   4.117   1.366 -0.9086 -0.1955 -0.0891
  103RES   C27943323   1.625   3.979   1.357 -0.2412 -0.5516  0.5576
  103RES   C28043324   1.766   3.975   1.295  0.1719 -0.2678 -0.6324
  103RES   C28143325   1.828   3.834   1.281 -0.2023  0.0535 -0.0598
  103RES   H28243326   1.455   4.342   1.274 -0.7514 -2.1389  0.2324
  103RES   H28343327   1.282   4.315   1.262 -0.3022  0.5330  0.7498
  103RES   H28443328   1.436   4.299   1.529  0.0998 -2.2992  1.7869
  103RES   H28543329   1.417   4.070   1.518 -0.2755  2.3962  0.9400
  103RES   H28643330   1.343   4.065   1.370 -1.1864  0.8417  0.5726
  103RES   H28743331   1.627   4.173   1.436  0.8493 -1.1850 -0.8541
  103RES   H28843332   1.576   4.168   1.271  0.7149  0.3808  0.3981
  103RES   H28943333   1.569   3.912   1.291 -2.3031  1.1802  0.4736
  103RES   H29043334   1.620   3.922   1.450  1.6612 -0.3670  0.7954
  103RES   H29143335   1.769   4.022   1.196 -0.4402  0.4445 -0.3169
  103RES   H29243336   1.831   4.047   1.345  1.0261 -0.7270 -1.0669
  103RES   H29343337   1.860   3.794   1.377 -0.1745 -1.1151 -0.5490
  103RES   H29443338   1.908   3.849   1.209 -0.5943 -0.0146 -0.5055
  103RES   H29543339   1.761   3.765   1.231 -2.5610  0.7982  1.9418
  103RES   C29643340   1.219   4.244   1.515  0.6051  0.2728  0.3797
  103RES   C29743341   1.229   4.187   1.660  0.0460  0.3326 -0.6425
  103RES   C29843342   1.089   4.149   1.712  0.1048 -0.2036 -0.6947
  103RES   C29943343   0.991   4.260   1.745  0.1181  0.5311 -0.2362
  103RES   C30043344   0.844   4.224   1.743 -0.2362 -0.3005 -0.5618
  103RES   C30143345   0.764   4.329   1.827 -0.5386  0.4685 -0.6978
  103RES   C30243346   0.743   4.462   1.755 -0.2942  0.2959  0.1738
  103RES   H30343347   1.169   4.340   1.530  0.4787  0.3876 -0.7038
  103RES   H30443348   1.152   4.190   1.448 -1.5794  3.3871 -0.0336
  103RES   H30543349   1.274   4.088   1.662 -0.7815 -0.0191  2.2555
  103RES   H30643350   1.045   4.089   1.632 -0.8201 -0.3644 -0.0706
  103RES   H30743351   1.098   4.077   1.793 -0.4085 -0.8097 -1.1758
  103RES   H30843352   0.985   4.334   1.664 -0.8760 -0.2749 -0.9142
  103RES   H30943353   1.023   4.300   1.841  1.0634 -1.5158  0.3186
  103RES   H31043354   0.846   4.124   1.786  2.2138 -1.5782 -3.4723
  103RES   H31143355   0.811   4.219   1.640  0.8031 -1.8708 -0.8269
  103RES   H31243356   0.667   4.279   1.839 -0.5612 -0.2591 -3.5565
  103RES   H31343357   0.808   4.341   1.925 -1.3267  1.3622 -0.4467
  103RES   H31443358   0.838   4.513   1.743 -0.9008  1.3697 -0.0632
  103RES   H31543359   0.690   4.443   1.662 -0.7835 -0.6816  0.6426
  103RES   H31643360   0.668   4.516   1.813  0.7072 -0.7174  2.4717
  103RES   C31743361   1.309   4.271   1.765  0.4602 -0.1308 -0.0574
  103RES   C31843362   1.457   4.227   1.797  0.4543 -0.1843  0.1793
  103RES   C31943363   1.538   4.361   1.814 -0.0490  0.2239  0.2884
  103RES   C32043364   1.688   4.348   1.843 -0.1494 -0.0306 -0.6713
  103RES   C32143365   1.755   4.244   1.738  0.0765  1.0146 -0.0624
  103RES   C32243366   1.903   4.220   1.783  0.1886  0.2276 -0.0080
  103RES   C32343367   1.975   4.140   1.683 -0.1011  0.3571 -0.1755
  103RES   H32443368   1.256   4.271   1.860  1.3539 -0.1818  0.4520
  103RES   H32543369   1.308   4.371   1.721  1.7554 -0.4998 -0.9485
  103RES   H32643370   1.492   4.169   1.712  1.1011 -1.5826  1.3820
  103RES   H32743371   1.488   4.424   1.887 -0.0647  1.1861 -0.5362
  103RES   H32843372   1.532   4.420   1.722  2.3380  1.9043  1.1786
  103RES   H32943373   1.693   4.311   1.945  1.1943  0.1796 -0.6481
  103RES   H33043374   1.735   4.446   1.833  2.7059 -1.0502  1.9114
  103RES   H33143375   1.746   4.287   1.638 -1.2983  1.1927  0.1307
  103RES   H33243376   1.705   4.148   1.728 -0.1029  1.2096 -1.1868
  103RES   H33343377   1.906   4.177   1.883 -1.9215 -0.1646 -0.1037
  103RES   H33443378   1.952   4.314   1.809  1.6724 -0.6891  0.6569
  103RES   H33543379   1.942   4.037   1.679 -0.0220  0.3236  0.0142
  103RES   H33643380   2.082   4.132   1.704 -0.0787  0.9687 -0.0302
  103RES   H33743381   1.982   4.185   1.584 -0.2696 -1.3519 -0.9747
  103RES   C33843382   1.465   4.144   1.931  0.1622 -0.5202  0.4371
  103RES   C33943383   1.402   4.000   1.918  0.1398 -0.3463 -0.0022
  103RES   C34043384   1.393   3.941   2.058  0.0994 -0.3624  0.6344
  103RES   C34143385   1.524   3.911   2.122  0.0807  0.0540  0.2387
  103RES   C34243386   1.503   3.819   2.244  0.0342 -0.8626  0.2807
  103RES   C34343387   1.401   3.863   2.356  0.4546  0.6913 -0.7588
  103RES   C34443388   1.392   3.761   2.475 -0.0955 -0.7220 -0.0481
  103RES   H34543389   1.417   4.202   2.009 -0.0442  0.4531 -0.3960
  103RES   H34643390   1.568   4.126   1.961  0.1401 -3.1766 -0.9245
  103RES   H34743391   1.299   4.022   1.888  1.0133  1.2623 -1.9229
  103RES   H34843392   1.322   3.996   2.119 -2.0753 -0.8898 -1.3153
  103RES   H34943393   1.330   3.853   2.042 -0.8942  0.2218  1.3018
  103RES   H35043394   1.571   4.001   2.160  3.1299 -2.0991  1.8417
  103RES   H35143395   1.597   3.878   2.047 -0.3329  1.1858 -0.6740
  103RES   H35243396   1.474   3.720   2.207 -0.6683 -0.2366 -0.8929
  103RES   H35343397   1.604   3.807   2.282  0.9875 -0.2329 -1.9457
  103RES   H35443398   1.434   3.962   2.388 -0.1132  0.6748 -0.1143
  103RES   H35543399   1.304   3.868   2.308 -0.8409  0.8219  1.7568
  103RES   H35643400   1.311   3.783   2.546  0.0789  0.1036 -0.0927
  103RES   H35743401   1.493   3.767   2.516  0.0426  1.0438 -0.5822
  103RES   H35843402   1.382   3.658   2.441  1.1658 -0.5896 -0.8600
  103RES   C35943403   1.479   3.915   1.809 -0.3962  0.9241 -0.2764
  103RES   C36043404   1.438   3.767   1.800  0.0631 -0.2190  0.7439
  103RES   C36143405   1.323   3.742   1.706 -0.5870  0.0851  0.6156
  103RES   C36243406   1.187   3.770   1.761 -0.5748  0.3586 -0.5139
  103RES   C36343407   1.082   3.720   1.659 -0.1483 -0.6814 -0.2855
  103RES   C36443408   1.035   3.584   1.685  0.1698  0.4166  0.0490
  103RES   C36543409   0.977   3.525   1.560 -0.1580 -0.2960 -0.4099
  103RES   H36643410   1.585   3.922   1.832 -0.5372  1.1576  0.3083
  103RES   H36743411   1.481   3.957   1.708 -2.7429 -1.2198 -1.2924
  103RES   H36843412   1.402   3.728   1.895 -1.5667  0.1214  0.2789
  103RES   H36943413   1.341   3.803   1.618 -2.6117 -1.0624 -0.6467
  103RES   H37043414   1.312   3.643   1.663  0.1866 -0.3080  1.3109
  103RES   H37143415   1.172   3.709   1.850 -0.7097 -1.6998 -1.8944
  103RES   H37243416   1.166   3.873   1.788  0.6678  0.1170  1.4650
  103RES   H37343417   0.992   3.780   1.674  0.4952  1.0740 -3.0432
  103RES   H37443418   1.114   3.742   1.557 -1.4394 -0.7936 -0.7169
  103RES   H37543419   1.117   3.520   1.718 -0.2084 -1.7903 -3.1248
  103RES   H37643420   0.965   3.579   1.768 -0.2299 -2.6046 -0.4342
  103RES   H37743421   0.876   3.563   1.551 -0.1273 -0.0105  0.4012
  103RES   H37843422   1.026   3.565   1.471  0.2269 -1.9412 -0.9620
  103RES   H37943423   0.968   3.416   1.565 -0.8622 -0.3814 -2.8795
  103RES   C38043424   1.549   3.671   1.748  0.0988 -0.5161 -0.1173
  103RES   C38143425   1.671   3.632   1.834  0.2092 -0.1277 -0.0266
  103RES   C38243426   1.616   3.532   1.941 -0.2003  0.2844 -0.5788
  103RES   C38343427   1.694   3.506   2.067 -0.4180  0.2088  0.6886
  103RES   C38443428   1.620   3.428   2.179 -0.7431 -0.5044  0.7716
  103RES   C38543429   1.708   3.431   2.306 -0.2535  0.6856 -0.4385
  103RES   C38643430   1.640   3.376   2.435 -0.1424  0.6572 -1.0795
  103RES   H38743431   1.505   3.578   1.711  1.6892 -1.6313  0.7170
  103RES   H38843432   1.589   3.724   1.662  0.4958 -0.2816  0.2074
  103RES   H38943433   1.694   3.726   1.886 -0.3113 -0.7996  1.4326
  103RES   H39043434   1.581   3.438   1.898  0.4211 -0.3163  0.2060
  103RES   H39143435   1.524   3.580   1.976 -0.7665 -1.6500  0.6908
  103RES   H39243436   1.767   3.436   2.029  0.8756  2.0156 -0.2390
  103RES   H39343437   1.741   3.596   2.108  1.4699 -0.8351  0.8396
  103RES   H39443438   1.535   3.493   2.201 -0.2226  1.5145 -2.7634
  103RES   H39543439   1.599   3.331   2.134  0.5469 -0.4189 -0.0475
  103RES   H39643440   1.743   3.533   2.323 -1.9100  1.1344  0.3219
  103RES   H39743441   1.796   3.371   2.282  0.3074  1.6802 -0.8930
  103RES   H39843442   1.593   3.280   2.412 -1.3296  0.5083  1.7372
  103RES   H39943443   1.561   3.445   2.463  0.7923  0.1951  3.0947
  103RES   H40043444   1.709   3.361   2.518 -1.4076  2.4842  0.3365
  103RES   C40143445   1.792   3.582   1.758 -0.2749 -0.2111 -0.0736
  103RES   C40243446   1.867   3.692   1.681  0.0311 -0.8204 -0.3061
  103RES   C40343447   2.005   3.650   1.627 -0.3670 -0.1762 -0.0952
  103RES   C40443448   2.120   3.629   1.730 -0.0912 -0.0848 -0.0186
  103RES   C40543449   2.173   3.759   1.811 -0.6328  0.2493 -0.6773
  103RES   C40643450   2.262   3.709   1.927  1.1477 -0.8515  0.5011
  103RES   C40743451   2.413   3.677   1.897  0.5475  0.8643  0.8534
  103RES   H40843452   1.763   3.503   1.689  1.7432 -0.4545 -0.6760
  103RES   H40943453   1.865   3.541   1.828  1.5723  3.1408  0.0256
  103RES   H41043454   1.886   3.777   1.746 -0.0741 -0.7427 -0.3765
  103RES   H41143455   2.037   3.728   1.557 -3.3095 -0.1558 -1.4556
  103RES   H41243456   1.995   3.554   1.576 -2.1883  0.4090 -0.8443
  103RES   H41343457   2.204   3.592   1.672  1.4436  1.8049  0.9187
  103RES   H41443458   2.083   3.560   1.805 -0.7490 -0.1478 -0.3994
  103RES   H41543459   2.227   3.824   1.742  2.3144 -1.4806 -0.0637
  103RES   H41643460   2.098   3.820   1.861 -0.9606 -1.2192  0.6538
  103RES   H41743461   2.253   3.775   2.014  1.2607 -1.0551  0.6673
  103RES   H41843462   2.218   3.616   1.964 -1.1748  0.3270  0.8049
  103RES   H41943463   2.468   3.767   1.868  1.6060 -0.0392  0.0304
  103RES   H42043464   2.428   3.613   1.810 -1.8329 -0.6019  1.4678
  103RES   H42143465   2.466   3.635   1.983 -0.0311 -1.1108  0.2561
  103RES   H42243466   1.815   3.723   1.591  0.1646  0.5172  0.0671
  104RES     C143467   5.517   6.229   2.798  0.3978 -0.1756 -0.1535
  104RES     C243468   5.368   6.246   2.756  0.1448  0.6548  0.1542
  104RES     C343469   5.332   6.395   2.765  0.2131  1.2368 -0.1564
  104RES     C443470   5.340   6.462   2.903 -0.4645 -0.6167  0.8505
  104RES     C543471   5.324   6.615   2.887 -0.5308 -0.2362  0.3094
  104RES     C643472   5.437   6.691   2.812 -0.6185  0.1943 -0.3883
  104RES     C743473   5.559   6.698   2.899 -0.5140  0.2936 -0.3108
  104RES     H843474   5.541   6.266   2.897  2.6475 -3.6058  0.6968
  104RES     H943475   5.575   6.285   2.725  1.1083  1.1883  1.4269
  104RES    H1043476   5.357   6.210   2.654  0.2796  0.6844  0.1282
  104RES    H1143477   5.390   6.436   2.682  1.0483 -0.1643 -0.2765
  104RES    H1243478   5.229   6.412   2.734 -0.5750 -1.5436  0.7821
  104RES    H1343479   5.267   6.410   2.965  0.2376  0.1390  2.3458
  104RES    H1443480   5.440   6.443   2.942  0.6802 -1.5432 -2.3322
  104RES    H1543481   5.305   6.666   2.982 -1.1246 -1.4959  0.8705
  104RES    H1643482   5.231   6.635   2.834  0.4357 -0.1433 -1.3905
  104RES    H1743483   5.401   6.792   2.794 -2.2210 -0.0894  1.1350
  104RES    H1843484   5.461   6.645   2.716  1.6003  1.0370 -0.2720
  104RES    H1943485   5.629   6.775   2.867 -0.7205 -0.1626 -1.8642
  104RES    H2043486   5.609   6.601   2.896 -0.6051  0.1777  1.1559
  104RES    H2143487   5.542   6.738   2.999  0.2755  0.8961 -0.4098
  104RES    H2243488   5.553   6.126   2.798 -2.5735 -1.2560  0.9414
  104RES    C2343489   5.271   6.157   2.842 -0.0831 -0.4110 -0.7414
  104RES    C2443490   5.253   6.008   2.792 -0.0021 -0.5443  0.6006
  104RES    C2543491   5.114   5.959   2.842 -1.3009 -0.4032 -0.1433
  104RES    C2643492   4.997   6.019   2.754 -0.2395  0.3253 -0.4077
  104RES    C2743493   4.864   5.950   2.780 -0.3863 -0.3344 -0.1757
  104RES    C2843494   4.803   5.974   2.925  0.5702  0.1858  0.3501
  104RES    C2943495   4.810   6.118   2.966  0.2177  0.6987 -0.5875
  104RES    H3043496   5.307   6.152   2.945 -1.0869  1.3917 -0.2832
  104RES    H3143497   5.178   6.212   2.853  0.0726 -0.2886 -0.0218
  104RES    H3243498   5.252   6.026   2.684 -1.2435  2.7572  1.1003
  104RES    H3343499   5.094   5.972   2.948 -0.3623  1.2622 -0.1532
  104RES    H3443500   5.109   5.852   2.822  0.5721 -0.5918  0.2716
  104RES    H3543501   5.022   6.004   2.649  0.5418  2.4676 -0.5592
  104RES    H3643502   4.996   6.128   2.748  3.9104  0.5163  0.6173
  104RES    H3743503   4.883   5.843   2.768 -1.2801 -0.7409  1.7956
  104RES    H3843504   4.800   5.975   2.696 -2.5725 -1.3796  1.1394
  104RES    H3943505   4.867   5.915   2.991  0.6319 -0.3723 -0.2067
  104RES    H4043506   4.698   5.945   2.928  0.8699 -0.8994  0.8122
  104RES    H4143507   4.787   6.177   2.877 -2.1091  0.3458 -0.2360
  104RES    H4243508   4.733   6.147   3.037  0.5974  1.6533 -0.5593
  104RES    H4343509   4.911   6.140   3.001 -0.9035  1.4038  2.2931
  104RES    C4443510   5.367   5.913   2.822  0.4571 -0.2163  0.2501
  104RES    C4543511   5.404   5.845   2.955  0.2206  0.6837  0.7663
  104RES    C4643512   5.524   5.752   2.948  0.1291 -0.5949 -0.8909
  104RES    C4743513   5.652   5.806   2.889  0.5477 -0.1101 -0.2045
  104RES    C4843514   5.764   5.700   2.894 -0.4049 -0.1232 -1.0716
  104RES    C4943515   5.897   5.753   2.846  0.3915  0.8715  0.0464
  104RES    C5043516   6.000   5.638   2.872 -0.0139 -0.0791 -1.1808
  104RES    H5143517   5.457   5.959   2.781  0.3529  0.8074  1.1509
  104RES    H5243518   5.355   5.825   2.760 -2.3000  0.7370 -0.6181
  104RES    H5343519   5.314   5.786   2.974 -0.0842  0.9312  0.1016
  104RES    H5443520   5.489   5.675   2.879 -1.6723 -0.4692 -0.1480
  104RES    H5543521   5.539   5.705   3.045  0.3980 -0.2239 -0.7560
  104RES    H5643522   5.637   5.838   2.786 -0.3438 -1.3796 -0.4724
  104RES    H5743523   5.674   5.897   2.946 -2.9611  0.8977 -0.3619
  104RES    H5843524   5.751   5.606   2.840  0.9379 -1.8952  1.5603
  104RES    H5943525   5.771   5.667   2.997  0.0778 -1.6920 -1.6005
  104RES    H6043526   5.935   5.840   2.901  0.5932 -1.3258  3.5265
  104RES    H6143527   5.877   5.772   2.741 -1.6337  0.2807  0.2995
  104RES    H6243528   6.031   5.638   2.977  0.8860  0.1651 -1.4367
  104RES    H6343529   6.087   5.666   2.812  0.8471 -1.2767 -0.5235
  104RES    H6443530   5.961   5.539   2.849 -1.5621  0.0953  0.5968
  104RES    C6543531   5.409   5.951   3.068  0.2487 -0.7517  0.0305
  104RES    C6643532   5.436   5.906   3.210 -0.6983 -0.1818  0.4154
  104RES    C6743533   5.343   5.798   3.264  0.1178  0.5178  0.0516
  104RES    C6843534   5.194   5.826   3.242 -0.5981 -0.1445  0.0069
  104RES    C6943535   5.106   5.744   3.326  0.1566 -0.0486 -0.6215
  104RES    C7043536   4.954   5.761   3.301  0.0462 -0.5173  0.0836
  104RES    C7143537   4.897   5.701   3.175  0.1144 -0.0029  0.7727
  104RES    H7243538   5.488   6.018   3.034 -0.4010  0.6499  1.2147
  104RES    H7343539   5.314   6.004   3.069  1.1763  0.9414 -0.9537
  104RES    H7443540   5.539   5.870   3.216  0.0232  1.2832 -2.4321
  104RES    H7543541   5.366   5.700   3.222 -0.4963  0.6529 -0.6116
  104RES    H7643542   5.369   5.796   3.370  2.6254 -1.4508 -0.5492
  104RES    H7743543   5.174   5.931   3.264 -0.3500  0.3862 -2.1163
  104RES    H7843544   5.174   5.810   3.135  0.9180 -1.8930 -0.0320
  104RES    H7943545   5.130   5.638   3.312 -0.1323 -0.1804 -0.1340
  104RES    H8043546   5.128   5.773   3.429  0.9760 -1.5363 -0.3547
  104RES    H8143547   4.923   5.866   3.294  0.2678 -0.4400  0.2881
  104RES    H8243548   4.901   5.729   3.390  0.1111 -0.9153 -0.0220
  104RES    H8343549   4.795   5.734   3.153  0.6787  1.4708  0.2338
  104RES    H8443550   4.966   5.729   3.095 -2.6408  2.9003 -0.7347
  104RES    H8543551   4.897   5.593   3.190 -1.3309 -0.3339 -1.4195
  104RES    C8643552   5.446   6.027   3.304 -0.0169  0.1500  0.2468
  104RES    C8743553   5.538   6.143   3.268  0.4326  0.0771  0.0488
  104RES    C8843554   5.507   6.285   3.334 -0.3854  0.2960 -0.3121
  104RES    C8943555   5.386   6.353   3.276 -0.3867  0.2530 -0.6428
  104RES    C9043556   5.352   6.490   3.342  0.0723 -0.0340 -0.1597
  104RES    C9143557   5.239   6.571   3.285  0.6005  0.0168 -0.2406
  104RES    C9243558   5.104   6.513   3.309 -0.4948  0.4183  0.2248
  104RES    H9343559   5.343   6.063   3.306  0.4163  1.4118  0.3038
  104RES    H9443560   5.467   5.994   3.405 -1.6916  0.9672  0.8889
  104RES    H9543561   5.517   6.162   3.162 -1.1686 -1.3072  0.0833
  104RES    H9643562   5.508   6.273   3.442  3.6334  0.8851 -0.1998
  104RES    H9743563   5.584   6.356   3.302  0.7717 -0.3086  1.1043
  104RES    H9843564   5.387   6.373   3.169 -0.3057  0.8996 -0.5230
  104RES    H9943565   5.304   6.285   3.300 -1.2410  1.3208 -0.5056
  104RES   H10043566   5.437   6.556   3.320 -1.0830  1.1980 -1.0202
  104RES   H10143567   5.327   6.474   3.447  1.9115 -0.4860  0.2293
  104RES   H10243568   5.245   6.671   3.329  2.5324  0.0872 -0.6195
  104RES   H10343569   5.255   6.592   3.179  0.2916  2.6156  0.1786
  104RES   H10443570   5.021   6.582   3.290 -0.2599  0.7303  0.3369
  104RES   H10543571   5.104   6.482   3.413 -2.2076  2.9348  1.0210
  104RES   H10643572   5.087   6.419   3.257  0.4631 -0.5279  1.6190
  104RES   C10743573   5.685   6.101   3.288 -0.2281 -0.0306  0.3662
  104RES   C10843574   5.796   6.184   3.213 -0.1320 -0.5650 -0.5766
  104RES   C10943575   5.933   6.177   3.288  0.0679  0.5621 -0.2312
  104RES   C11043576   6.017   6.043   3.261 -0.3453  0.8070  0.0998
  104RES   C11143577   6.157   6.047   3.322 -0.6768  0.0574  0.8726
  104RES   C11243578   6.232   5.909   3.303  0.5787 -0.0816  0.3003
  104RES   C11343579   6.378   5.915   3.354 -0.6813 -0.6144  0.0198
  104RES   H11443580   5.713   6.004   3.247  1.3878  0.8555 -0.6864
  104RES   H11543581   5.697   6.117   3.395 -0.5541 -0.2667  0.4377
  104RES   H11643582   5.763   6.288   3.225  1.8982  0.2584 -1.9110
  104RES   H11743583   5.918   6.185   3.396  0.1049 -2.4954  0.0514
  104RES   H11843584   5.990   6.266   3.260  1.0685 -0.6171 -2.0187
  104RES   H11943585   5.965   5.963   3.314 -0.2155  0.8455  0.2851
  104RES   H12043586   6.028   6.025   3.154  1.0128  3.0582 -0.1769
  104RES   H12143587   6.158   6.075   3.427 -0.2047 -1.4742  1.2881
  104RES   H12243588   6.216   6.126   3.275 -0.1080  0.6578  2.5753
  104RES   H12343589   6.190   5.828   3.363 -0.8726 -0.8159 -1.6523
  104RES   H12443590   6.234   5.867   3.202 -0.8078 -2.0054  1.0374
  104RES   H12543591   6.382   5.905   3.463 -0.5059 -1.5418 -0.0661
  104RES   H12643592   6.441   5.834   3.316  1.1088 -0.5275  2.6444
  104RES   H12743593   6.431   6.008   3.332 -0.2563 -0.4348  1.7314
  104RES   C12843594   5.811   6.159   3.063  0.3732  0.0256  0.3468
  104RES   C12943595   5.874   6.269   2.968 -0.3402 -0.2039 -0.2135
  104RES   C13043596   5.808   6.411   2.983 -0.1307  0.9133 -0.3079
  104RES   C13143597   5.896   6.500   3.067  0.5949 -0.5513  0.5482
  104RES   C13243598   5.829   6.641   3.086 -0.5905 -0.1145 -0.2329
  104RES   C13343599   5.911   6.724   3.186  0.2442 -0.3174  0.4048
  104RES   C13443600   5.837   6.848   3.236  0.5738  0.7171  0.4833
  104RES   H13543601   5.851   6.060   3.040 -2.8348 -2.0350  3.1192
  104RES   H13643602   5.713   6.141   3.019 -0.6695  0.2644  2.5238
  104RES   H13743603   5.977   6.285   2.999 -0.4443  1.6711 -0.8079
  104RES   H13843604   5.709   6.412   3.028 -0.0358  0.1776 -0.0648
  104RES   H13943605   5.794   6.457   2.885 -0.8453 -0.3824 -0.8387
  104RES   H14043606   5.990   6.521   3.015  0.6291 -1.0071  0.4276
  104RES   H14143607   5.934   6.463   3.162  0.7846 -0.1029  0.6511
  104RES   H14243608   5.727   6.631   3.126  0.5341  0.0015  2.8127
  104RES   H14343609   5.818   6.693   2.991 -2.1216  2.2528  1.1666
  104RES   H14443610   6.010   6.753   3.152 -1.1070  1.7943 -1.9455
  104RES   H14543611   5.932   6.659   3.271  0.4840 -0.0770  0.5331
  104RES   H14643612   5.754   6.819   3.301 -0.0381  0.5159 -0.3775
  104RES   H14743613   5.810   6.927   3.166 -1.4716 -1.1049 -0.8219
  104RES   H14843614   5.903   6.898   3.308  0.9465 -0.6530  1.1095
  104RES   C14943615   5.852   6.222   2.821  0.3865 -0.4619  1.1204
  104RES   C15043616   5.977   6.216   2.721  0.1384 -1.1549 -0.3259
  104RES   C15143617   6.084   6.114   2.752 -0.5602  0.6468  0.2950
  104RES   C15243618   6.191   6.146   2.862  0.1289  0.5525 -0.1415
  104RES   C15343619   6.308   6.047   2.852 -0.1735 -0.1877  0.4750
  104RES   C15443620   6.273   5.905   2.900  0.1145  0.0981  0.5326
  104RES   C15543621   6.388   5.816   2.951  0.6178  0.0623  0.3623
  104RES   H15643622   5.812   6.121   2.815  0.7486 -0.5679  0.5120
  104RES   H15743623   5.776   6.288   2.780  1.1331 -1.3863 -1.8549
  104RES   H15843624   5.924   6.174   2.635  0.8022 -2.3710 -0.1551
  104RES   H15943625   6.036   6.017   2.766  0.0896  0.3581  0.5349
  104RES   H16043626   6.144   6.092   2.664 -1.4096 -0.3896 -0.0343
  104RES   H16143627   6.157   6.140   2.966  1.2268 -1.8691  0.1165
  104RES   H16243628   6.231   6.243   2.832  1.1729 -0.7317 -3.0660
  104RES   H16343629   6.379   6.081   2.927 -1.3484  1.2061  0.9942
  104RES   H16443630   6.361   6.044   2.757 -2.2405 -2.1075 -0.6645
  104RES   H16543631   6.224   5.849   2.820 -1.9444  2.4849  0.0364
  104RES   H16643632   6.194   5.906   2.976 -0.9223 -1.1021 -0.4946
  104RES   H16743633   6.363   5.719   2.994  0.5006 -0.2382 -0.3950
  104RES   H16843634   6.444   5.861   3.033 -1.0123  0.1197  1.4796
  104RES   H16943635   6.459   5.790   2.873 -1.6904  0.0324 -1.7882
  104RES   C17043636   6.036   6.345   2.671  0.1899  0.0701 -0.1118
  104RES   C17143637   5.950   6.427   2.571 -0.4566 -0.2716  0.1055
  104RES   C17243638   5.995   6.573   2.568 -0.2877  0.4540  0.1933
  104RES   C17343639   5.951   6.653   2.688 -0.1440  0.6999 -0.3302
  104RES   C17443640   5.982   6.803   2.674 -0.3106  0.4222 -0.5509
  104RES   C17543641   5.912   6.892   2.780 -0.1631  0.1568  0.3117
  104RES   C17643642   5.945   7.031   2.759  0.4335 -0.1372 -0.0895
  104RES   H17743643   6.130   6.326   2.619 -0.0242  0.6194 -0.7055
  104RES   H17843644   6.061   6.399   2.762 -3.5064  1.1724  0.3176
  104RES   H17943645   5.849   6.424   2.612 -0.2312 -0.4291  0.6553
  104RES   H18043646   5.937   6.620   2.489 -2.4145 -1.3824  0.5944
  104RES   H18143647   6.101   6.592   2.551 -0.7518  2.2834 -0.7376
  104RES   H18243648   6.000   6.622   2.781  0.8122 -0.7840 -1.2850
  104RES   H18343649   5.844   6.648   2.707 -0.2008 -0.4320 -0.9032
  104RES   H18443650   5.950   6.832   2.574 -2.9933 -2.6461 -0.6914
  104RES   H18543651   6.090   6.820   2.677 -0.0280 -1.1853 -1.0824
  104RES   H18643652   5.933   6.865   2.884 -1.8337 -1.4984  0.2545
  104RES   H18743653   5.804   6.888   2.763  0.1008  1.4369 -1.8044
  104RES   H18843654   5.945   7.054   2.653 -1.4205  0.2836 -0.0118
  104RES   H18943655   6.036   7.069   2.807  0.8819 -0.3091 -0.7998
  104RES   H19043656   5.876   7.102   2.806 -0.4188 -2.3202  2.0695
  104RES   C19143657   5.965   6.373   2.428 -0.2183  0.4401 -0.2854
  104RES   C19243658   5.842   6.405   2.340  0.2144 -0.1466 -1.0174
  104RES   C19343659   5.888   6.377   2.189 -0.2186  0.4853  0.1699
  104RES   C19443660   5.956   6.500   2.128  0.2249  0.2493 -0.0069
  104RES   C19543661   5.984   6.505   1.978  1.2738  0.2441 -0.0751
  104RES   C19643662   6.100   6.595   1.932  0.2614  0.9070  0.3702
  104RES   C19743663   6.240   6.535   1.959  0.1592  0.0075 -0.3454
  104RES   H19843664   5.966   6.264   2.429 -0.4955  0.3345 -3.9259
  104RES   H19943665   6.052   6.417   2.380  0.1084 -0.2951 -0.3866
  104RES   H20043666   5.819   6.510   2.359 -1.8591 -1.1921  2.6808
  104RES   H20143667   5.801   6.352   2.128 -0.1477 -2.2229  1.1493
  104RES   H20243668   5.950   6.288   2.180  0.9235  1.3793 -1.0360
  104RES   H20343669   6.049   6.505   2.184  0.7746  2.0709 -1.0295
  104RES   H20443670   5.902   6.591   2.156  0.2910  0.8562 -1.7401
  104RES   H20543671   6.003   6.404   1.940  2.4735  0.2489  0.4894
  104RES   H20643672   5.896   6.539   1.922 -0.5396 -2.0985  1.2325
  104RES   H20743673   6.085   6.695   1.974 -0.2438  1.0786 -0.2089
  104RES   H20843674   6.096   6.598   1.823 -1.5975  1.0229  0.4135
  104RES   H20943675   6.249   6.442   1.902  0.0529  0.0126 -0.3722
  104RES   H21043676   6.258   6.512   2.064 -0.9520  1.7119  0.2323
  104RES   H21143677   6.321   6.604   1.937  1.0987 -0.9991 -0.1134
  104RES   C21243678   5.716   6.323   2.374 -0.2228 -1.0046 -0.9330
  104RES   C21343679   5.582   6.368   2.310 -0.2118 -0.7638 -0.2940
  104RES   C21443680   5.475   6.259   2.315 -0.1461 -0.3884  0.0844
  104RES   C21543681   5.348   6.281   2.233 -0.3086  0.4207  0.5412
  104RES   C21643682   5.269   6.151   2.221 -0.3419  0.1402 -0.4146
  104RES   C21743683   5.182   6.124   2.352  0.2873 -0.2812 -0.0573
  104RES   C21843684   5.061   6.217   2.371  0.1128 -0.2743  0.3763
  104RES   H21943685   5.715   6.307   2.481 -0.7415  3.0201 -0.2387
  104RES   H22043686   5.735   6.226   2.329  4.1805 -0.3973 -0.5903
  104RES   H22143687   5.595   6.402   2.207 -0.6203  0.5213  0.0652
  104RES   H22243688   5.522   6.166   2.281  0.5556  0.0182 -0.0741
  104RES   H22343689   5.448   6.237   2.418  0.7412  0.3467  0.4812
  104RES   H22443690   5.373   6.318   2.134  2.2860  1.0045  1.3695
  104RES   H22543691   5.288   6.362   2.275  1.1454  0.6538  2.2388
  104RES   H22643692   5.207   6.161   2.132 -1.2453 -1.0819  0.0663
  104RES   H22743693   5.334   6.071   2.186 -1.1978 -0.8816  0.3134
  104RES   H22843694   5.150   6.020   2.353  0.1119 -0.2530 -1.6481
  104RES   H22943695   5.244   6.114   2.441 -1.2507  0.0574  1.0695
  104RES   H23043696   5.099   6.311   2.411 -0.3226  1.1177 -2.3266
  104RES   H23143697   4.994   6.185   2.450 -0.4153 -1.3511 -0.4936
  104RES   H23243698   5.015   6.230   2.273  1.2500 -2.4099 -0.4823
  104RES   C23343699   5.520   6.486   2.385  0.2169  0.2835  0.5242
  104RES   C23443700   5.460   6.591   2.288  0.5710 -0.1404  0.2662
  104RES   C23543701   5.369   6.689   2.366  0.1889  0.2713 -0.0905
  104RES   C23643702   5.215   6.662   2.368  0.5185  0.7395  0.3755
  104RES   C23743703   5.142   6.734   2.475  0.0171 -0.6619  0.1082
  104RES   C23843704   4.999   6.686   2.490  0.2222 -0.1666 -1.3589
  104RES   C23943705   4.919   6.775   2.584  0.3415  0.0526  0.7052
  104RES   H24043706   5.597   6.531   2.447  1.9168 -2.4355  0.4747
  104RES   H24143707   5.436   6.464   2.451  0.4691  0.6075  0.9548
  104RES   H24243708   5.386   6.549   2.220 -0.9630 -2.5816  3.3110
  104RES   H24343709   5.385   6.795   2.344 -0.3321 -0.0133 -1.8743
  104RES   H24443710   5.407   6.694   2.468  1.3503 -0.2173 -0.4946
  104RES   H24543711   5.188   6.557   2.376 -0.6919  0.8799 -1.5785
  104RES   H24643712   5.177   6.678   2.268 -2.0175 -1.3050  0.9739
  104RES   H24743713   5.149   6.841   2.458  0.1385 -0.5876  0.6007
  104RES   H24843714   5.189   6.709   2.570  1.2189  1.4308  0.1137
  104RES   H24943715   4.945   6.685   2.395  0.2673  3.0229 -1.4667
  104RES   H25043716   5.007   6.588   2.535 -1.4223 -0.1042 -0.8998
  104RES   H25143717   4.822   6.732   2.610 -0.5970 -0.2683 -3.1003
  104RES   H25243718   4.972   6.799   2.676 -1.3676 -0.4240  1.8501
  104RES   H25343719   4.895   6.876   2.552  0.2007 -0.4979 -0.9411
  104RES   C25443720   5.572   6.663   2.208  0.8154 -0.1926 -1.3090
  104RES   C25543721   5.522   6.715   2.071 -0.4580  0.1427 -0.2113
  104RES   C25643722   5.517   6.594   1.969  0.1388 -0.1944  0.3496
  104RES   C25743723   5.444   6.622   1.843  0.3203 -0.4590  0.0407
  104RES   C25843724   5.374   6.509   1.773  0.2222 -0.1534 -0.2925
  104RES   C25943725   5.360   6.526   1.618 -0.2367 -0.4422  0.1545
  104RES   C26043726   5.280   6.658   1.591  0.1418 -0.3336 -0.2513
  104RES   H26143727   5.658   6.597   2.200  1.2216 -0.0790  1.3893
  104RES   H26243728   5.607   6.744   2.273  1.6950 -0.7462 -1.0870
  104RES   H26343729   5.423   6.757   2.090 -0.2525  0.0132  1.2097
  104RES   H26443730   5.467   6.513   2.022  3.7437 -1.7866  1.4459
  104RES   H26543731   5.619   6.557   1.964  0.4513  0.5960  0.6995
  104RES   H26643732   5.362   6.689   1.869  0.1169 -0.9465  0.6546
  104RES   H26743733   5.501   6.682   1.771 -2.7213  1.3656 -0.9461
  104RES   H26843734   5.271   6.496   1.808 -0.1625  0.6891 -1.0520
  104RES   H26943735   5.431   6.418   1.790  1.0053  0.6724  1.6229
  104RES   H27043736   5.464   6.526   1.586  0.3424  1.2006  1.9096
  104RES   H27143737   5.309   6.443   1.568  2.5818 -1.1830 -1.5958
  104RES   H27243738   5.182   6.668   1.638 -0.3099  0.9557 -1.3934
  104RES   H27343739   5.337   6.746   1.620  2.3566 -1.6686 -0.4415
  104RES   H27443740   5.277   6.670   1.482  1.0561  2.0424 -0.0505
  104RES   C27543741   5.617   6.824   2.008 -0.0606  0.8620 -1.0697
  104RES   C27643742   5.547   6.962   1.992 -0.6928  0.1656  0.3607
  104RES   C27743743   5.630   7.058   1.895 -0.1343  0.2283 -0.3257
  104RES   C27843744   5.618   7.017   1.752 -0.6601 -0.0932  0.0049
  104RES   C27943745   5.497   7.070   1.677  0.5862 -0.2357  0.2239
  104RES   C28043746   5.508   7.037   1.523 -0.0395 -0.1133  0.5745
  104RES   C28143747   5.378   7.085   1.458 -0.2209  0.2758  0.3579
  104RES   H28243748   5.666   6.777   1.923  1.9387  0.2661  0.3667
  104RES   H28343749   5.696   6.850   2.078 -0.5753 -0.3008 -0.0279
  104RES   H28443750   5.445   6.946   1.956 -2.5276  0.4452  5.1139
  104RES   H28543751   5.602   7.163   1.904 -0.2239  0.2659 -0.9853
  104RES   H28643752   5.731   7.049   1.933 -0.8147  2.4632  2.2220
  104RES   H28743753   5.616   6.908   1.750  0.6267 -0.1293  0.2316
  104RES   H28843754   5.707   7.045   1.695 -0.2366 -1.7451 -0.1596
  104RES   H28943755   5.483   7.178   1.684 -0.2502 -0.2889 -0.5587
  104RES   H29043756   5.412   7.014   1.718 -0.1406 -0.0523 -1.0270
  104RES   H29143757   5.598   7.080   1.479 -0.5449  1.3906  0.9718
  104RES   H29243758   5.502   6.929   1.507  0.6171  0.2698 -2.4017
  104RES   H29343759   5.379   7.193   1.448  1.8113  0.3720  1.2512
  104RES   H29443760   5.287   7.062   1.513 -1.2976 -1.7408 -2.1464
  104RES   H29543761   5.372   7.043   1.357  0.1931  0.6200  0.1868
  104RES   C29643762   5.537   7.030   2.129 -0.1154  0.1608 -0.5573
  104RES   C29743763   5.420   7.125   2.149  0.1921 -0.3951  0.0647
  104RES   C29843764   5.440   7.214   2.276 -1.2608  0.0490  0.0691
  104RES   C29943765   5.493   7.131   2.402 -0.1361  0.1301  0.5665
  104RES   C30043766   5.485   7.214   2.529 -0.5991  0.0654 -0.2021
  104RES   C30143767   5.529   7.132   2.652  0.3943  0.2389 -1.3362
  104RES   C30243768   5.579   7.223   2.774  0.0478  0.3201  0.6965
  104RES   H30343769   5.546   6.959   2.211  0.2455  1.3886  0.4899
  104RES   H30443770   5.627   7.090   2.145 -1.0480  1.6932 -0.9331
  104RES   H30543771   5.431   7.196   2.067 -2.0001  1.1786  1.0940
  104RES   H30643772   5.522   7.281   2.251  1.0753 -3.3087 -1.6045
  104RES   H30743773   5.354   7.275   2.304  0.2016  1.3362  1.9031
  104RES   H30843774   5.599   7.108   2.395  0.1292  0.3349  3.3301
  104RES   H30943775   5.438   7.038   2.416  1.7479 -1.2974 -1.2105
  104RES   H31043776   5.382   7.238   2.551 -0.1111  1.7653  0.3084
  104RES   H31143777   5.545   7.305   2.523  1.7128 -1.4461 -0.8146
  104RES   H31243778   5.444   7.071   2.683  1.1409  0.1289  0.5025
  104RES   H31343779   5.598   7.049   2.639 -1.6325 -1.5065 -1.2525
  104RES   H31443780   5.489   7.271   2.811  0.7480  1.1931  1.2669
  104RES   H31543781   5.622   7.155   2.847 -0.7360  0.4623  1.2918
  104RES   H31643782   5.652   7.301   2.751 -0.0113  0.0288 -0.5482
  104RES   C31743783   5.282   7.052   2.149  0.1378 -0.0497 -0.4694
  104RES   C31843784   5.180   7.123   2.059 -0.6915  0.5708  0.3291
  104RES   C31943785   5.065   7.024   2.032  0.0247  0.1860  0.1160
  104RES   C32043786   4.996   6.966   2.162 -0.7470 -0.3818 -0.1167
  104RES   C32143787   4.861   6.902   2.129  0.8151 -0.1151 -0.1723
  104RES   C32243788   4.873   6.757   2.078 -0.6180 -0.4945 -0.7307
  104RES   C32343789   4.748   6.664   2.085 -0.4588 -0.7803 -0.7613
  104RES   H32443790   5.248   7.035   2.251 -1.6250  1.4311 -0.7759
  104RES   H32543791   5.296   6.950   2.114 -1.3147 -0.5266  0.3419
  104RES   H32643792   5.222   7.130   1.958 -0.9844  0.8915  0.2297
  104RES   H32743793   5.096   6.938   1.973  0.0168 -0.7730  1.4858
  104RES   H32843794   4.980   7.064   1.977 -0.4294 -0.6691  0.1836
  104RES   H32943795   4.972   7.039   2.239  1.1200  0.6370 -0.4570
  104RES   H33043796   5.061   6.898   2.218  0.8665 -0.5711 -2.1465
  104RES   H33143797   4.795   6.958   2.064  1.9154 -0.6289 -1.7517
  104RES   H33243798   4.803   6.901   2.222 -1.1484 -2.6153 -1.3694
  104RES   H33343799   4.946   6.698   2.133  1.1895 -1.3971 -4.0108
  104RES   H33443800   4.904   6.770   1.975 -1.2248 -0.0754 -0.8662
  104RES   H33543801   4.762   6.571   2.029 -0.5980 -1.0635 -0.3311
  104RES   H33643802   4.662   6.714   2.040  0.7882  1.9602 -0.2158
  104RES   H33743803   4.732   6.634   2.188  2.0966 -0.9096 -0.3663
  104RES   C33843804   5.144   7.264   2.087 -0.5711 -0.3213 -0.7949
  104RES   C33943805   5.063   7.336   1.975  0.8117  0.6966 -0.9454
  104RES   C34043806   5.141   7.356   1.841  0.8070 -0.2405  0.3361
  104RES   C34143807   5.263   7.441   1.842 -0.1978 -0.5523 -0.3088
  104RES   C34243808   5.299   7.485   1.702 -0.2103 -0.0650 -0.6952
  104RES   C34343809   5.435   7.563   1.700 -0.6301  0.0634  0.4603
  104RES   C34443810   5.479   7.623   1.560 -0.6146 -0.3179 -0.2213
  104RES   H34543811   5.228   7.321   2.124 -1.0263  0.2645 -0.6601
  104RES   H34643812   5.073   7.270   2.170 -0.4012  1.3037 -0.7688
  104RES   H34743813   4.981   7.274   1.937  1.5786 -1.0776  0.2149
  104RES   H34843814   5.165   7.256   1.805  1.5587  1.0444 -2.8802
  104RES   H34943815   5.077   7.399   1.764  1.5207  2.0785  1.0061
  104RES   H35043816   5.334   7.394   1.910 -0.5729  1.9518  1.8839
  104RES   H35143817   5.239   7.535   1.892 -0.6245 -0.3517 -0.8830
  104RES   H35243818   5.311   7.395   1.642  1.2947 -0.1643 -0.2612
  104RES   H35343819   5.215   7.542   1.662  1.2076  0.8985 -2.3530
  104RES   H35443820   5.419   7.646   1.768 -0.8328  2.0204 -1.9341
  104RES   H35543821   5.512   7.496   1.740 -0.5480  0.9210  1.7737
  104RES   H35643822   5.389   7.676   1.527 -0.8253  0.9978  2.3133
  104RES   H35743823   5.512   7.548   1.489  0.0831  1.3522 -1.7073
  104RES   H35843824   5.569   7.684   1.573 -0.9090  0.4778 -1.7791
  104RES   C35943825   5.004   7.471   2.020 -0.4123 -0.5433  0.5738
  104RES   C36043826   4.860   7.460   2.087  0.2497  0.3913 -0.8989
  104RES   C36143827   4.819   7.598   2.140  0.7114 -0.0047  0.1501
  104RES   C36243828   4.891   7.658   2.259  0.1254  0.7240 -0.8195
  104RES   C36343829   4.859   7.578   2.389  0.2283  0.0863  0.5629
  104RES   C36443830   4.917   7.640   2.512 -0.5009  0.0396  0.3489
  104RES   C36543831   4.887   7.546   2.626  0.4506 -0.0440 -0.1389
  104RES   H36643832   4.983   7.542   1.940  0.4797 -0.3285  0.5224
  104RES   H36743833   5.077   7.520   2.084 -0.8730  1.0580 -0.1080
  104RES   H36843834   4.869   7.393   2.173 -1.6801  1.3897  0.1151
  104RES   H36943835   4.822   7.670   2.059 -0.5868 -0.8136 -0.6200
  104RES   H37043836   4.713   7.592   2.163  0.8144 -1.1512  0.3777
  104RES   H37143837   4.997   7.673   2.240  0.3660 -0.0734 -0.1610
  104RES   H37243838   4.863   0.036   2.275 -0.0839  0.3132  1.6740
  104RES   H37343839   4.753   7.556   2.399  0.1401  0.6544  0.8501
  104RES   H37443840   4.907   7.482   2.370 -0.0500  0.2706 -1.1602
  104RES   H37543841   5.023   7.653   2.492 -0.1923 -1.9339  0.6023
  104RES   H37643842   4.876   0.013   2.530  3.3964  1.4356  1.9953
  104RES   H37743843   4.939   7.451   2.617 -0.6298 -0.6947  0.4401
  104RES   H37843844   4.930   7.585   2.718  0.7996 -1.0252  0.1163
  104RES   H37943845   4.780   7.525   2.632  0.2960  0.2992 -1.4098
  104RES   C38043846   4.756   7.407   1.994  0.2948  0.4382  0.1111
  104RES   C38143847   4.610   7.393   2.044  0.1845 -0.9075 -0.3673
  104RES   C38243848   4.520   7.333   1.933  0.4257 -0.3757  0.2265
  104RES   C38343849   4.512   7.403   1.798 -0.7068  0.0709 -0.5985
  104RES   C38443850   4.410   7.525   1.796  0.1753 -0.0335  0.0540
  104RES   C38543851   4.392   7.582   1.659 -0.0549 -0.6764  0.1746
  104RES   C38643852   4.260   7.652   1.665  0.7358 -0.0177  0.7131
  104RES   H38743853   4.774   7.462   1.901  2.3297  1.4314  1.0545
  104RES   H38843854   4.792   7.306   1.972  2.0267  0.4196  2.7827
  104RES   H38943855   4.572   7.494   2.055  0.2624 -1.0105  0.9428
  104RES   H39043856   4.419   7.314   1.970 -1.3574  2.1421 -3.0404
  104RES   H39143857   4.558   7.234   1.909 -0.9389 -0.9497  0.3652
  104RES   H39243858   4.602   7.453   1.764 -2.2233  1.1315 -3.1877
  104RES   H39343859   4.478   7.333   1.722 -1.1220  1.1847 -1.4542
  104RES   H39443860   4.315   7.491   1.836  0.7933 -2.8872 -0.7447
  104RES   H39543861   4.448   7.602   1.862  1.1030  0.1405 -0.6700
  104RES   H39643862   4.390   7.519   1.571  0.5890 -0.3329 -0.0835
  104RES   H39743863   4.473   7.651   1.637 -0.9041 -0.2674 -1.7205
  104RES   H39843864   4.268   0.004   1.740  2.5587 -0.8665  1.4336
  104RES   H39943865   4.174   7.587   1.685 -1.6135  2.6625 -0.2634
  104RES   H40043866   4.235   7.698   1.569 -2.5008 -0.2143  1.3947
  104RES   C40143867   4.599   7.318   2.172 -0.6817  0.3265  0.3603
  104RES   C40243868   4.643   7.173   2.172 -0.0258 -0.7476 -0.3700
  104RES   C40343869   4.611   7.109   2.309  0.6475  0.2989  0.0483
  104RES   C40443870   4.679   7.160   2.430  0.5352  0.2532 -0.2253
  104RES   C40543871   4.635   7.059   2.540 -0.1413  0.6481 -0.3465
  104RES   C40643872   4.655   7.110   2.680 -0.0168 -0.3824 -0.2119
  104RES   C40743873   4.608   7.009   2.779 -0.6591 -0.3483 -0.1828
  104RES   H40843874   4.494   7.321   2.201 -1.0644 -1.8570 -0.6614
  104RES   H40943875   4.649   7.381   2.245 -0.1700  1.3394 -0.8508
  104RES   H41043876   4.745   7.166   2.133 -0.6693  0.8071 -2.4288
  104RES   H41143877   4.618   7.000   2.304 -0.2645  0.2335  0.0865
  104RES   H41243878   4.502   7.112   2.312  0.5498 -2.3582  0.1477
  104RES   H41343879   4.644   7.262   2.443 -0.0129  0.1239 -0.6936
  104RES   H41443880   4.788   7.156   2.420  0.5513  0.5543 -0.1733
  104RES   H41543881   4.527   7.046   2.531 -0.3728  0.3882  2.3491
  104RES   H41643882   4.685   6.963   2.527 -2.5977 -0.6381 -0.6291
  104RES   H41743883   4.759   7.132   2.707 -0.1978 -1.1064  1.1549
  104RES   H41843884   4.598   7.202   2.685  0.7503  0.1936 -1.7197
  104RES   H41943885   4.516   6.962   2.746 -1.2870 -0.8321  2.1704
  104RES   H42043886   4.600   7.057   2.877  0.7601 -1.1392  0.3314
  104RES   H42143887   4.681   6.929   2.785  0.4692  0.6783  0.0525
  104RES   H42243888   4.580   7.133   2.093  0.2531 -0.1967 -0.8733
  105RES     C143889   0.980   0.886   2.660  0.0948 -0.2853 -0.4406
  105RES     C243890   1.066   0.915   2.536  0.2572 -0.2209 -0.6672
  105RES     C343891   0.974   0.991   2.433 -0.3353 -0.6443 -0.4712
  105RES     C443892   0.854   0.910   2.370 -0.0498  0.1657 -0.3721
  105RES     C543893   0.791   0.997   2.260 -0.0564  0.6190 -1.1453
  105RES     C643894   0.679   0.924   2.178 -0.0138  0.0706 -0.7356
  105RES     C743895   0.743   0.815   2.085 -0.5539  0.6963 -0.4073
  105RES     H843896   0.901   0.813   2.644 -0.5874  0.5779 -1.0543
  105RES     H943897   0.931   0.975   2.700 -0.0155 -0.2187 -0.7210
  105RES    H1043898   1.144   0.980   2.576 -0.1590 -2.2824  3.8931
  105RES    H1143899   0.933   1.079   2.483  0.5956 -1.1403  1.1998
  105RES    H1243900   1.042   1.021   2.354  1.1600  0.1750  1.0903
  105RES    H1343901   0.888   0.817   2.326  0.6316  0.4755 -0.5137
  105RES    H1443902   0.767   0.894   2.434  0.8950 -3.0437  0.2034
  105RES    H1543903   0.869   1.029   2.191  0.1284  0.5309 -0.9818
  105RES    H1643904   0.753   1.082   2.317 -0.5701 -1.5943  1.9588
  105RES    H1743905   0.626   0.999   2.120 -1.7718 -0.9644 -0.4938
  105RES    H1843906   0.603   0.877   2.240  0.1567  1.2039  0.3520
  105RES    H1943907   0.822   0.856   2.022 -0.8326 -2.0428 -2.6076
  105RES    H2043908   0.668   0.774   2.018  0.3316 -2.4359  0.4336
  105RES    H2143909   0.788   0.739   2.149  0.8913  2.8303  1.1632
  105RES    H2243910   1.031   0.841   2.745 -3.4633 -0.8280  1.4838
  105RES    C2343911   1.140   0.789   2.479 -0.0139  0.7225  0.7452
  105RES    C2443912   1.258   0.825   2.382 -0.2609 -0.2447  0.0960
  105RES    C2543913   1.223   0.781   2.237 -0.7774 -0.6799 -0.2183
  105RES    C2643914   1.233   0.631   2.198  0.2264 -0.3246 -0.3925
  105RES    C2743915   1.176   0.595   2.057  1.1244 -0.3045  0.5992
  105RES    C2843916   1.217   0.678   1.934 -0.0079 -0.2544 -0.2703
  105RES    C2943917   1.365   0.678   1.887 -0.5118 -0.4470 -0.2309
  105RES    H3043918   1.180   0.728   2.560  2.2597  2.0181  0.6130
  105RES    H3143919   1.068   0.732   2.419 -0.1154  1.2429  0.3620
  105RES    H3243920   1.259   0.934   2.379  1.3836 -0.2258  0.8438
  105RES    H3343921   1.289   0.831   2.166  0.3616 -0.8719  0.6993
  105RES    H3443922   1.123   0.811   2.206 -0.6031  1.3288  1.1011
  105RES    H3543923   1.202   0.566   2.279 -0.1718  0.8019  0.3722
  105RES    H3643924   1.339   0.606   2.204  0.3060 -0.1703 -1.0902
  105RES    H3743925   1.067   0.590   2.066  0.8690  0.0840 -2.0637
  105RES    H3843926   1.188   0.488   2.038 -0.7071 -0.8704  2.4268
  105RES    H3943927   1.194   0.781   1.961 -1.2161 -0.5863 -0.0031
  105RES    H4043928   1.156   0.650   1.848  0.4839  0.7381 -0.9498
  105RES    H4143929   1.358   0.740   1.798 -2.2518  0.5475  0.5716
  105RES    H4243930   1.431   0.737   1.951  0.1985  0.0015 -1.3711
  105RES    H4343931   1.405   0.582   1.854  0.3684  0.8075 -2.9159
  105RES    C4443932   1.391   0.769   2.427 -0.5407  0.3860 -0.1466
  105RES    C4543933   1.516   0.821   2.345  0.4036  0.6305 -0.5016
  105RES    C4643934   1.536   0.969   2.364 -0.1604 -0.6612  0.6609
  105RES    C4743935   1.653   1.035   2.284  0.1224  0.9035 -0.3976
  105RES    C4843936   1.722   1.154   2.343  0.5240  0.2947  0.0453
  105RES    C4943937   1.807   1.131   2.469 -0.5019 -0.0145  0.1387
  105RES    C5043938   1.872   1.251   2.539  0.0902  0.0154 -0.5518
  105RES    H5143939   1.380   0.661   2.419  2.4126  0.1563 -1.6592
  105RES    H5243940   1.404   0.787   2.534 -1.1397  0.4444 -0.0833
  105RES    H5343941   1.503   0.810   2.238 -1.0390 -0.0342 -0.2713
  105RES    H5443942   1.548   0.990   2.471 -4.4158  0.1030  1.0848
  105RES    H5543943   1.448   1.026   2.334 -0.5541 -0.3424  2.3231
  105RES    H5643944   1.738   0.973   2.254 -1.4403 -0.7702 -1.5670
  105RES    H5743945   1.609   1.064   2.188 -1.5399 -0.0273  0.0595
  105RES    H5843946   1.653   1.231   2.376  3.0052  2.8677 -0.5795
  105RES    H5943947   1.792   1.191   2.268  1.0126  0.9213  0.7870
  105RES    H6043948   1.873   1.048   2.444  1.3499  0.9745  1.6050
  105RES    H6143949   1.736   1.096   2.544 -0.1521 -1.7470 -0.3377
  105RES    H6243950   1.795   1.324   2.562  0.3687  1.0260 -2.6483
  105RES    H6343951   1.933   1.315   2.475  0.4678  0.9188  0.7060
  105RES    H6443952   1.929   1.225   2.628 -1.1790  2.3509  0.9737
  105RES    C6543953   1.644   0.741   2.395  0.1530 -0.2112  0.0063
  105RES    C6643954   1.649   0.596   2.347 -1.0608  0.6335 -0.9896
  105RES    C6743955   1.771   0.532   2.413 -0.0594 -0.6532  0.4268
  105RES    C6843956   1.912   0.605   2.385 -0.2381 -0.2298  0.1567
  105RES    C6943957   2.036   0.532   2.439  0.2608 -0.0013 -0.3893
  105RES    C7043958   2.151   0.637   2.411 -0.0958 -0.7846 -0.1012
  105RES    C7143959   2.291   0.594   2.450 -0.7665 -0.2071  0.1210
  105RES    H7243960   1.733   0.794   2.362  0.6820 -0.9886  0.1624
  105RES    H7343961   1.649   0.746   2.504 -0.5778  2.2851 -0.0350
  105RES    H7443962   1.563   0.536   2.377 -0.0360 -1.5455 -2.2462
  105RES    H7543963   1.768   0.530   2.522  0.3835 -2.6277  0.4188
  105RES    H7643964   1.785   0.430   2.375  0.4760  0.1420 -1.5481
  105RES    H7743965   1.928   0.627   2.279 -0.1340 -1.4335 -0.0769
  105RES    H7843966   1.913   0.707   2.425  0.3311 -0.0072 -0.4014
  105RES    H7943967   2.012   0.518   2.545 -0.3950 -1.2255 -0.6904
  105RES    H8043968   2.049   0.434   2.393  0.3711 -0.0954 -0.1573
  105RES    H8143969   2.132   0.732   2.460 -1.1632 -1.5319  0.9579
  105RES    H8243970   2.157   0.656   2.304 -1.4986 -0.8082 -0.1909
  105RES    H8343971   2.371   0.664   2.424 -0.0981 -1.5084 -1.4184
  105RES    H8443972   2.305   0.572   2.556 -0.6599  1.5488  0.4924
  105RES    H8543973   2.309   0.496   2.407  0.0551 -0.5230  1.1570
  105RES    C8643974   1.658   0.598   2.193  0.1301  0.1622 -0.2987
  105RES    C8743975   1.663   0.453   2.123 -0.5179  0.3163  0.2289
  105RES    C8843976   1.518   0.396   2.105  0.0635 -0.1125  0.5960
  105RES    C8943977   1.511   0.246   2.062 -0.7433 -0.2192 -0.3234
  105RES    C9043978   1.371   0.192   2.039 -0.2056 -0.1562  0.3221
  105RES    C9143979   1.382   0.043   1.997 -0.5144 -0.1907  0.7786
  105RES    C9243980   1.416   7.681   2.112  0.3586  0.6191 -0.0452
  105RES    H9343981   1.577   0.656   2.148 -0.4974  0.8251  1.6177
  105RES    H9443982   1.740   0.664   2.164 -0.1206  0.7303  0.2461
  105RES    H9543983   1.731   0.397   2.187 -1.3647 -0.3135  0.5950
  105RES    H9643984   1.473   0.395   2.205  0.7801 -2.4833  0.9240
  105RES    H9743985   1.442   0.450   2.049  0.4068  1.0411  1.2072
  105RES    H9843986   1.551   0.233   1.961  0.5862 -1.1447  0.3085
  105RES    H9943987   1.574   0.185   2.126 -2.4611 -0.8302  0.7827
  105RES   H10043988   1.330   0.249   1.956  0.1221  0.6103  0.6869
  105RES   H10143989   1.314   0.204   2.131  0.4495 -0.2083  0.7328
  105RES   H10243990   1.290   0.000   1.957 -1.7057 -1.0993  4.2890
  105RES   H10343991   1.453   0.042   1.914 -1.5690  0.9925 -0.1650
  105RES   H10443992   1.404   7.576   2.086 -0.6635  0.7479 -0.1192
  105RES   H10543993   1.340   7.698   2.187  0.2818 -0.9146  0.2281
  105RES   H10643994   1.514   7.711   2.149  0.6421 -2.6629  2.0683
  105RES   C10743995   1.742   0.468   1.985 -0.5026 -0.0738  0.2170
  105RES   C10843996   1.825   0.339   1.950  0.1580  0.1093 -0.0918
  105RES   C10943997   1.802   0.299   1.800 -0.0734  0.2424 -0.3620
  105RES   C11043998   1.858   0.163   1.765 -0.0642  0.1031 -0.7057
  105RES   C11143999   1.833   0.129   1.622  0.0446 -0.1842 -0.0238
  105RES   C11244000   1.926   0.021   1.559 -0.0824  0.7501  0.4856
  105RES   C11344001   1.895   0.024   1.409 -0.4442  0.0464  0.1686
  105RES   H11444002   1.809   0.554   1.978 -1.5771  0.7761  0.3841
  105RES   H11544003   1.673   0.490   1.904  1.7521 -2.9065 -2.6242
  105RES   H11644004   1.773   0.256   1.998 -1.3992  1.5455  0.7697
  105RES   H11744005   1.850   0.372   1.734  1.0210 -0.6589 -0.5936
  105RES   H11844006   1.696   0.296   1.775 -0.1098  0.4183 -0.2245
  105RES   H11944007   1.960   0.160   1.803 -0.3869  2.3893  0.4184
  105RES   H12044008   1.797   0.093   1.822  2.4759 -1.9479 -0.4362
  105RES   H12144009   1.846   0.221   1.565  0.5898 -0.7216 -0.7775
  105RES   H12244010   1.725   0.118   1.615 -0.2540  2.5353 -0.2887
  105RES   H12344011   2.032   0.042   1.576  0.0354  0.7737 -0.2537
  105RES   H12444012   1.905   7.652   1.607 -1.0958  0.7511  0.0549
  105RES   H12544013   1.925   7.660   1.357 -1.8330  0.0547 -0.6528
  105RES   H12644014   1.790   0.024   1.379  0.0071 -0.3418 -1.4717
  105RES   H12744015   1.942   0.111   1.364  0.4024 -0.4163  0.1436
  105RES   C12844016   1.972   0.352   1.990  0.1365  0.0008  0.6135
  105RES   C12944017   2.076   0.446   1.907 -0.1480 -0.4828 -0.5028
  105RES   C13044018   2.218   0.385   1.900 -0.1623  0.1418 -0.2072
  105RES   C13144019   2.228   0.258   1.818 -0.0795  0.7815  0.0204
  105RES   C13244020   2.370   0.200   1.813  0.2813 -0.2941 -0.5294
  105RES   C13344021   2.389   0.099   1.706  0.2790 -0.0088 -0.3772
  105RES   C13444022   2.539   0.066   1.667 -0.3088  0.4134  0.0353
  105RES   H13544023   1.973   0.372   2.097 -1.2937  1.3399  0.4014
  105RES   H13644024   2.018   0.253   1.985 -0.4916 -0.3058  0.7939
  105RES   H13744025   2.047   0.441   1.802  1.2833  1.6746 -1.0222
  105RES   H13844026   2.256   0.367   2.000 -2.9961 -1.1748  0.6633
  105RES   H13944027   2.290   0.457   1.860 -1.4255  0.6036 -1.7188
  105RES   H14044028   2.203   0.279   1.714  2.2644  0.6540 -0.6167
  105RES   H14144029   2.163   0.178   1.851  1.1750 -0.2815 -0.0454
  105RES   H14244030   2.398   0.156   1.909  0.6623 -0.0465 -0.5272
  105RES   H14344031   2.435   0.286   1.799 -0.8206  0.9197  1.5803
  105RES   H14444032   2.351   0.153   1.620 -0.9536 -2.3763 -1.3641
  105RES   H14544033   2.337   0.008   1.735 -1.6365  0.7170 -1.5089
  105RES   H14644034   2.602   0.151   1.642 -1.9915  1.9576  0.8425
  105RES   H14744035   2.551   7.716   1.591 -2.4928  1.9216 -1.9078
  105RES   H14844036   2.569   0.019   1.761 -0.6081 -0.6469 -0.3904
  105RES   C14944037   2.077   0.586   1.966 -0.1000  0.5172 -0.2397
  105RES   C15044038   2.030   0.702   1.880  0.0383  0.4927 -0.2701
  105RES   C15144039   2.131   0.719   1.768  0.6093 -0.3245 -0.4391
  105RES   C15244040   2.086   0.758   1.624  0.4242  0.1748 -0.9919
  105RES   C15344041   2.016   0.641   1.559  0.3420  0.0141  0.1456
  105RES   C15444042   2.002   0.658   1.407 -0.1800 -0.1956 -1.0768
  105RES   C15544043   1.963   0.537   1.325  0.4683 -0.8758  0.3352
  105RES   H15644044   2.028   0.581   2.063 -1.0985 -2.4046 -0.8368
  105RES   H15744045   2.179   0.618   1.990  0.0473 -1.2552  1.6347
  105RES   H15844046   1.939   0.663   1.834  0.4449 -1.5340  0.5778
  105RES   H15944047   2.199   0.798   1.800 -1.5666  2.6026 -2.7680
  105RES   H16044048   2.202   0.637   1.760 -1.5733 -2.5901  2.2934
  105RES   H16144049   2.178   0.781   1.571 -0.0431  1.8704 -1.1074
  105RES   H16244050   2.019   0.844   1.618  2.4123  1.8391 -0.0480
  105RES   H16344051   1.914   0.625   1.596  0.4689 -0.1110  0.4403
  105RES   H16444052   2.074   0.552   1.582 -0.6406 -0.5615  0.4547
  105RES   H16544053   2.100   0.690   1.372  1.3278 -0.3180  2.6982
  105RES   H16644054   1.927   0.733   1.380  0.8078  0.1668 -2.8789
  105RES   H16744055   2.045   0.465   1.324  0.4018 -0.9549  0.6967
  105RES   H16844056   1.933   0.557   1.222  0.1498  2.6265  1.0467
  105RES   H16944057   1.883   0.492   1.384  1.5042 -2.2858  0.6895
  105RES   C17044058   1.990   0.833   1.956  0.2053  0.4094  0.5197
  105RES   C17144059   1.879   0.920   1.899 -0.1236  0.3722  0.2585
  105RES   C17244060   1.732   0.869   1.931  0.8160  0.2716 -0.7921
  105RES   C17344061   1.619   0.955   1.859  0.1718 -0.3265 -0.0805
  105RES   C17444062   1.624   0.914   1.704  0.4974 -0.0297  0.0607
  105RES   C17544063   1.506   0.966   1.625  0.1382 -0.4772  0.4612
  105RES   C17644064   1.478   0.901   1.487  0.0827 -0.2620  0.6685
  105RES   H17744065   2.079   0.892   1.980  1.4213 -1.5670  0.9380
  105RES   H17844066   1.958   0.793   2.052 -0.8021  0.7753  0.3385
  105RES   H17944067   1.887   0.931   1.791 -2.4571 -3.3702 -0.3897
  105RES   H18044068   1.704   0.868   2.037  0.6880  0.3014 -0.8255
  105RES   H18144069   1.730   0.764   1.903  2.2991  0.3607 -1.2578
  105RES   H18244070   1.621   1.064   1.873  1.4173 -0.3477 -0.0404
  105RES   H18344071   1.520   0.931   1.899  0.6412 -0.8374  0.8033
  105RES   H18444072   1.632   0.806   1.703 -0.3853 -0.0947 -1.0290
  105RES   H18544073   1.719   0.954   1.669  1.2736 -1.0958  0.8980
  105RES   H18644074   1.534   1.069   1.601  1.5467 -0.9721 -0.1337
  105RES   H18744075   1.410   0.963   1.676 -0.3611 -2.3975 -0.5523
  105RES   H18844076   1.398   0.956   1.437  0.0150 -0.2179  0.8239
  105RES   H18944077   1.440   0.800   1.500 -3.2580  0.6385 -1.3977
  105RES   H19044078   1.563   0.903   1.419  0.1425 -2.8726  0.6211
  105RES   C19144079   1.885   1.061   1.964  0.1844  1.2066 -0.5079
  105RES   C19244080   1.987   1.159   1.900 -0.4838  0.0688 -0.3325
  105RES   C19344081   1.934   1.214   1.761  0.2839 -0.4249 -0.8157
  105RES   C19444082   2.033   1.234   1.648 -0.0751  0.2577 -0.2951
  105RES   C19544083   1.968   1.309   1.534 -0.5683 -0.6921 -0.1533
  105RES   C19644084   1.993   1.455   1.542 -0.0892 -0.6200 -0.1549
  105RES   C19744085   1.926   1.543   1.439 -0.0954 -0.4042 -0.1212
  105RES   H19844086   1.905   1.042   2.069 -0.2521 -0.3782 -0.7075
  105RES   H19944087   1.793   1.119   1.961 -1.0802 -0.3069  4.5730
  105RES   H20044088   2.074   1.096   1.879 -0.1652  0.0311  1.0467
  105RES   H20144089   1.884   1.308   1.785  2.0610  0.7937 -1.7913
  105RES   H20244090   1.855   1.155   1.714 -0.7777  0.1689  0.1945
  105RES   H20344091   2.058   1.138   1.604  0.1940  0.0878  0.2239
  105RES   H20444092   2.126   1.280   1.680  0.5560 -0.6341 -0.8187
  105RES   H20544093   2.021   1.277   1.444  1.0683  0.9161  0.2047
  105RES   H20644094   1.860   1.298   1.528 -0.4719 -0.8716 -1.6405
  105RES   H20744095   2.099   1.480   1.547 -0.5977  1.3075  1.5093
  105RES   H20844096   1.963   1.481   1.643 -1.8757 -1.1851 -0.5240
  105RES   H20944097   1.969   1.643   1.449  0.8381 -0.7702 -0.3695
  105RES   H21044098   1.819   1.551   1.457  0.3128  0.4730  2.0583
  105RES   H21144099   1.950   1.521   1.335  0.9126  1.5841 -0.3463
  105RES   C21244100   2.019   1.269   2.002 -0.7197 -0.2682 -0.2769
  105RES   C21344101   2.156   1.257   2.081  0.3083 -0.0755  0.2842
  105RES   C21444102   2.192   1.399   2.154  0.5476 -0.1733 -0.0673
  105RES   C21544103   2.100   1.445   2.267  0.6883 -0.5288  0.4346
  105RES   C21644104   2.110   1.598   2.303  0.2108 -0.0422  0.0274
  105RES   C21744105   2.029   1.626   2.435 -0.3063 -0.0750  0.1505
  105RES   C21844106   2.020   1.771   2.479  0.1264 -0.8216 -0.1563
  105RES   H21944107   1.930   1.282   2.063 -1.0941 -2.8083 -0.1979
  105RES   H22044108   2.032   1.361   1.946  0.8524 -1.6402 -2.2628
  105RES   H22144109   2.227   1.238   2.000 -0.3056  0.4681 -0.3868
  105RES   H22244110   2.298   1.404   2.179  1.0961 -0.3076 -2.3015
  105RES   H22344111   2.181   1.477   2.078  0.6883 -0.7012 -0.6352
  105RES   H22444112   2.114   1.383   2.356 -1.0092  0.2952  1.2883
  105RES   H22544113   2.001   1.413   2.235  0.1558 -0.4982  1.9845
  105RES   H22644114   2.210   1.628   2.333  0.2556  2.9376 -2.8896
  105RES   H22744115   2.081   1.657   2.216 -2.3773  1.5696  1.8884
  105RES   H22844116   1.929   1.585   2.419 -0.6391  1.1191 -0.9199
  105RES   H22944117   2.076   1.569   2.515 -1.2729 -0.6127  0.3348
  105RES   H23044118   1.970   1.841   2.411 -1.2768 -1.7981 -0.1671
  105RES   H23144119   2.121   1.804   2.501  0.6784 -0.4083 -3.0472
  105RES   H23244120   1.946   1.787   2.558  0.4243  3.2125 -0.5944
  105RES   C23344121   2.167   1.141   2.185  0.1565 -0.1036 -0.2564
  105RES   C23444122   2.298   1.103   2.254 -0.6761  0.2348 -0.2415
  105RES   C23544123   2.290   1.124   2.408  1.1021  0.0707 -0.1472
  105RES   C23644124   2.192   1.033   2.480 -0.5398  0.0322  0.0975
  105RES   C23744125   2.185   1.075   2.629  0.1967  0.3417  0.0430
  105RES   C23844126   2.082   0.983   2.706 -0.0823 -0.1075  0.9056
  105RES   C23944127   2.057   1.049   2.844 -0.4462 -0.3692  0.5079
  105RES   H24044128   2.138   1.052   2.130  0.8322 -0.0683 -0.6788
  105RES   H24144129   2.083   1.153   2.254 -0.5138  0.6404 -1.1809
  105RES   H24244130   2.376   1.173   2.225  0.2607  0.6601  3.1032
  105RES   H24344131   2.270   1.229   2.431 -0.6986 -0.2831 -0.0411
  105RES   H24444132   2.385   1.102   2.456  0.8506 -0.9444 -0.1160
  105RES   H24544133   2.214   0.927   2.465  0.0011  0.3832 -1.8038
  105RES   H24644134   2.092   1.046   2.437 -0.2644 -0.3432 -0.6640
  105RES   H24744135   2.159   1.180   2.645 -0.0896  0.1556  0.8258
  105RES   H24844136   2.284   1.052   2.668  0.1146 -1.7447 -0.9504
  105RES   H24944137   1.991   0.969   2.647 -0.6648 -0.1062  1.7943
  105RES   H25044138   2.125   0.885   2.726  1.0568  0.4768  1.3736
  105RES   H25144139   2.153   1.059   2.894 -0.8320 -1.7758  1.5639
  105RES   H25244140   2.038   1.154   2.825  3.4079  0.4504  0.8938
  105RES   H25344141   1.990   0.994   2.910 -0.2559 -1.5554 -0.2655
  105RES   C25444142   2.340   0.962   2.221 -1.0993 -0.1938 -0.3775
  105RES   C25544143   2.375   0.940   2.072  0.4811  0.1938  0.3200
  105RES   C25644144   2.377   0.787   2.045  0.3671 -0.1919 -0.4127
  105RES   C25744145   2.491   0.700   2.097  0.0346  0.4293 -0.3876
  105RES   C25844146   2.468   0.545   2.093  0.2585  0.0943 -0.3254
  105RES   C25944147   2.590   0.470   2.147  0.4748 -0.3642 -0.2019
  105RES   C26044148   2.577   0.319   2.155 -0.9165 -0.7856  0.5219
  105RES   H26144149   2.255   0.901   2.251 -0.0775 -0.7176  1.5356
  105RES   H26244150   2.422   0.928   2.283 -1.7202 -1.6255 -0.3283
  105RES   H26344151   2.287   0.959   2.011 -1.1601 -1.3481  2.1748
  105RES   H26444152   2.365   0.769   1.938 -0.6932  1.8821 -0.6680
  105RES   H26544153   2.283   0.752   2.088  1.0406 -2.3557 -0.6194
  105RES   H26644154   2.575   0.725   2.033  1.5826 -1.3960  0.8540
  105RES   H26744155   2.520   0.719   2.201  0.0870  1.0726 -0.5213
  105RES   H26844156   2.440   0.517   1.991 -0.5024  0.7038 -0.2904
  105RES   H26944157   2.385   0.521   2.159 -0.3344  0.8047 -0.8039
  105RES   H27044158   2.679   0.487   2.086  1.7719  0.0987  1.7724
  105RES   H27144159   2.603   0.505   2.249  1.5451 -0.3966 -0.3214
  105RES   H27244160   2.560   0.270   2.059 -2.5570 -0.8229  0.8169
  105RES   H27344161   2.659   0.265   2.203  0.0413  1.0758  1.0250
  105RES   H27444162   2.494   0.298   2.223 -1.4065  0.4651  0.3199
  105RES   C27544163   2.507   1.009   2.030  0.0173  0.4790  0.5040
  105RES   C27644164   2.511   1.054   1.880 -0.3369 -0.2767 -0.0163
  105RES   C27744165   2.516   0.955   1.769  0.7086 -0.5364  0.3794
  105RES   C27844166   2.640   0.866   1.764  0.5900  0.3531 -0.2794
  105RES   C27944167   2.623   0.731   1.691  0.4314  0.3238 -1.1665
  105RES   C28044168   2.749   0.642   1.675 -0.1530  0.3290  0.1551
  105RES   C28144169   2.804   0.640   1.531  0.0234  0.0214  0.2733
  105RES   H28244170   2.597   0.951   2.055  0.0442  0.8218  1.1994
  105RES   H28344171   2.527   1.096   2.092  2.1649 -0.3821  1.0672
  105RES   H28444172   2.421   1.113   1.867 -0.6571 -0.6711  0.3661
  105RES   H28544173   2.420   0.904   1.778 -0.2935  1.3092  0.2882
  105RES   H28644174   2.498   0.999   1.671 -3.4240 -1.8236  0.4654
  105RES   H28744175   2.663   0.840   1.868  0.9110 -0.0624 -0.4554
  105RES   H28844176   2.725   0.916   1.719  0.2281 -0.3036 -1.7178
  105RES   H28944177   2.589   0.751   1.589  0.3405 -0.2725 -1.2547
  105RES   H29044178   2.536   0.676   1.725  0.4658  0.4033 -0.9535
  105RES   H29144179   2.816   0.687   1.748  1.5049 -0.7969 -0.6388
  105RES   H29244180   2.738   0.540   1.710  0.8793  0.1655  0.0407
  105RES   H29344181   2.911   0.619   1.527 -0.1709 -0.7723 -1.0223
  105RES   H29444182   2.788   0.736   1.481 -1.2368 -0.1319  0.3541
  105RES   H29544183   2.768   0.553   1.477  0.3206 -1.9218  3.0987
  105RES   C29644184   2.629   1.153   1.859 -0.2832 -0.0184 -0.4080
  105RES   C29744185   2.602   1.293   1.894  0.6146 -0.6764 -0.6572
  105RES   C29844186   2.509   1.361   1.786 -0.0690 -0.5296 -0.1370
  105RES   C29944187   2.447   1.498   1.832 -0.6018 -0.4625  1.0118
  105RES   C30044188   2.395   1.575   1.712 -0.0673  0.3701  0.2059
  105RES   C30144189   2.317   1.703   1.719  0.0721 -0.1727 -0.9536
  105RES   C30244190   2.265   1.749   1.580 -0.4637 -0.2606 -0.3569
  105RES   H30344191   2.708   1.115   1.924  1.4705 -0.8932 -2.9543
  105RES   H30444192   2.668   1.144   1.758  3.8472 -0.9443  1.1662
  105RES   H30544193   2.547   1.301   1.987  1.3062  0.2552 -0.3239
  105RES   H30644194   2.570   1.383   1.699 -0.1540 -2.4354 -0.7176
  105RES   H30744195   2.429   1.298   1.746  1.1126 -2.4471  0.4282
  105RES   H30844196   2.522   1.555   1.887  1.3191 -2.2239  0.2765
  105RES   H30944197   2.361   1.481   1.897 -2.1737  1.3706 -0.5145
  105RES   H31044198   2.337   1.506   1.651  1.9596 -1.3181  0.1531
  105RES   H31144199   2.485   1.589   1.653 -0.1419 -0.8201 -0.1916
  105RES   H31244200   2.234   1.696   1.789 -1.1009  5.2124 -1.6088
  105RES   H31344201   2.392   1.777   1.748 -1.2177  1.3705 -1.4424
  105RES   H31444202   2.178   1.808   1.608  0.5948  1.1129  0.0986
  105RES   H31544203   2.334   1.810   1.522 -0.6933  1.3763  1.0451
  105RES   H31644204   2.248   1.670   1.507 -0.5236  0.4399 -1.1157
  105RES   C31744205   2.736   1.373   1.901 -0.8491 -0.1510 -0.3260
  105RES   C31844206   2.834   1.341   2.014 -0.8430  0.7380 -0.3031
  105RES   C31944207   2.982   1.385   1.982  0.2902  0.2754  0.4318
  105RES   C32044208   3.059   1.285   1.895 -0.2686 -0.0462 -0.1615
  105RES   C32144209   3.201   1.342   1.848 -0.1809  0.0008 -0.0492
  105RES   C32244210   3.268   1.247   1.751  0.1679  0.5675  0.3798
  105RES   C32344211   3.420   1.243   1.760 -0.3280  0.6773  0.5357
  105RES   H32444212   2.715   1.480   1.896 -2.4515 -0.3001  2.3790
  105RES   H32544213   2.784   1.362   1.803 -1.6140 -0.1150 -0.7065
  105RES   H32644214   2.844   1.233   2.023  0.3244  0.9557  1.2059
  105RES   H32744215   3.027   1.398   2.081  0.1765  1.2257  0.3644
  105RES   H32844216   2.988   1.487   1.944 -2.7958  1.4611  2.8898
  105RES   H32944217   3.000   1.247   1.811 -1.0572 -0.3678  0.5335
  105RES   H33044218   3.092   1.202   1.958 -4.4622 -1.6075  0.1614
  105RES   H33144219   3.270   1.363   1.930  1.6735  0.3066 -1.6662
  105RES   H33244220   3.185   1.426   1.780  0.2171  0.5563  0.5394
  105RES   H33344221   3.232   1.265   1.650 -0.6535 -0.3039  0.5067
  105RES   H33444222   3.229   1.150   1.780  2.0975 -0.3358  0.0144
  105RES   H33544223   3.464   1.247   1.860 -0.4508  0.1417  0.6125
  105RES   H33644224   3.456   1.326   1.700  1.1911 -0.7660 -0.6145
  105RES   H33744225   3.470   1.159   1.711 -0.2084  2.0691 -1.7661
  105RES   C33844226   2.778   1.370   2.154 -0.8295 -0.4773 -1.3824
  105RES   C33944227   2.855   1.302   2.275 -0.1035 -1.0713 -0.3096
  105RES   C34044228   2.813   1.150   2.286  0.6872 -0.3828 -0.0215
  105RES   C34144229   2.914   1.075   2.380 -0.1966  0.7637  0.3446
  105RES   C34244230   2.885   0.925   2.383 -0.2690  0.0298  1.0088
  105RES   C34344231   2.757   0.886   2.465 -0.4559 -0.1971  0.7419
  105RES   C34444232   2.736   0.732   2.489  0.3284 -0.7958 -0.6234
  105RES   H34544233   2.674   1.340   2.156 -0.9441 -0.0278 -0.3491
  105RES   H34644234   2.765   1.476   2.178  1.5501 -0.4230 -0.2132
  105RES   H34744235   2.962   1.316   2.265 -0.2609  1.0620  0.6243
  105RES   H34844236   2.709   1.124   2.309  0.2856 -1.3926 -2.8263
  105RES   H34944237   2.820   1.102   2.188 -2.2928  1.3571 -1.1631
  105RES   H35044238   2.918   1.109   2.484  1.2887  0.5510  0.3713
  105RES   H35144239   3.015   1.079   2.339  1.0994  1.2430  3.4606
  105RES   H35244240   2.882   0.891   2.279 -1.9400  1.8682  0.4289
  105RES   H35344241   2.977   0.883   2.422  0.0370 -0.1985  0.0662
  105RES   H35444242   2.763   0.940   2.560 -0.8208  2.5418 -0.7355
  105RES   H35544243   2.679   0.926   2.402  2.3961  1.2402 -2.0070
  105RES   H35644244   2.726   0.686   2.390  0.6972 -3.1334  0.4013
  105RES   H35744245   2.644   0.719   2.546 -0.3506  0.9889 -1.2804
  105RES   H35844246   2.827   0.687   2.528  0.1858 -0.2417  0.3518
  105RES   C35944247   2.802   1.373   2.406 -0.8315  0.5714 -0.0514
  105RES   C36044248   2.848   1.513   2.436  0.6227 -1.1542 -0.1180
  105RES   C36144249   2.777   1.589   2.550 -0.0886 -0.0532 -0.8620
  105RES   C36244250   2.637   1.633   2.516  0.5957  0.0466 -0.1939
  105RES   C36344251   2.577   1.744   2.612 -0.1580  0.7422 -0.2397
  105RES   C36444252   2.426   1.761   2.594 -0.1506 -0.3014  0.1114
  105RES   C36544253   2.366   1.878   2.675 -0.1116 -0.3002  0.5017
  105RES   H36644254   2.829   1.321   2.498  0.7438 -1.9430 -1.8611
  105RES   H36744255   2.693   1.371   2.409 -0.9025 -1.6407 -1.9727
  105RES   H36844256   2.841   1.575   2.346 -3.4183 -0.1633  0.8132
  105RES   H36944257   2.773   1.530   2.641  3.4304 -1.7713 -1.7106
  105RES   H37044258   2.829   1.682   2.576 -0.0791 -0.1194 -0.6462
  105RES   H37144259   2.626   1.679   2.417  0.4876 -0.7392 -0.5500
  105RES   H37244260   2.571   1.546   2.518 -0.7594  1.0352  4.3723
  105RES   H37344261   2.610   1.724   2.714 -2.6404  2.5830  0.9487
  105RES   H37444262   2.614   1.842   2.582  1.0181 -0.8417 -4.3082
  105RES   H37544263   2.400   1.781   2.491  0.3584 -0.4105 -0.0414
  105RES   H37644264   2.384   1.664   2.619 -0.4988 -0.6397 -1.7667
  105RES   H37744265   2.366   1.852   2.781 -1.5540  1.3632  0.9321
  105RES   H37844266   2.398   1.982   2.665  0.8157 -0.9751 -4.6968
  105RES   H37944267   2.261   1.880   2.643 -0.1542  1.4761  0.6715
  105RES   C38044268   2.998   1.509   2.466  0.9767 -0.5932 -0.0295
  105RES   C38144269   3.079   1.634   2.426  0.7603  0.1816 -0.4654
  105RES   C38244270   3.204   1.655   2.514  0.1282  0.4945  0.2001
  105RES   C38344271   3.164   1.682   2.660 -0.0305 -1.0128  0.5127
  105RES   C38444272   3.284   1.716   2.742 -0.1348  0.7306 -0.8180
  105RES   C38544273   3.246   1.720   2.894  0.0720 -0.3704 -0.1529
  105RES   C38644274   3.362   1.748   2.990  0.1109  0.1612  0.4889
  105RES   H38744275   3.003   1.483   2.572 -0.1685 -0.2168  0.1198
  105RES   H38844276   3.052   1.430   2.414 -0.0179 -2.4460  1.6569
  105RES   H38944277   3.020   1.718   2.463  1.9933  0.9631 -0.2587
  105RES   H39044278   3.265   1.738   2.480 -1.4045  0.9667 -1.4034
  105RES   H39144279   3.265   1.565   2.514 -0.6501 -0.0444 -1.7870
  105RES   H39244280   3.085   1.755   2.675  1.3554  0.9138 -1.2996
  105RES   H39344281   3.123   1.592   2.707 -0.1479 -0.8568  0.7042
  105RES   H39444282   3.371   1.651   2.734 -1.2924 -1.2345  1.6714
  105RES   H39544283   3.319   1.815   2.713  0.2892  0.4549 -1.2553
  105RES   H39644284   3.205   1.621   2.913 -0.1660 -0.4133 -0.8642
  105RES   H39744285   3.167   1.793   2.910  0.7587  0.7294 -1.7067
  105RES   H39844286   3.447   1.679   2.979  1.0887  1.4219  0.0624
  105RES   H39944287   3.335   1.754   3.095  0.4361  3.6022  0.4069
  105RES   H40044288   3.390   1.853   2.988  3.4250 -0.6690 -0.0095
  105RES   C40144289   3.109   1.638   2.269 -0.2175  0.3490 -0.2481
  105RES   C40244290   3.161   1.772   2.215 -0.4509  0.1407 -0.3087
  105RES   C40344291   3.200   1.759   2.067  0.3445 -0.4635  0.0805
  105RES   C40444292   3.285   1.885   2.031  0.7576  1.0902 -0.0925
  105RES   C40544293   3.240   1.972   1.915 -0.4612 -0.0517 -0.7222
  105RES   C40644294   3.142   2.072   1.963  0.2475  0.2458 -0.3101
  105RES   C40744295   3.131   2.192   1.864  1.1009 -0.5811  0.2313
  105RES   H40844296   3.011   1.618   2.225 -0.5251  0.6136  0.3119
  105RES   H40944297   3.175   1.559   2.232 -1.9854 -0.8949 -0.8074
  105RES   H41044298   3.251   1.810   2.265  0.5553 -0.7076 -1.4482
  105RES   H41144299   3.109   1.760   2.008  1.0539 -1.2220 -1.0428
  105RES   H41244300   3.257   1.668   2.047  1.2113  0.4032 -1.5176
  105RES   H41344301   3.383   1.848   1.999 -0.3161 -0.8176 -1.2851
  105RES   H41444302   3.312   1.941   2.120  0.9495 -2.2968  2.0920
  105RES   H41544303   3.323   2.014   1.859  2.4637 -1.4643  2.3358
  105RES   H41644304   3.201   1.909   1.834  2.0432 -0.7529 -1.4057
  105RES   H41744305   3.046   2.020   1.970  1.3210 -1.7985 -0.1715
  105RES   H41844306   3.167   2.125   2.054 -1.3179 -1.8087  1.3803
  105RES   H41944307   3.044   2.249   1.897 -0.9979 -2.3249 -2.1060
  105RES   H42044308   3.106   2.153   1.765 -1.7208  1.4823  0.0623
  105RES   H42144309   3.219   2.255   1.854  0.6531  0.2693  1.5573
  105RES   H42244310   3.082   1.845   2.231 -0.9919 -0.4882 -0.1058
  106RES     C144311   1.507   4.710   0.655  0.6432  0.0753  0.2687
  106RES     C244312   1.569   4.617   0.557 -0.6764 -0.0896 -0.0303
  106RES     C344313   1.545   4.646   0.412  0.1836 -0.2121  0.8575
  106RES     C444314   1.582   4.792   0.372 -0.1146 -0.2190  0.3185
  106RES     C544315   1.575   4.823   0.218 -0.0777  0.4237 -0.2595
  106RES     C644316   1.699   4.759   0.158  0.7256  0.4121 -0.3526
  106RES     C744317   1.720   4.816   0.018  0.2660 -0.3203  0.0594
  106RES     H844318   1.402   4.731   0.639 -0.1607 -2.2322  2.1399
  106RES     H944319   1.548   4.811   0.659  0.5006  0.1479 -0.1666
  106RES    H1044320   1.677   4.626   0.569 -0.8711  1.0172  1.0836
  106RES    H1144321   1.603   4.574   0.354  3.0649  2.5697  0.1390
  106RES    H1244322   1.438   4.637   0.394 -0.2139 -1.3494  3.5825
  106RES    H1344323   1.508   4.859   0.416 -1.1860 -0.6592 -0.7944
  106RES    H1444324   1.681   4.814   0.412  0.0012  0.8200 -0.5357
  106RES    H1544325   1.566   4.929   0.193 -1.3499  0.0262 -1.5578
  106RES    H1644326   1.480   4.784   0.181 -1.0559  1.3187  1.2343
  106RES    H1744327   1.694   4.650   0.153 -1.1046  0.4997 -0.9010
  106RES    H1844328   1.790   4.775   0.217  0.6059  1.8375 -0.5611
  106RES    H1944329   1.731   4.924   0.031 -2.2491 -0.1522  1.0727
  106RES    H2044330   1.636   4.783   7.684  0.8099  1.1031 -1.5142
  106RES    H2144331   1.811   4.772   7.703 -1.4955 -2.1662 -1.9797
  106RES    H2244332   1.507   4.684   0.761  0.5383  2.6057  0.9110
  106RES    C2344333   1.530   4.475   0.595  0.3682  1.0510 -0.3617
  106RES    C2444334   1.380   4.425   0.607 -1.3851  0.2627 -0.3637
  106RES    C2544335   1.358   4.355   0.740 -0.0898  0.1186 -0.3713
  106RES    C2644336   1.421   4.217   0.753 -0.2577 -0.9098 -0.3644
  106RES    C2744337   1.407   4.165   0.896  0.2658  0.6517  0.0991
  106RES    C2844338   1.519   4.066   0.930  0.4891  0.2102 -0.4149
  106RES    C2944339   1.506   3.932   0.864  0.1366  0.0299 -0.2721
  106RES    H3044340   1.583   4.403   0.533  0.4022  0.6487  0.1315
  106RES    H3144341   1.587   4.458   0.686  0.6033  0.0931 -0.6810
  106RES    H3244342   1.324   4.518   0.612  1.3072  1.9739 -1.1099
  106RES    H3344343   1.250   4.344   0.750 -0.2376 -0.4544 -2.3937
  106RES    H3444344   1.382   4.420   0.825  1.4585  0.5999 -1.1548
  106RES    H3544345   1.526   4.230   0.724  0.0694 -0.6565  0.9111
  106RES    H3644346   1.372   4.146   0.687  0.5459  1.3114 -3.5217
  106RES    H3744347   1.312   4.114   0.902  0.2949  0.7374  1.6394
  106RES    H3844348   1.415   4.243   0.973  1.8217  1.0698 -0.4594
  106RES    H3944349   1.516   4.052   1.038 -1.5965  0.0723 -0.4764
  106RES    H4044350   1.619   4.106   0.915  0.0032  0.8617 -1.9345
  106RES    H4144351   1.434   3.869   0.917 -0.2674  0.8306  0.1461
  106RES    H4244352   1.465   3.935   0.764 -2.1878  0.3981  0.6581
  106RES    H4344353   1.606   3.889   0.864  0.4273  0.6981 -0.1508
  106RES    C4444354   1.340   4.346   0.480 -0.1623 -0.1169 -0.2831
  106RES    C4544355   1.193   4.296   0.471  0.3960  0.2967  0.4070
  106RES    C4644356   1.091   4.415   0.476 -0.5718 -0.0172  0.3313
  106RES    C4744357   1.091   4.507   0.355 -0.9264 -0.5832 -1.1717
  106RES    C4844358   0.975   4.614   0.358 -0.6073 -0.2189 -0.1385
  106RES    C4944359   1.008   4.719   0.468 -0.5311  0.1628  0.0180
  106RES    C5044360   0.890   4.822   0.488 -0.1043 -0.6676 -0.1489
  106RES    H5144361   1.402   4.256   0.475  2.2199  1.1422  3.8537
  106RES    H5244362   1.351   4.409   0.392 -3.6819  0.0582 -0.6663
  106RES    H5344363   1.177   4.250   0.569  0.1795  1.0917  0.7583
  106RES    H5444364   1.112   4.465   0.571  2.3031 -0.9641  0.2395
  106RES    H5544365   0.990   4.373   0.477 -0.7416  0.3777  2.6659
  106RES    H5644366   1.192   4.547   0.351 -1.3479  0.7068  0.7569
  106RES    H5744367   1.088   4.445   0.265  1.1933 -0.5794 -1.2681
  106RES    H5844368   0.879   4.564   0.369 -0.5468 -0.1540  0.7291
  106RES    H5944369   0.971   4.676   0.269  1.6434  1.0398  0.5908
  106RES    H6044370   1.090   4.781   0.433 -0.4291 -0.4596 -0.8618
  106RES    H6144371   1.030   4.671   0.563  0.5145 -2.4409 -1.5004
  106RES    H6244372   0.880   4.899   0.412 -0.7799  0.8764  1.4904
  106RES    H6344373   0.910   4.884   0.575  1.9228  0.7929 -1.5896
  106RES    H6444374   0.795   4.769   0.497 -0.4530 -0.1699 -0.8448
  106RES    C6544375   1.178   4.183   0.360  0.0343 -0.0105 -0.3680
  106RES    C6644376   1.041   4.105   0.355 -0.7005 -0.5856 -0.0473
  106RES    C6744377   1.021   4.021   0.485  0.1684 -0.0048  0.2861
  106RES    C6844378   1.127   3.914   0.525 -0.2861  0.5883 -0.3892
  106RES    C6944379   1.120   3.884   0.672 -0.1367  0.0087 -0.8282
  106RES    C7044380   1.225   3.772   0.711  0.0355 -0.3226 -0.4204
  106RES    C7144381   1.175   3.635   0.673 -0.2964  0.4382 -0.2206
  106RES    H7244382   1.199   4.233   0.265  0.0675  1.5401  0.4379
  106RES    H7344383   1.262   4.114   0.359  0.3475  0.3721 -0.9739
  106RES    H7444384   0.961   4.179   0.354  0.1117  0.3025 -0.0005
  106RES    H7544385   1.013   4.093   0.568  0.8797 -0.1670  0.4972
  106RES    H7644386   0.918   3.983   0.482  0.3674 -0.5334  0.1693
  106RES    H7744387   1.127   3.827   0.459  0.1827  0.1493  0.1750
  106RES    H7844388   1.221   3.960   0.495 -0.9509  1.3287 -1.3579
  106RES    H7944389   1.157   3.976   0.718  1.8288  0.3058 -2.9352
  106RES    H8044390   1.017   3.867   0.705 -0.3930  1.3811 -0.9068
  106RES    H8144391   1.241   3.788   0.818 -1.2062  1.0532 -0.4135
  106RES    H8244392   1.319   3.792   0.660  1.6567  0.6752  2.7935
  106RES    H8344393   1.234   3.551   0.707 -2.4776 -1.2467 -0.4624
  106RES    H8444394   1.071   3.610   0.696 -0.4723  1.8955  0.6147
  106RES    H8544395   1.197   3.631   0.566  0.9065 -1.7431  0.0865
  106RES    C8644396   1.037   4.003   0.240 -0.0881  0.1210 -0.2989
  106RES    C8744397   1.021   4.075   0.101  0.1010 -0.3227  0.0651
  106RES    C8844398   1.056   3.986   7.704  0.0717 -0.3385  0.7575
  106RES    C8944399   1.197   3.931   7.712  0.3850 -0.1900 -0.2301
  106RES    C9044400   1.307   4.044   7.698  0.3013  0.1938  0.1411
  106RES    C9144401   1.450   3.984   7.708 -0.9342  0.1227  0.5768
  106RES    C9244402   1.473   3.848   7.641 -0.0807  0.3677  0.5618
  106RES    H9344403   1.137   3.961   0.246  1.0290  2.5815 -0.8786
  106RES    H9444404   0.978   3.915   0.264  0.4710 -0.6947 -1.8586
  106RES    H9544405   1.094   4.155   0.092  0.9395 -0.9539  1.1245
  106RES    H9644406   0.991   3.899   7.711 -1.6139  0.9609  1.4326
  106RES    H9744407   1.030   4.035   7.610 -1.1644  0.4699  1.5012
  106RES    H9844408   1.212   3.875   0.077  1.2616 -1.6035 -1.2093
  106RES    H9944409   1.211   3.864   7.627 -0.4163  0.3979 -0.8307
  106RES   H10044410   1.302   4.135   0.030  0.0670  0.4710 -0.3115
  106RES   H10144411   1.287   4.083   7.598 -0.3476  1.3503  0.7188
  106RES   H10244412   1.520   4.064   7.682  0.4780 -1.0181  0.7843
  106RES   H10344413   1.471   3.973   0.088  2.9830 -2.5938 -0.3408
  106RES   H10444414   1.575   3.810   7.646 -0.1899  0.1715  1.3389
  106RES   H10544415   1.446   3.836   7.536 -0.2867 -2.2083  0.8796
  106RES   H10644416   1.413   3.774   7.692  1.1840 -1.9844 -1.2632
  106RES   C10744417   0.873   4.123   0.079  0.0329 -0.3377  0.0241
  106RES   C10844418   0.855   4.235   7.697 -0.2804 -0.0411 -0.5564
  106RES   C10944419   0.706   4.248   7.664 -0.3438 -0.1617  0.5099
  106RES   C11044420   0.659   4.141   7.557 -0.9404  0.4658 -0.2911
  106RES   C11144421   0.502   4.154   7.532  0.1966  0.1304  0.1201
  106RES   C11244422   0.452   4.058   7.424 -0.3912  0.2689 -0.4925
  106RES   C11344423   0.309   4.061   7.382  0.1340 -0.1014 -0.3369
  106RES   H11444424   0.844   4.155   0.179  2.3403  0.0847  0.6011
  106RES   H11544425   0.818   4.031   0.059  1.8944 -1.8796  1.7678
  106RES   H11644426   0.904   4.205   7.605  0.6531 -2.2845  0.6126
  106RES   H11744427   0.689   4.346   7.620 -0.2537 -0.8465 -1.1200
  106RES   H11844428   0.647   4.238   0.028  1.6685 -1.3301  1.7130
  106RES   H11944429   0.710   4.142   7.461 -0.4865  0.0929 -0.0598
  106RES   H12044430   0.681   4.039   7.589 -1.1078  0.7884  0.8909
  106RES   H12144431   0.487   4.261   7.513  2.4824  0.2647 -1.1499
  106RES   H12244432   0.449   4.133   7.624  1.9633 -3.6304  0.3934
  106RES   H12344433   0.515   4.067   7.336  0.5494  1.0726  0.2401
  106RES   H12444434   0.464   3.961   7.472  0.8531  1.1427  1.0273
  106RES   H12544435   0.277   3.979   7.317  1.6704 -0.0010 -1.2368
  106RES   H12644436   0.250   4.052   7.474  0.1056 -0.5496 -0.3971
  106RES   H12744437   0.279   4.151   7.329 -0.6568 -0.6402 -0.8287
  106RES   C12844438   0.916   4.373   0.014 -0.4088 -0.3957  0.1004
  106RES   C12944439   0.925   4.489   7.639 -0.0446 -0.9079  0.8663
  106RES   C13044440   1.026   4.463   7.523  0.3199  0.0892  0.0699
  106RES   C13144441   0.974   4.399   7.393 -0.2703 -0.4880  0.8221
  106RES   C13244442   1.080   4.403   7.273  0.6941  0.2060 -0.3426
  106RES   C13344443   1.193   4.295   7.284  0.1325 -0.8441 -0.0322
  106RES   C13444444   1.295   4.289   7.167  0.2790 -0.2985  0.3063
  106RES   H13544445   0.861   4.407   0.102  0.8789  2.0331  0.0115
  106RES   H13644446   1.020   4.372   0.047 -0.6903  3.4730  1.3513
  106RES   H13744447   0.828   4.504   7.590 -0.8735  0.5525  2.8618
  106RES   H13844448   1.106   4.402   7.565  0.7239  0.8179  0.3824
  106RES   H13944449   1.060   4.561   7.488  1.0982  0.1914  1.0601
  106RES   H14044450   0.893   4.457   7.349  2.4387  0.0700 -3.8577
  106RES   H14144451   0.935   4.298   7.404  1.0680 -1.0206  0.8524
  106RES   H14244452   1.125   4.502   7.261 -0.5824  0.6930 -1.2177
  106RES   H14344453   1.022   4.375   7.186  0.4389  1.1078 -0.4708
  106RES   H14444454   1.151   4.195   7.298  0.8006 -0.8255  2.2627
  106RES   H14544455   1.254   4.328   7.367 -0.1860 -0.3069 -0.0079
  106RES   H14644456   1.368   4.209   7.183  1.1603  0.5132  0.4052
  106RES   H14744457   1.353   4.382   7.166 -1.2301  0.6471  0.0756
  106RES   H14844458   1.252   4.282   7.067  2.5615 -0.3387 -0.7183
  106RES   C14944459   0.960   4.620   7.708 -0.7277 -0.2143 -0.1204
  106RES   C15044460   0.932   4.756   7.633  0.3578  0.3934 -0.1613
  106RES   C15144461   0.948   4.873   0.005 -0.4249  0.5786  0.0298
  106RES   C15244462   1.098   4.898   0.047 -0.0555  0.6769 -0.2144
  106RES   C15344463   1.124   5.026   0.120  0.0048  0.3974 -0.0712
  106RES   C15444464   1.276   5.060   0.138 -0.0668 -0.3234 -0.3194
  106RES   C15544465   1.341   5.111   0.010  0.1404 -0.1595  0.2806
  106RES   H15644466   0.892   4.627   0.067 -1.3403  3.2451 -0.8060
  106RES   H15744467   1.062   4.613   0.018 -0.1037  0.6941 -1.6457
  106RES   H15844468   1.001   4.766   7.550 -0.1750  1.6966 -0.4603
  106RES   H15944469   0.922   4.971   7.691 -0.2974  0.0196 -1.4600
  106RES   H16044470   0.884   4.864   0.092 -0.8906 -1.2552 -0.4828
  106RES   H16144471   1.161   4.888   7.685  1.5569 -0.7319  1.0602
  106RES   H16244472   1.143   4.825   0.114 -1.2611  1.5376  1.5668
  106RES   H16344473   1.067   5.007   0.211  1.5438 -1.4819  0.5351
  106RES   H16444474   1.073   5.109   0.071  0.7058 -0.4349 -2.2619
  106RES   H16544475   1.323   4.967   0.172 -1.5030 -0.5561  1.0371
  106RES   H16644476   1.278   5.141   0.210 -1.0872 -1.5922  1.1731
  106RES   H16744477   1.426   5.174   0.036  1.4552 -0.4885 -3.0280
  106RES   H16844478   1.269   5.173   7.683  1.8895  1.8152  0.1676
  106RES   H16944479   1.387   5.038   7.670  0.5409  0.5696 -0.2499
  106RES   C17044480   0.781   4.772   7.587  0.8820 -0.9286  0.1617
  106RES   C17144481   0.756   4.758   7.438 -0.7498  0.1448 -0.5053
  106RES   C17244482   0.614   4.710   7.391 -0.6298 -0.1367 -0.4766
  106RES   C17344483   0.586   4.563   7.427 -0.8394 -0.2429  0.6838
  106RES   C17444484   0.456   4.515   7.357 -0.0153  0.1512  0.6367
  106RES   C17544485   0.481   4.483   7.210  0.0488 -0.7308 -0.2181
  106RES   C17644486   0.556   4.352   7.187 -0.3985 -0.4436 -0.2092
  106RES   H17744487   0.738   4.865   7.622  0.2118 -0.5642 -1.5861
  106RES   H17844488   0.723   4.696   7.639 -1.2006  0.5909  0.1118
  106RES   H17944489   0.815   4.680   7.389 -1.3464 -2.0626  2.2165
  106RES   H18044490   0.579   4.723   7.289 -2.6263 -1.6468 -0.0178
  106RES   H18144491   0.556   4.772   7.459 -0.3557  1.4951 -1.7157
  106RES   H18244492   0.565   4.557   7.534  0.8358  0.1330  1.0393
  106RES   H18344493   0.672   4.499   7.410 -0.8659 -0.0163 -0.3448
  106RES   H18444494   0.382   4.595   7.354  1.1733  1.4638  4.0086
  106RES   H18544495   0.412   4.422   7.392 -0.6920  0.4621  0.6101
  106RES   H18644496   0.540   4.560   7.159  0.3327 -1.9318 -1.7458
  106RES   H18744497   0.388   4.470   7.155  0.1463  1.8905 -1.1136
  106RES   H18844498   0.483   4.276   7.214 -2.2820  0.4779 -2.4755
  106RES   H18944499   0.647   4.341   7.246 -0.5018 -3.9529 -0.6171
  106RES   H19044500   0.583   4.333   7.083 -0.5507 -0.0097 -0.3299
  106RES   C19144501   0.787   4.881   7.353  0.2983  0.0749  0.3310
  106RES   C19244502   0.864   4.861   7.221  0.5290 -0.3905 -0.5503
  106RES   C19344503   1.014   4.824   7.229  0.3251  0.1739  0.2037
  106RES   C19444504   1.094   4.926   7.308 -0.2206  0.5057 -0.3293
  106RES   C19544505   1.249   4.881   7.313  0.1793 -0.3437 -0.4545
  106RES   C19644506   1.327   4.992   7.377 -0.1145 -0.1644  0.0402
  106RES   C19744507   1.470   4.958   7.412 -0.3411  0.1660  1.1510
  106RES   H19844508   0.840   4.942   7.426  0.3432 -0.6995  0.9576
  106RES   H19944509   0.699   4.944   7.335  0.2323 -0.7335 -2.3297
  106RES   H20044510   0.862   4.962   7.181 -1.0854 -0.5977 -1.0333
  106RES   H20144511   1.061   4.825   7.131 -0.4683 -0.4128 -0.1865
  106RES   H20244512   1.023   4.724   7.273  1.0536 -0.1002 -0.5595
  106RES   H20344513   1.059   4.930   7.411  2.0131 -0.9392  0.5229
  106RES   H20444514   1.066   5.023   7.265  0.9963  0.9110 -0.2435
  106RES   H20544515   1.255   4.788   7.369  1.1302  0.1605  0.2870
  106RES   H20644516   1.296   4.858   7.217  1.9927 -0.5632  0.4582
  106RES   H20744517   1.281   5.010   7.473 -2.0383  0.8135 -1.0468
  106RES   H20844518   1.326   5.084   7.318  3.0622 -0.1173 -0.0553
  106RES   H20944519   1.533   4.915   7.334 -0.3857  1.7103  0.2313
  106RES   H21044520   1.486   4.893   7.498  2.0266 -0.6770  0.1108
  106RES   H21144521   1.518   5.053   7.434  0.2859 -0.5255  2.8134
  106RES   C21244522   0.785   4.771   7.115 -0.0308 -0.7087 -0.9530
  106RES   C21344523   0.838   4.774   6.970 -0.8786 -0.5020  0.3040
  106RES   C21444524   0.787   4.648   6.886  0.2060  0.3677 -0.2458
  106RES   C21544525   0.859   4.528   6.935  0.2421 -0.1739  0.5341
  106RES   C21644526   0.827   4.398   6.845  0.4387  0.2520  0.5308
  106RES   C21744527   0.935   4.291   6.863  0.8352 -0.5718  0.5192
  106RES   C21844528   0.893   4.152   6.817 -0.1323 -0.3222  0.5063
  106RES   H21944529   0.678   4.790   7.107  0.1922  0.9352 -0.3753
  106RES   H22044530   0.791   4.667   7.145 -1.0166  0.0613  2.0795
  106RES   H22144531   0.946   4.779   6.966 -0.9091  1.8889  1.5010
  106RES   H22244532   0.679   4.630   6.887  0.4367 -1.0260  1.1686
  106RES   H22344533   0.800   4.659   6.779 -0.6567  0.5484 -0.3386
  106RES   H22444534   0.843   4.497   7.039 -0.7158 -3.5668 -0.5506
  106RES   H22544535   0.963   4.556   6.927  0.0263  0.6312  0.4956
  106RES   H22644536   0.732   4.353   6.874  0.6372 -0.6157 -0.1647
  106RES   H22744537   0.810   4.409   6.738  0.3700 -0.0129  0.5155
  106RES   H22844538   1.019   4.317   6.798  1.0801 -2.2717  0.1420
  106RES   H22944539   0.964   4.271   6.967 -0.1531 -1.8778  0.5509
  106RES   H23044540   0.845   4.141   6.720  0.9376  2.6590 -0.4420
  106RES   H23144541   0.822   4.105   6.885 -1.1200 -1.3713 -1.2240
  106RES   H23244542   0.981   4.089   6.827 -0.9301 -1.2577  1.7526
  106RES   C23344543   0.782   4.900   6.904  0.4843 -0.4984  0.3630
  106RES   C23444544   0.828   4.931   6.762  0.3057  0.2897  0.3898
  106RES   C23544545   0.720   5.009   6.686  0.3772  0.2607 -0.2233
  106RES   C23644546   0.661   5.131   6.751  0.6309  0.0381 -0.4518
  106RES   C23744547   0.545   5.183   6.679  0.0789  0.1136  0.9162
  106RES   C23844548   0.472   5.298   6.746  0.1963  0.1771  0.7255
  106RES   C23944549   0.391   5.374   6.648  0.2846  0.0720 -0.8922
  106RES   H24044550   0.798   4.984   6.971 -0.8813 -0.0188  0.1091
  106RES   H24144551   0.674   4.886   6.914  0.2888  1.3365  0.8965
  106RES   H24244552   0.832   4.836   6.708 -1.7618 -0.4417  1.4941
  106RES   H24344553   0.635   4.942   6.673 -0.1346  0.5630  1.4714
  106RES   H24444554   0.758   5.025   6.585 -1.7216  0.4920 -0.9843
  106RES   H24544555   0.735   5.204   6.785  1.3735 -0.8377 -0.1549
  106RES   H24644556   0.633   5.097   6.850 -2.9679 -1.5214 -1.9138
  106RES   H24744557   0.488   5.092   6.659  0.8956  0.0625 -1.3807
  106RES   H24844558   0.570   5.218   6.578  2.4174 -2.3414  0.5922
  106RES   H24944559   0.405   5.265   6.825  2.2618  0.6732  2.7382
  106RES   H25044560   0.550   5.365   6.782  1.2634 -0.8699  0.4230
  106RES   H25144561   0.455   5.427   6.578  1.0810 -1.2888 -1.2117
  106RES   H25244562   0.334   5.304   6.588 -0.7200 -0.4295  0.6108
  106RES   H25344563   0.319   5.445   6.688  1.2940  1.7484 -1.9926
  106RES   C25444564   0.966   5.009   6.758 -0.1684  0.2714 -0.5026
  106RES   C25544565   1.061   4.994   6.635 -0.6555 -1.0204 -0.1366
  106RES   C25644566   1.131   4.859   6.639 -0.3260  0.4492  0.3947
  106RES   C25744567   1.220   4.820   6.763  0.1315 -0.7331 -0.5556
  106RES   C25844568   1.287   4.686   6.727 -0.4036 -0.4971  0.0703
  106RES   C25944569   1.393   4.643   6.833  0.1138 -0.0485 -0.2107
  106RES   C26044570   1.341   4.648   6.982 -0.4453 -0.0477  0.7623
  106RES   H26144571   1.024   4.989   6.848  0.2556  1.0542 -0.5981
  106RES   H26244572   0.958   5.117   6.774  1.9800  0.2070  1.1499
  106RES   H26344573   1.001   4.991   6.545 -2.9539  1.0951  1.2605
  106RES   H26444574   1.200   4.843   6.556 -0.4907 -0.8201  0.4915
  106RES   H26544575   1.060   4.777   6.626  1.5766 -1.3007  0.7940
  106RES   H26644576   1.294   4.898   6.783 -1.1024  1.2341 -3.2548
  106RES   H26744577   1.153   4.813   6.849  0.5881  3.2788  0.2270
  106RES   H26844578   1.335   4.674   6.630  2.2559  2.0216  1.0006
  106RES   H26944579   1.197   4.624   6.728 -1.4793  1.0070  1.5828
  106RES   H27044580   1.441   4.546   6.821 -0.8131 -0.6951  1.1342
  106RES   H27144581   1.467   4.722   6.827 -0.3560  0.2625 -2.2709
  106RES   H27244582   1.423   4.619   7.048  1.9455 -1.3374 -2.6753
  106RES   H27344583   1.317   4.748   7.018  0.3044  0.2421  0.4628
  106RES   H27444584   1.253   4.587   7.002 -0.8077 -0.8181 -2.9729
  106RES   C27544585   1.174   5.103   6.619  0.2556 -0.5023 -0.1561
  106RES   C27644586   1.135   5.243   6.563 -0.0323 -0.1515 -0.3260
  106RES   C27744587   1.045   5.247   6.440  0.7780  0.6127  0.3411
  106RES   C27844588   1.100   5.193   6.308 -0.6942  0.4822  0.3943
  106RES   C27944589   1.003   5.179   6.197 -0.0464  0.1279  0.3776
  106RES   C28044590   1.075   5.176   6.068 -0.2570  0.0291  0.0687
  106RES   C28144591   0.986   5.152   5.947 -0.7456 -0.2381  0.2575
  106RES   H28244592   1.246   5.050   6.556  0.8516 -0.0636  0.1503
  106RES   H28344593   1.206   5.115   6.723  3.4208  2.8392 -1.3990
  106RES   H28444594   1.062   5.289   6.630 -0.3351 -1.0056 -0.0696
  106RES   H28544595   0.956   5.192   6.473  0.4587  2.2502  2.2981
  106RES   H28644596   0.988   5.337   6.418  0.8122  0.6893  0.5719
  106RES   H28744597   1.149   5.097   6.322 -3.0383 -0.4958  2.2107
  106RES   H28844598   1.178   5.262   6.276  0.2406  0.0911  1.7865
  106RES   H28944599   0.938   5.267   6.195  1.6174  1.4675  2.1625
  106RES   H29044600   0.939   5.092   6.208  0.4431 -0.1908  0.7289
  106RES   H29144601   1.119   5.275   6.061  0.0062 -0.1739 -1.4974
  106RES   H29244602   1.157   5.104   6.071 -0.0756  0.2808  1.0896
  106RES   H29344603   0.952   5.048   5.946 -1.1594 -0.0984 -0.5709
  106RES   H29444604   1.041   5.173   5.855 -0.5351 -0.3619  0.3533
  106RES   H29544605   0.899   5.216   5.943 -0.0616  0.6211 -2.0536
  106RES   C29644606   1.252   5.350   6.556 -0.2332 -0.5438 -0.3673
  106RES   C29744607   1.217   5.497   6.504 -0.2915 -0.1171  0.7263
  106RES   C29844608   1.337   5.578   6.463 -0.1654 -0.8303  0.2114
  106RES   C29944609   1.427   5.619   6.580 -0.1746 -0.4048 -0.3859
  106RES   C30044610   1.520   5.737   6.531 -0.1735 -0.3853  0.0894
  106RES   C30144611   1.603   5.790   6.646  0.1782  0.2889  0.2497
  106RES   C30244612   1.692   5.920   6.629  0.0540  0.7779 -0.3653
  106RES   H30344613   1.297   5.358   6.655  2.8910  1.4340 -1.8442
  106RES   H30444614   1.339   5.311   6.502  0.8661  1.0743  0.1776
  106RES   H30544615   1.170   5.480   6.407 -1.4651 -0.0053  1.2728
  106RES   H30644616   1.401   5.529   6.390  0.5294 -0.9485  0.8970
  106RES   H30744617   1.307   5.667   6.409  0.7310  0.0456  1.1343
  106RES   H30844618   1.493   5.538   6.614 -1.5442 -1.3938 -0.0543
  106RES   H30944619   1.359   5.646   6.660  1.3461  0.6561  0.5796
  106RES   H31044620   1.461   5.809   6.474 -0.5528 -0.2842  0.5970
  106RES   H31144621   1.595   5.708   6.458 -1.1415  0.0199 -1.0747
  106RES   H31244622   1.524   5.822   6.714 -0.7007  0.4920 -0.8440
  106RES   H31344623   1.660   5.710   6.692 -1.2131  0.2969  2.0507
  106RES   H31444624   1.628   6.005   6.605 -1.4408 -0.5582 -1.2312
  106RES   H31544625   1.747   5.938   6.721 -0.3204  0.4053 -0.0648
  106RES   H31644626   1.763   5.892   6.551 -2.2718 -2.3239 -1.4892
  106RES   C31744627   1.111   5.560   6.597 -0.4707  0.0071  0.3347
  106RES   C31844628   1.055   5.691   6.534 -0.0170 -0.2343 -0.9753
  106RES   C31944629   0.968   5.664   6.407  0.4393 -0.5727 -0.5419
  106RES   C32044630   1.018   5.706   6.272 -0.6036  0.0652 -0.6016
  106RES   C32144631   0.913   5.686   6.157  0.0870 -0.4846  0.5785
  106RES   C32244632   0.948   5.729   6.025 -0.2481 -0.6952 -0.2796
  106RES   C32344633   1.029   5.629   5.940  0.8164 -0.2261 -0.3883
  106RES   H32444634   1.157   5.576   6.694 -2.0871 -0.8597  1.2559
  106RES   H32544635   1.035   5.489   6.628  2.2938 -2.8559  0.7020
  106RES   H32644636   1.137   5.759   6.510 -1.0795  0.5139 -2.5958
  106RES   H32744637   0.874   5.717   6.422  1.6679  1.6570 -0.5806
  106RES   H32844638   0.934   5.560   6.407  1.8141 -1.0234 -0.5467
  106RES   H32944639   1.118   5.673   6.246 -1.1764 -1.5407 -0.8521
  106RES   H33044640   1.033   5.814   6.266 -0.6352  0.0666 -0.6554
  106RES   H33144641   0.818   5.727   6.192 -0.3979 -0.9241 -0.2175
  106RES   H33244642   0.885   5.581   6.149  1.4059 -0.7834 -0.1862
  106RES   H33344643   0.992   5.829   6.031 -1.9568  0.0448  0.1464
  106RES   H33444644   0.859   5.737   5.963 -0.9683  2.3440  1.0464
  106RES   H33544645   1.130   5.626   5.980  0.6811 -0.8180 -0.0878
  106RES   H33644646   1.020   5.654   5.834 -1.0489  0.2760 -0.1249
  106RES   H33744647   0.984   5.531   5.957  1.5545 -0.2206  1.6678
  106RES   C33844648   0.969   5.745   6.643 -0.5110 -0.5905 -0.8786
  106RES   C33944649   0.904   5.887   6.630 -0.1594  0.0570 -0.1202
  106RES   C34044650   1.016   5.993   6.594  0.2713  0.4291 -0.0723
  106RES   C34144651   1.135   6.008   6.691  0.5483  0.2211  0.4752
  106RES   C34244652   1.223   6.127   6.655  0.3042 -0.2618 -1.1126
  106RES   C34344653   1.334   6.161   6.757  0.0493 -0.0482 -0.1131
  106RES   C34444654   1.439   6.250   6.702 -0.7160  0.7071 -0.0905
  106RES   H34544655   1.039   5.756   6.726 -1.9771 -1.0578  0.4517
  106RES   H34644656   0.895   5.671   6.676 -1.0077  0.6076  0.7670
  106RES   H34744657   0.832   5.879   6.549  0.1268 -0.3382 -0.3391
  106RES   H34844658   1.051   5.975   6.492 -1.3666  0.7953 -0.7204
  106RES   H34944659   0.959   6.085   6.588  0.7739  0.8016  0.7848
  106RES   H35044660   1.191   5.914   6.683  3.4987  1.9729 -0.0706
  106RES   H35144661   1.101   6.015   6.794 -1.1874  0.2592 -0.0889
  106RES   H35244662   1.263   6.125   6.553  0.9003  1.8902 -0.9394
  106RES   H35344663   1.153   6.210   6.651 -0.2952 -0.5384  2.3550
  106RES   H35444664   1.286   6.206   6.843  1.0387  0.9264 -0.0513
  106RES   H35544665   1.377   6.073   6.806 -2.0881 -1.2877 -0.4080
  106RES   H35644666   1.402   6.343   6.659  0.0766  1.1464  0.1571
  106RES   H35744667   1.501   6.199   6.628 -1.0622 -0.4758  0.4246
  106RES   H35844668   1.501   6.299   6.777  0.0153  0.4503 -0.5131
  106RES   C35944669   0.836   5.930   6.768  0.0415 -0.2609 -0.5475
  106RES   C36044670   0.751   6.060   6.766  0.6119 -0.1221  0.0964
  106RES   C36144671   0.642   6.064   6.659  0.2774 -0.4339 -0.1143
  106RES   C36244672   0.533   5.947   6.672 -0.1133 -0.1210  0.5007
  106RES   C36344673   0.447   5.940   6.542 -0.0042  0.3560  0.2792
  106RES   C36444674   0.354   5.823   6.572  0.4564 -0.0730  0.5836
  106RES   C36544675   0.266   5.790   6.461  0.1619  1.0388  0.6852
  106RES   H36644676   0.911   5.948   6.845  0.8918  0.3640 -1.5088
  106RES   H36744677   0.782   5.843   6.804  0.5883 -0.6054 -0.5527
  106RES   H36844678   0.815   6.148   6.753  0.3004  0.4753  2.2425
  106RES   H36944679   0.585   6.157   6.669  1.6411  0.3543  0.3779
  106RES   H37044680   0.683   6.076   6.559  1.1922  0.1103  0.3225
  106RES   H37144681   0.588   5.855   6.689  0.5909  0.4818  1.5335
  106RES   H37244682   0.464   5.956   6.755  0.0478 -1.4590  0.7945
  106RES   H37344683   0.390   6.030   6.518 -0.5054 -0.7297 -2.7533
  106RES   H37444684   0.508   5.920   6.454 -0.3739 -0.4605  0.2068
  106RES   H37544685   0.417   5.740   6.602 -1.8413 -3.2453 -2.9113
  106RES   H37644686   0.302   5.851   6.664 -0.7052 -1.3959  0.3360
  106RES   H37744687   0.321   5.785   6.366 -0.9429 -2.5939  0.1546
  106RES   H37844688   0.218   5.692   6.468 -0.3241  1.3454  1.6155
  106RES   H37944689   0.201   5.875   6.447 -2.1178 -0.6415  0.8082
  106RES   C38044690   0.689   6.079   6.909  0.0246 -0.0313  0.7966
  106RES   C38144691   0.775   6.160   7.010  0.2828  0.5007  0.1009
  106RES   C38244692   0.772   6.307   6.974  0.0669 -0.3402 -0.5913
  106RES   C38344693   0.902   6.360   6.911 -1.3036 -0.2144 -0.1017
  106RES   C38444694   0.994   6.431   7.011  0.6995 -0.0252 -0.5863
  106RES   C38544695   1.124   6.485   6.950 -0.1779 -0.1075 -0.0433
  106RES   C38644696   1.213   6.568   7.043 -0.0284  0.0868  0.0225
  106RES   H38744697   0.587   6.118   6.910  0.7725  1.9233  1.2568
  106RES   H38844698   0.680   5.979   6.952 -0.2981 -0.2687  0.1858
  106RES   H38944699   0.875   6.119   7.021  0.7397  0.9345 -2.1517
  106RES   H39044700   0.753   6.377   7.055  0.6981  0.2827 -0.9663
  106RES   H39144701   0.687   6.330   6.908  1.7960 -0.0990 -2.7972
  106RES   H39244702   0.957   6.278   6.866 -0.4734  0.3261 -0.0893
  106RES   H39344703   0.879   6.422   6.824 -0.3347 -0.9492 -0.8827
  106RES   H39444704   0.937   6.511   7.057 -0.6494 -0.6787 -1.0955
  106RES   H39544705   1.008   6.355   7.088  1.5898 -0.0812 -0.7974
  106RES   H39644706   1.106   6.540   6.857  0.1626 -0.9073 -0.5957
  106RES   H39744707   1.187   6.404   6.913 -0.5275  0.2134 -1.3984
  106RES   H39844708   1.159   6.648   7.093  0.1839  0.5845 -0.5339
  106RES   H39944709   1.305   6.606   6.997  1.1433 -1.0481  1.3936
  106RES   H40044710   1.248   6.501   7.121 -2.9721  1.5315  2.6727
  106RES   C40144711   0.720   6.147   7.149  0.6105  0.0318 -0.2473
  106RES   C40244712   0.734   6.008   7.219  0.5546  0.5872  0.2413
  106RES   C40344713   0.711   6.025   7.375 -0.0693  0.5566  0.1345
  106RES   C40444714   0.823   6.104   7.448 -0.2478  0.4498  0.3147
  106RES   C40544715   0.784   6.116   7.596 -0.6112 -0.5796  0.0024
  106RES   C40644716   0.882   6.202   7.683 -0.0411  0.2125  0.5869
  106RES   C40744717   0.828   6.218   0.097  0.2671  0.2345  0.0363
  106RES   H40844718   0.612   6.165   7.141 -0.0460 -1.1260  4.5665
  106RES   H40944719   0.763   6.224   7.212  3.9475 -1.3446 -0.7500
  106RES   H41044720   0.834   5.969   7.201 -0.2944 -1.0554 -1.1225
  106RES   H41144721   0.706   5.924   7.416 -1.8968  0.8287  0.6329
  106RES   H41244722   0.615   6.066   7.406  0.5668  0.9946  1.5629
  106RES   H41344723   0.834   6.209   7.419  1.9757 -0.0714 -0.7916
  106RES   H41444724   0.920   6.058   7.430  0.1066  1.1431  0.4413
  106RES   H41544725   0.686   6.157   7.620 -0.4891  0.2556 -0.9131
  106RES   H41644726   0.778   6.014   7.634 -2.0194  0.2852  2.1911
  106RES   H41744727   0.984   6.164   7.690  0.3120  0.7465 -1.3989
  106RES   H41844728   0.884   6.298   7.631  0.3571 -1.6965 -3.0994
  106RES   H41944729   0.906   6.263   0.159 -2.1716  3.0360  1.1945
  106RES   H42044730   0.805   6.118   0.134  0.6646  0.0682 -0.1557
  106RES   H42144731   0.728   6.259   0.112  0.1586  0.2749 -0.7749
  106RES   H42244732   0.660   5.937   7.183  1.4818 -1.2660  1.8328
  107RES     C144733   3.011   5.431   5.757 -0.2196  0.5278  0.3443
  107RES     C244734   2.870   5.500   5.774  0.0081 -0.5142  0.0821
  107RES     C344735   2.768   5.385   5.798  0.2403 -0.1672 -0.3959
  107RES     C444736   2.625   5.440   5.839 -0.1101 -0.8050  0.0417
  107RES     C544737   2.522   5.329   5.857 -0.6161  0.5066  0.1100
  107RES     C644738   2.380   5.378   5.892  0.5578 -0.6377 -0.5978
  107RES     C744739   2.300   5.404   5.756  0.4459 -0.1761 -0.2229
  107RES     H844740   3.054   5.379   5.843 -0.7142 -3.0824 -1.4569
  107RES     H944741   3.079   5.510   5.727 -1.1684  1.1250 -0.2440
  107RES    H1044742   2.865   5.571   5.857 -1.4901  1.7083 -1.8342
  107RES    H1144743   2.760   5.319   5.712  2.4515 -0.3128 -0.5345
  107RES    H1244744   2.805   5.329   5.885 -0.0842 -1.1278 -0.8769
  107RES    H1344745   2.630   5.493   5.934  0.6941  1.9832 -1.5155
  107RES    H1444746   2.591   5.511   5.764  0.1659 -2.1896 -1.4130
  107RES    H1544747   2.558   5.273   5.943 -0.3257  0.1373 -0.2505
  107RES    H1644748   2.512   5.255   5.778 -1.5781  1.8789 -1.0646
  107RES    H1744749   2.378   5.457   5.966  2.0451  0.5907 -1.8378
  107RES    H1844750   2.331   5.297   5.945  2.0378 -0.1960  1.5005
  107RES    H1944751   2.299   5.319   5.687 -0.7350 -1.4465  1.3310
  107RES    H2044752   2.354   5.483   5.703  0.1841 -0.7472 -1.3555
  107RES    H2144753   2.200   5.437   5.782  0.7446 -0.4898  1.3271
  107RES    H2244754   3.005   5.363   5.672  1.2141  2.9046 -1.7091
  107RES    C2344755   2.838   5.566   5.638  0.5959  0.4388 -0.3129
  107RES    C2444756   2.936   5.676   5.593  0.5488 -0.2441  0.9602
  107RES    C2544757   2.977   5.778   5.693  0.2444 -0.3074 -0.3987
  107RES    C2644758   2.866   5.858   5.752 -0.1268  0.8193  0.1353
  107RES    C2744759   2.890   5.887   5.898  0.3708  0.7009  0.0244
  107RES    C2844760   2.792   5.995   5.957 -0.1212  0.0004 -0.3193
  107RES    C2944761   2.821   6.140   5.910  0.0464 -0.9036  0.2006
  107RES    H3044762   2.820   5.488   5.563 -1.5148 -1.0355  1.6371
  107RES    H3144763   2.742   5.615   5.653 -0.9241 -2.2467 -0.9741
  107RES    H3244764   3.029   5.626   5.567  0.6622  1.1224 -1.3771
  107RES    H3344765   3.049   5.846   5.646  0.8781 -0.5131  0.2589
  107RES    H3444766   3.036   5.740   5.777  1.2475  0.0217 -0.9470
  107RES    H3544767   2.771   5.803   5.748 -0.6168  1.6046  0.7921
  107RES    H3644768   2.864   5.948   5.692 -0.7568  1.2865  0.8421
  107RES    H3744769   2.993   5.923   5.904  0.7418 -0.5199  1.1526
  107RES    H3844770   2.870   5.796   5.954  2.3560 -0.9385 -1.8488
  107RES    H3944771   2.821   6.005   6.062 -0.3520 -0.9017 -0.1706
  107RES    H4044772   2.686   5.971   5.948 -0.6700  1.5559  1.5624
  107RES    H4144773   2.780   6.219   5.974  3.5320  0.0432  1.3744
  107RES    H4244774   2.929   6.155   5.910  0.0126 -0.5877 -1.2841
  107RES    H4344775   2.795   6.157   5.806  0.5666  2.3330  0.5538
  107RES    C4444776   2.883   5.737   5.460  0.2859 -0.1951 -0.4945
  107RES    C4544777   2.965   5.844   5.375 -0.2343 -0.4246  0.6677
  107RES    C4644778   3.112   5.805   5.351 -0.4460 -0.4778 -0.0785
  107RES    C4744779   3.202   5.924   5.312  0.4940 -0.7075  0.3440
  107RES    C4844780   3.352   5.882   5.313  0.6974 -0.0541 -0.4218
  107RES    C4944781   3.429   5.953   5.211 -0.0141  0.0523  0.5769
  107RES    C5044782   3.586   5.910   5.218  0.1711 -0.4982 -0.2393
  107RES    H5144783   2.778   5.767   5.465  0.5584  0.8915 -1.1123
  107RES    H5244784   2.869   5.647   5.400  2.5556 -1.2210  0.4601
  107RES    H5344785   2.962   5.938   5.431  0.3550 -0.8658  1.4557
  107RES    H5444786   3.119   5.732   5.270 -0.1075 -0.6557  0.1077
  107RES    H5544787   3.159   5.756   5.437  1.4361 -1.2618 -1.5247
  107RES    H5644788   3.165   5.960   5.216 -1.7005 -0.8752  1.0991
  107RES    H5744789   3.181   6.006   5.381 -0.5443 -0.5584 -0.1410
  107RES    H5844790   3.367   5.774   5.313  1.4428  0.0135  1.5264
  107RES    H5944791   3.400   5.908   5.408 -0.0841  2.6349 -0.7385
  107RES    H6044792   3.411   6.060   5.227 -1.6769  0.1591 -1.7297
  107RES    H6144793   3.387   5.942   5.111 -2.8276 -0.9453  1.8185
  107RES    H6244794   3.647   5.969   5.150  1.3470 -0.1156  1.1207
  107RES    H6344795   3.607   5.805   5.196  0.5960 -0.1295 -1.6537
  107RES    H6444796   3.628   5.931   5.317 -4.5341  1.5595  1.4448
  107RES    C6544797   2.884   5.871   5.246  0.1380 -0.0276 -0.3280
  107RES    C6644798   2.748   5.959   5.269 -0.2079  0.2994  0.4595
  107RES    C6744799   2.653   5.955   5.140  0.4229  0.8116  0.3458
  107RES    C6844800   2.716   6.016   5.015 -0.1479  0.0138 -0.5852
  107RES    C6944801   2.619   6.038   4.895 -0.2447  0.6564 -0.3035
  107RES    C7044802   2.681   6.056   4.757 -0.1225 -0.1039 -0.3440
  107RES    C7144803   2.579   6.068   4.642 -0.0645  0.2807  0.4036
  107RES    H7244804   2.942   5.931   5.176  0.8053  0.0847  0.3102
  107RES    H7344805   2.868   5.771   5.206  0.8626 -0.6518  0.9153
  107RES    H7444806   2.687   5.895   5.333 -0.2144  0.3634  0.5167
  107RES    H7544807   2.642   5.851   5.109  1.0092  1.3040 -1.5905
  107RES    H7644808   2.559   6.007   5.159  1.2850  1.5085  2.9169
  107RES    H7744809   2.769   6.106   5.047  1.9937 -1.2108 -0.5882
  107RES    H7844810   2.801   5.955   4.986 -1.4977 -1.1501 -2.1244
  107RES    H7944811   2.556   5.949   4.888  0.8562 -0.2517  1.0620
  107RES    H8044812   2.545   6.114   4.918 -1.0565 -0.9850  2.9084
  107RES    H8144813   2.749   5.974   4.736  0.3923 -0.1030  1.2606
  107RES    H8244814   2.739   6.149   4.762  0.2572 -0.4316  1.9385
  107RES    H8344815   2.532   6.161   4.673  0.1094  1.0310 -1.5266
  107RES    H8444816   2.622   6.089   4.544  0.4835  0.4281  0.6747
  107RES    H8544817   2.515   5.980   4.637 -2.1008  1.7773 -0.5138
  107RES    C8644818   2.757   6.095   5.339  0.1604 -0.2478 -0.0010
  107RES    C8744819   2.635   6.180   5.392 -0.0536  0.0646  0.0376
  107RES    C8844820   2.545   6.075   5.455  0.0247 -0.9592 -0.3755
  107RES    C8944821   2.604   6.005   5.586 -0.0020 -0.6283 -0.0133
  107RES    C9044822   2.494   5.941   5.666 -0.0713 -0.3045  0.6243
  107RES    C9144823   2.408   5.841   5.595  0.2720  0.0138  0.1827
  107RES    C9244824   2.332   5.756   5.691  0.2007 -0.3165  0.0078
  107RES    H9344825   2.825   6.086   5.424  2.0640  0.1439 -1.4498
  107RES    H9444826   2.805   6.167   5.273 -0.0403 -1.1026 -1.0881
  107RES    H9544827   2.582   6.229   5.310 -0.1349  0.6601  0.4431
  107RES    H9644828   2.446   6.112   5.482 -0.4789 -2.7207  0.2329
  107RES    H9744829   2.522   5.998   5.381  0.3638 -1.1721 -0.2603
  107RES    H9844830   2.680   5.929   5.569 -0.5453 -1.8322  2.5477
  107RES    H9944831   2.646   6.087   5.645 -0.3167 -1.6066  1.6270
  107RES   H10044832   2.427   6.013   5.713  0.6090 -0.0324  1.1970
  107RES   H10144833   2.531   5.888   5.754 -1.4124  1.1421  2.0915
  107RES   H10244834   2.333   5.893   5.535  0.6138 -1.0470 -1.1971
  107RES   H10344835   2.461   5.781   5.520 -0.9147 -0.8377  0.0022
  107RES   H10444836   2.268   5.817   5.755 -0.8366 -0.8465 -0.5168
  107RES   H10544837   2.398   5.696   5.753 -1.6679 -0.6472  1.7465
  107RES   H10644838   2.259   5.696   5.637  0.2873 -0.0183 -0.4525
  107RES   C10744839   2.673   6.300   5.487  0.3189  0.0100 -0.4883
  107RES   C10844840   2.730   6.426   5.416 -0.7904 -0.5222 -0.2067
  107RES   C10944841   2.631   6.501   5.326  0.4714 -0.3441  0.3870
  107RES   C11044842   2.628   6.461   5.175  0.0601  0.4938  0.1935
  107RES   C11144843   2.516   6.526   5.090 -0.0489  0.2912 -0.2689
  107RES   C11244844   2.502   6.462   4.954 -0.3124 -0.0519 -0.2081
  107RES   C11344845   2.623   6.483   4.862  0.3683 -0.0173  0.2478
  107RES   H11444846   2.753   6.257   5.548 -0.0393 -1.2061 -0.8630
  107RES   H11544847   2.588   6.323   5.551  1.2958  0.2986  0.7297
  107RES   H11644848   2.820   6.401   5.360  0.7661  2.3477  0.9183
  107RES   H11744849   2.654   6.607   5.314 -1.4757 -0.0098 -0.6651
  107RES   H11844850   2.528   6.498   5.361  0.3621 -0.5860  0.0482
  107RES   H11944851   2.724   6.483   5.129  0.0619  1.3583  0.6203
  107RES   H12044852   2.609   6.354   5.160 -1.8004  0.8071  0.1582
  107RES   H12144853   2.540   6.632   5.081  0.3902  0.1266 -1.2333
  107RES   H12244854   2.422   6.519   5.144 -0.1149 -1.9664 -0.6225
  107RES   H12344855   2.480   6.355   4.961  1.2423 -0.3864 -0.2457
  107RES   H12444856   2.416   6.514   4.913  0.2575  1.3604  0.3780
  107RES   H12544857   2.657   6.586   4.859  1.4826 -0.3548  1.0056
  107RES   H12644858   2.704   6.412   4.877  0.5277  0.0488 -0.3170
  107RES   H12744859   2.590   6.473   4.759 -0.7918 -0.4618  0.6487
  107RES   C12844860   2.789   6.513   5.534  0.0684  0.1786  0.8461
  107RES   C12944861   2.905   6.612   5.495  0.4127  0.2897  0.0071
  107RES   C13044862   3.047   6.548   5.490  0.4976 -0.2959  0.2926
  107RES   C13144863   3.106   6.499   5.626 -0.0003  0.5603 -0.6200
  107RES   C13244864   3.218   6.393   5.604 -0.2430  0.1766  0.2477
  107RES   C13344865   3.177   6.268   5.538  0.1474 -0.3229  0.4647
  107RES   C13444866   3.108   6.166   5.647  0.2815 -0.1448  0.2080
  107RES   H13544867   2.707   6.566   5.582 -0.8761 -0.0468 -0.4761
  107RES   H13644868   2.830   6.453   5.615 -0.6946  0.3576  1.3611
  107RES   H13744869   2.878   6.651   5.397  0.9007  0.5722 -0.0157
  107RES   H13844870   3.108   6.629   5.449  1.2093 -1.8611 -1.8306
  107RES   H13944871   3.038   6.473   5.412  3.0669 -0.9879  0.5952
  107RES   H14044872   3.033   6.447   5.688  0.2445 -2.4704 -2.7768
  107RES   H14144873   3.148   6.580   5.686  1.5796 -0.8805  0.2797
  107RES   H14244874   3.259   6.367   5.701 -2.2240  1.3652  1.4295
  107RES   H14344875   3.309   6.436   5.564 -0.6941  1.5749  0.7191
  107RES   H14444876   3.264   6.220   5.494 -0.1114  0.0100 -0.4262
  107RES   H14544877   3.115   6.283   5.449 -1.0190  0.4134  1.3813
  107RES   H14644878   3.184   6.137   5.719 -0.5753 -3.3244 -0.0963
  107RES   H14744879   3.068   6.073   5.607 -1.3720  1.7261 -2.7609
  107RES   H14844880   3.028   6.218   5.700  0.4926  1.0912 -0.6454
  107RES   C14944881   2.911   6.747   5.574 -0.4096  0.0400 -0.7907
  107RES   C15044882   2.804   6.865   5.553  0.0009  0.1645  0.7229
  107RES   C15144883   2.677   6.830   5.635  0.5610 -0.1969  0.1682
  107RES   C15244884   2.580   6.943   5.671  0.0469  0.6025  0.0655
  107RES   C15344885   2.457   6.913   5.761  0.0386 -0.3054 -0.4962
  107RES   C15444886   2.404   7.049   5.833 -0.0514 -0.1281 -0.5650
  107RES   C15544887   2.474   7.086   5.968 -0.4464 -0.4840  0.6892
  107RES   H15644888   2.926   6.726   5.680 -0.2531  2.6865 -0.2316
  107RES   H15744889   3.008   6.789   5.547  1.1658 -2.5105  0.7318
  107RES   H15844890   2.851   6.950   5.603 -1.1544  0.7668  0.8131
  107RES   H15944891   2.620   6.754   5.582  0.7172 -0.7733  0.8108
  107RES   H16044892   2.699   6.783   5.731  2.0697  0.7819  0.3082
  107RES   H16144893   2.537   6.975   5.576  1.6863 -2.5409 -1.7981
  107RES   H16244894   2.626   7.038   5.701  1.4430 -1.2137  4.0718
  107RES   H16344895   2.472   6.834   5.834  0.6306  1.8522  1.8088
  107RES   H16444896   2.378   6.872   5.699  1.8476 -2.5636 -1.3561
  107RES   H16544897   2.300   7.028   5.861  0.8128 -1.0136  2.1347
  107RES   H16644898   2.391   7.135   5.767 -0.2687  0.8877  0.7803
  107RES   H16744899   2.500   6.996   6.022 -0.0536 -1.0601 -0.4370
  107RES   H16844900   2.412   7.146   6.034 -2.7916  0.7173 -2.4461
  107RES   H16944901   2.563   7.146   5.948  0.2310 -1.5261  0.5543
  107RES   C17044902   2.779   6.899   5.407  0.2105 -0.0164 -0.2573
  107RES   C17144903   2.892   6.952   5.317 -0.0831 -0.1318 -0.5038
  107RES   C17244904   2.861   6.978   5.167  0.1330 -0.4764 -0.3934
  107RES   C17344905   2.857   6.864   5.065  0.5166  0.0856 -0.0343
  107RES   C17444906   2.989   6.787   5.040  0.5896  0.5077 -0.1301
  107RES   C17544907   2.967   6.697   4.915  0.4344  0.8704  0.3807
  107RES   C17644908   3.099   6.643   4.855 -0.3967 -0.3605  0.2411
  107RES   H17744909   2.707   6.981   5.397 -2.5102 -2.3701 -0.4419
  107RES   H17844910   2.724   6.820   5.357 -1.2674  0.7562  0.1106
  107RES   H17944911   2.975   6.881   5.316 -0.4824 -0.6185  0.1804
  107RES   H18044912   2.933   7.044   5.120 -1.2681  0.5894 -1.0995
  107RES   H18144913   2.773   7.043   5.170  1.1708  0.9014  1.5631
  107RES   H18244914   2.813   6.902   4.973  0.2448 -0.9152 -0.3230
  107RES   H18344915   2.785   6.790   5.101 -0.7584  1.0120 -0.6201
  107RES   H18444916   3.017   6.733   5.130 -1.7859  2.1248  1.6486
  107RES   H18544917   3.073   6.858   5.035  0.1404  1.2596  2.2450
  107RES   H18644918   2.924   6.748   4.829 -1.0270 -0.1535  0.4816
  107RES   H18744919   2.900   6.611   4.925 -0.4387  1.5443  0.3986
  107RES   H18844920   3.136   6.566   4.922  0.2453 -0.0529  0.2526
  107RES   H18944921   3.173   6.722   4.838 -0.1892 -0.9165 -1.6339
  107RES   H19044922   3.079   6.595   4.759  0.8985 -0.1715 -0.1402
  107RES   C19144923   2.953   7.085   5.363  0.3100  0.0802 -0.2914
  107RES   C19244924   3.103   7.106   5.328  0.4282 -0.0034  0.2957
  107RES   C19344925   3.135   7.257   5.344 -0.4941  0.9266  0.7494
  107RES   C19444926   3.079   7.339   5.232  0.0235  0.0390  0.1631
  107RES   C19544927   3.079   7.489   5.262 -0.3205  0.4165  0.1981
  107RES   C19644928   3.038   7.569   5.139 -0.7639 -0.0458 -0.5428
  107RES   C19744929   2.919   7.520   5.061  0.0103  0.2334 -0.0258
  107RES   H19844930   2.942   7.097   5.470  0.8056 -3.8949  0.2804
  107RES   H19944931   2.891   7.165   5.322  3.1630  0.9117 -3.1801
  107RES   H20044932   3.120   7.081   5.223  1.6009 -1.4776  0.8144
  107RES   H20144933   3.243   7.274   5.352  0.1074 -0.7047 -2.8899
  107RES   H20244934   3.101   7.286   5.444  0.4207  2.8632  0.5353
  107RES   H20344935   2.974   7.311   5.219 -0.3578  1.5430 -0.1645
  107RES   H20444936   3.143   7.317   5.146  0.8694  1.9819  0.2677
  107RES   H20544937   3.030   7.516   5.355  2.2203  2.4408  0.9880
  107RES   H20644938   3.181   7.522   5.279 -0.2622  1.2548 -1.5619
  107RES   H20744939   3.119   7.563   5.066 -2.1204 -0.6520 -2.0355
  107RES   H20844940   3.032   7.670   5.181 -0.4933  0.1777 -1.0281
  107RES   H20944941   2.828   7.555   5.110 -0.3006  0.7391 -0.9568
  107RES   H21044942   2.916   7.412   5.052 -0.9725  0.4017 -2.0140
  107RES   H21144943   2.918   7.562   4.960  1.4276  0.4494  0.0352
  107RES   C21244944   3.188   7.008   5.409 -0.2530 -0.5558 -0.2446
  107RES   C21344945   3.339   7.012   5.374 -0.1338 -0.4805  0.1480
  107RES   C21444946   3.425   6.944   5.485  0.0391  0.2662 -0.9137
  107RES   C21544947   3.379   6.812   5.531 -0.1891  0.7022  0.7973
  107RES   C21644948   3.474   6.742   5.635 -0.3286 -0.5194 -0.3116
  107RES   C21744949   3.578   6.647   5.566  0.0529 -0.0945  0.1108
  107RES   C21844950   3.660   6.573   5.668  0.2564 -0.4522  0.6175
  107RES   H21944951   3.158   6.903   5.402  1.3205 -1.0617  0.3811
  107RES   H22044952   3.182   7.031   5.515 -0.2343 -1.6456  0.0036
  107RES   H22144953   3.376   7.115   5.376  1.1049 -0.8628 -1.4784
  107RES   H22244954   3.530   6.954   5.455 -0.4457  2.0003 -2.0872
  107RES   H22344955   3.425   7.012   5.570  0.1372 -1.6385  0.6316
  107RES   H22444956   3.365   6.747   5.445  2.0485  1.1597  0.0423
  107RES   H22544957   3.276   6.810   5.567 -0.5067 -1.8723 -0.1380
  107RES   H22644958   3.519   6.814   5.703  0.9576 -0.8776 -0.7870
  107RES   H22744959   3.413   6.677   5.698 -2.1278  1.1841 -0.2428
  107RES   H22844960   3.517   6.576   5.510 -0.3032 -0.4164  0.8951
  107RES   H22944961   3.643   6.694   5.492 -1.5462 -0.9545 -1.8860
  107RES   H23044962   3.587   6.508   5.716  2.0322 -1.8319  1.4935
  107RES   H23144963   3.701   6.647   5.737  1.2875 -1.7774  1.4592
  107RES   H23244964   3.734   6.505   5.625 -0.3240 -1.3826  1.0638
  107RES   C23344965   3.377   6.950   5.230  0.9151 -0.2149  0.2991
  107RES   C23444966   3.506   7.015   5.159 -0.7420  1.1120  0.5662
  107RES   C23544967   3.580   6.909   5.080  0.2693  0.2177 -0.2469
  107RES   C23644968   3.686   6.830   5.156 -0.3889 -0.1816 -0.4897
  107RES   C23744969   3.781   6.751   5.054  0.1044  0.0830  0.6770
  107RES   C23844970   3.880   6.652   5.125  0.6169 -0.0347 -0.2551
  107RES   C23944971   3.978   6.593   5.023  0.0970 -0.7285  0.2103
  107RES   H24044972   3.290   6.979   5.171  1.0945 -1.5030 -0.6182
  107RES   H24144973   3.367   6.841   5.235  0.1057 -0.2184 -1.1749
  107RES   H24244974   3.580   7.041   5.234 -1.1427  1.4489  0.8433
  107RES   H24344975   3.624   6.963   4.996 -0.4715 -0.8369 -1.3256
  107RES   H24444976   3.517   6.835   5.031 -1.0214  0.4769  0.9858
  107RES   H24544977   3.653   6.759   5.232  1.0492 -0.4004 -0.0526
  107RES   H24644978   3.746   6.903   5.210 -0.1716 -1.3860  0.9130
  107RES   H24744979   3.843   6.816   4.993  0.9958 -1.2660  0.1227
  107RES   H24844980   3.708   6.702   4.989 -1.4815  0.3777  2.2088
  107RES   H24944981   3.929   6.716   5.198 -0.5305 -0.2509  0.7171
  107RES   H25044982   3.832   6.568   5.176  0.9044 -1.4199 -2.1812
  107RES   H25144983   3.920   6.511   4.981 -0.9938 -0.5136  1.2788
  107RES   H25244984   4.032   6.658   4.954 -2.4454 -0.0554 -1.2031
  107RES   H25344985   4.058   6.547   5.082 -0.3061  1.1633  2.3037
  107RES   C25444986   3.465   7.152   5.087  0.5966  0.5415  0.3783
  107RES   C25544987   3.592   7.236   5.056  0.2216 -0.4717 -1.0491
  107RES   C25644988   3.631   7.324   5.181 -0.0744 -0.1359 -0.2725
  107RES   C25744989   3.766   7.397   5.180  0.2563  0.5941 -0.2837
  107RES   C25844990   3.877   7.293   5.163 -0.1708 -0.7970  0.1266
  107RES   C25944991   4.011   7.361   5.167 -0.3993  0.3650  0.3123
  107RES   C26044992   4.121   7.258   5.145  0.5911  0.6798 -0.0772
  107RES   H26144993   3.403   7.215   5.150  0.5381 -0.1157  0.9913
  107RES   H26244994   3.411   7.121   4.997  0.3377 -0.1193  0.7562
  107RES   H26344995   3.675   7.167   5.040  0.7561  0.0838 -0.6974
  107RES   H26444996   3.642   7.259   5.268 -0.6394 -0.0055 -0.1020
  107RES   H26544997   3.545   7.379   5.217 -0.1973 -1.2523  1.1971
  107RES   H26644998   3.762   7.465   5.094 -0.9725  0.9135  0.0158
  107RES   H26744999   3.777   7.459   5.269  0.0287 -0.9699  0.8290
  107RES   H26845000   3.859   7.236   5.072 -1.1229 -0.0669 -0.1539
  107RES   H26945001   3.861   7.216   5.239  0.5013 -1.8670 -0.7982
  107RES   H27045002   4.007   7.437   5.089  0.3557 -2.9248 -3.1164
  107RES   H27145003   4.034   7.408   5.262  1.9386  0.4948 -0.2686
  107RES   H27245004   4.117   7.202   5.238 -1.5987  2.0050  0.6643
  107RES   H27345005   4.096   7.198   5.058  1.5198  0.2020 -0.0267
  107RES   H27445006   4.217   7.312   5.145  0.7112  0.4777  1.3849
  107RES   C27545007   3.571   7.322   4.925 -0.5980  0.8927  0.3107
  107RES   C27645008   3.545   7.239   4.797  0.3771  0.3900 -0.6156
  107RES   C27745009   3.680   7.163   4.753 -0.5868 -0.2150  0.0199
  107RES   C27845010   3.647   7.020   4.695  0.0507  0.5147  0.3615
  107RES   C27945011   3.769   6.932   4.704 -0.3187 -0.5113  0.5571
  107RES   C28045012   3.741   6.802   4.622  0.5511  0.2678  0.7961
  107RES   C28145013   3.865   6.701   4.640 -0.0450  0.4316  0.5584
  107RES   H28245014   3.660   7.380   4.898  0.5744 -0.1573  1.8367
  107RES   H28345015   3.488   7.390   4.942 -1.7418  0.1508 -2.0456
  107RES   H28445016   3.465   7.166   4.811 -0.9756  1.8841 -0.3767
  107RES   H28545017   3.734   7.232   4.688 -0.9030 -0.5669 -0.6269
  107RES   H28645018   3.751   7.152   4.835  0.1908 -0.8048 -0.7125
  107RES   H28745019   3.621   7.035   4.590 -0.3152 -2.7342 -0.0650
  107RES   H28845020   3.561   6.978   4.747 -0.3848  0.9664  0.0071
  107RES   H28945021   3.771   6.896   4.807 -1.8554  1.0391  1.1458
  107RES   H29045022   3.854   6.987   4.664  1.1740 -1.6437  2.0884
  107RES   H29145023   3.649   6.755   4.656  0.3263  0.5016  0.5152
  107RES   H29245024   3.731   6.821   4.515 -1.9751  2.1080  1.3056
  107RES   H29345025   3.953   6.732   4.584  0.3317  1.4261  1.6634
  107RES   H29445026   3.826   6.602   4.616 -0.6130  0.9691 -0.7389
  107RES   H29545027   3.887   6.706   4.747 -2.2613 -0.2910  1.0959
  107RES   C29645028   3.495   7.330   4.681 -0.2219 -0.4273 -0.1406
  107RES   C29745029   3.407   7.257   4.571 -0.2798 -0.6629 -0.2413
  107RES   C29845030   3.394   7.342   4.439  0.4443 -0.5594 -0.2830
  107RES   C29945031   3.525   7.350   4.345  0.0424 -0.1349  0.1271
  107RES   C30045032   3.515   7.450   4.235  0.3187 -0.4516  0.5441
  107RES   C30145033   3.634   7.457   4.141 -0.0939  0.3428  0.5683
  107RES   C30245034   3.614   7.566   4.034  0.7297  0.0503  0.2839
  107RES   H30345035   3.439   7.417   4.715 -0.5825 -0.7153  0.0105
  107RES   H30445036   3.581   7.379   4.636 -0.7050 -0.0810 -0.6835
  107RES   H30545037   3.453   7.163   4.539  0.5056 -0.0411 -0.9348
  107RES   H30645038   3.312   7.302   4.379 -0.7701  2.3136 -0.6440
  107RES   H30745039   3.365   7.442   4.471  0.5215 -0.5552 -0.2286
  107RES   H30845040   3.544   7.251   4.303 -0.7958 -0.2024 -0.1037
  107RES   H30945041   3.606   7.390   4.406 -0.9728  2.2019 -0.0231
  107RES   H31045042   3.507   7.552   4.273  3.4291 -0.1718  0.5631
  107RES   H31145043   3.431   7.425   4.170  1.4489 -0.5354 -0.9006
  107RES   H31245044   3.719   7.483   4.205  0.2774  3.3520 -1.0461
  107RES   H31345045   3.654   7.358   4.100  0.8400  0.1615  1.4241
  107RES   H31445046   3.605   7.661   4.087  0.6345 -0.9778  2.1595
  107RES   H31545047   3.705   7.578   3.976 -0.3062 -2.0376 -1.8116
  107RES   H31645048   3.540   7.548   3.956  0.7392  0.2470  0.2265
  107RES   C31745049   3.259   7.211   4.620  0.2070 -0.4989  0.2203
  107RES   C31845050   3.219   7.061   4.624  0.2881 -0.6432 -0.1723
  107RES   C31945051   3.110   7.033   4.727  0.6344 -0.4091 -0.7934
  107RES   C32045052   2.970   7.106   4.702 -0.0808  0.0198  0.3270
  107RES   C32145053   2.950   7.217   4.807  0.6730 -0.7581  0.7781
  107RES   C32245054   2.835   7.316   4.766  0.2914  0.0773  0.2148
  107RES   C32345055   2.891   7.423   4.667 -0.3551  0.2573 -0.2066
  107RES   H32445056   3.182   7.268   4.567  0.1128 -0.6954  0.1469
  107RES   H32545057   3.249   7.253   4.720  1.5285 -1.1559  0.6369
  107RES   H32645058   3.306   7.019   4.674 -0.7749 -1.2724  1.1856
  107RES   H32745059   3.150   7.045   4.828 -2.3624 -1.2397  0.5765
  107RES   H32845060   3.100   6.925   4.738 -0.7264 -0.1868  0.3436
  107RES   H32945061   2.902   7.021   4.700  0.6557 -0.5947  0.9763
  107RES   H33045062   2.970   7.156   4.605 -0.3940  0.2010  0.4203
  107RES   H33145063   3.041   7.269   4.839  1.4242 -0.3061 -1.9226
  107RES   H33245064   2.918   7.162   4.895 -2.0131 -1.0319 -0.3253
  107RES   H33345065   2.809   7.367   4.859  0.8860 -0.6358  0.7749
  107RES   H33445066   2.744   7.269   4.729  0.7513 -1.4484  0.9729
  107RES   H33545067   2.905   7.398   4.561  0.9960 -0.6903  0.1830
  107RES   H33645068   2.989   7.455   4.700 -0.2535 -1.9636  1.7425
  107RES   H33745069   2.822   7.508   4.665 -1.8199 -0.8696  1.1732
  107RES   C33845070   3.202   7.005   4.481  0.6247 -0.3512  0.8917
  107RES   C33945071   3.206   6.851   4.461 -0.4126 -0.4588 -1.4808
  107RES   C34045072   3.356   6.822   4.445 -0.3940  0.1085 -0.3431
  107RES   C34145073   3.388   6.676   4.457 -0.0063  0.5385 -0.2973
  107RES   C34245074   3.376   6.614   4.595  0.9125 -0.0320 -0.2919
  107RES   C34345075   3.445   6.484   4.632  0.4136 -0.1372  0.2833
  107RES   C34445076   3.408   6.450   4.778 -0.2567 -0.2152  0.0775
  107RES   H34545077   3.269   7.054   4.410 -0.2176 -1.0404 -0.3845
  107RES   H34645078   3.105   7.037   4.443  1.0850 -0.4292 -0.3756
  107RES   H34745079   3.162   6.810   4.552  0.1305 -1.3137 -1.5976
  107RES   H34845080   3.390   6.859   4.348  3.6496 -1.9802  0.1564
  107RES   H34945081   3.409   6.875   4.524 -1.2959  0.2461  0.1721
  107RES   H35045082   3.494   6.678   4.431  0.4693 -0.2982  1.5056
  107RES   H35145083   3.338   6.612   4.384 -2.5881  0.5973  1.3957
  107RES   H35245084   3.404   6.692   4.665 -0.3432  0.5500 -0.4136
  107RES   H35345085   3.270   6.601   4.619  0.7648  0.5592 -0.5964
  107RES   H35445086   3.411   6.403   4.567 -2.7914  1.2733  0.1145
  107RES   H35545087   3.551   6.497   4.613  0.3143 -0.7906 -0.7385
  107RES   H35645088   3.492   6.388   4.811 -1.4712 -2.2482 -0.5357
  107RES   H35745089   3.314   6.397   4.794 -0.2366  0.0243  0.9849
  107RES   H35845090   3.406   6.543   4.834 -0.6906  0.4190 -0.9886
  107RES   C35945091   3.123   6.803   4.343 -0.3509  0.0195 -0.5126
  107RES   C36045092   2.978   6.771   4.369 -0.2225 -0.1550 -0.4250
  107RES   C36145093   2.889   6.785   4.237  0.4563 -0.6736  0.1950
  107RES   C36245094   2.873   6.921   4.172  0.6678 -1.2209 -0.0144
  107RES   C36345095   2.772   6.999   4.256 -0.3043  0.4910 -0.5177
  107RES   C36445096   2.716   7.124   4.180  0.6538 -0.3000 -0.3079
  107RES   C36545097   2.603   7.190   4.257  0.3524  0.2753 -0.3419
  107RES   H36645098   3.170   6.709   4.314 -0.6791 -0.2661 -0.1232
  107RES   H36745099   3.141   6.867   4.256  1.2108  1.1903  0.6408
  107RES   H36845100   2.924   6.845   4.429 -1.4699 -1.7000  0.3868
  107RES   H36945101   2.927   6.716   4.162  0.0264  0.4973 -1.1231
  107RES   H37045102   2.792   6.742   4.261  0.7669 -1.9967 -0.8837
  107RES   H37145103   2.965   6.977   4.152 -0.8717  2.1300  1.7635
  107RES   H37245104   2.830   6.899   4.075 -1.2833 -2.4825  1.0993
  107RES   H37345105   2.688   6.932   4.275  1.9699 -1.6044  2.6856
  107RES   H37445106   2.812   7.029   4.353 -0.2022  1.4842 -0.8662
  107RES   H37545107   2.809   7.180   4.177 -0.5081  1.8431  2.0666
  107RES   H37645108   2.682   7.098   4.079 -2.0940  3.6150 -0.5214
  107RES   H37745109   2.562   7.281   4.213 -0.9905  1.2633  2.8389
  107RES   H37845110   2.522   7.122   4.277  1.0695 -0.6574 -0.5783
  107RES   H37945111   2.652   7.209   4.353  0.1517 -0.3568 -0.1156
  107RES   C38045112   2.965   6.639   4.443  0.3009 -0.3788 -0.0437
  107RES   C38145113   2.815   6.591   4.461 -0.2029 -0.4996  0.0048
  107RES   C38245114   2.814   6.470   4.550 -0.4203  0.1867  0.3200
  107RES   C38345115   2.892   6.339   4.505  0.8009  0.3251  0.1165
  107RES   C38445116   2.863   6.291   4.360  0.1026  0.0945  0.3770
  107RES   C38545117   2.927   6.162   4.332 -0.2963 -0.2372  0.4257
  107RES   C38645118   2.906   6.131   4.177 -0.2113 -0.1855  0.9591
  107RES   H38745119   3.029   6.562   4.402 -0.1460 -0.1509 -1.1833
  107RES   H38845120   3.001   6.664   4.543 -3.2809 -0.3995  1.3167
  107RES   H38945121   2.780   6.557   4.363  0.2802 -4.5974  1.1507
  107RES   H39045122   2.713   6.443   4.582 -0.2205  1.9135  2.5300
  107RES   H39145123   2.853   6.492   4.649 -1.8418  1.8682  0.5325
  107RES   H39245124   3.000   6.354   4.506  0.7015  1.0403  0.7711
  107RES   H39345125   2.873   6.267   4.585 -4.3834  0.6169 -0.6743
  107RES   H39445126   2.754   6.280   4.361  0.4208 -3.8355 -0.3021
  107RES   H39545127   2.894   6.370   4.292  0.3943 -0.4110 -0.0841
  107RES   H39645128   2.878   6.080   4.385 -2.9248 -0.1033 -1.7215
  107RES   H39745129   3.030   6.152   4.367  0.5657  1.6114 -1.4634
  107RES   H39845130   2.804   6.147   4.143 -0.3118 -1.9670  0.4016
  107RES   H39945131   2.937   6.029   4.154 -2.6865 -0.2116 -2.6794
  107RES   H40045132   2.961   6.197   4.109 -1.9439  1.2784  0.9340
  107RES   C40145133   2.713   6.696   4.519 -0.1473 -0.2696 -0.5448
  107RES   C40245134   2.574   6.660   4.471  0.3252  0.2533 -0.4441
  107RES   C40345135   2.471   6.777   4.494  0.0179 -0.6338  0.3201
  107RES   C40445136   2.439   6.796   4.647  0.1828 -0.2109  0.2639
  107RES   C40545137   2.350   6.926   4.683 -0.6463  0.4747  0.0402
  107RES   C40645138   2.394   7.060   4.644  1.2049  0.7717 -0.0270
  107RES   C40745139   2.283   7.163   4.687 -0.0635 -0.3657 -0.4312
  107RES   H40845140   2.733   6.799   4.487 -0.1095  0.0883  0.5859
  107RES   H40945141   2.722   6.694   4.628 -1.4202  1.2707 -0.3862
  107RES   H41045142   2.539   6.573   4.527 -1.4721  2.1504  1.4354
  107RES   H41145143   2.384   6.731   4.447  0.1355  1.0453 -1.5966
  107RES   H41245144   2.490   6.864   4.432  0.4350  0.5451  2.0626
  107RES   H41345145   2.531   6.793   4.706 -0.9837  0.0422  2.1388
  107RES   H41445146   2.390   6.711   4.694 -0.3455  0.3073  0.6566
  107RES   H41545147   2.253   6.905   4.638 -0.7353 -1.4334  1.0906
  107RES   H41645148   2.332   6.920   4.790 -0.9156  2.7273  0.1341
  107RES   H41745149   2.481   7.090   4.701  2.4664 -0.4857 -1.2673
  107RES   H41845150   2.415   7.075   4.538  1.1037 -2.1527 -0.5035
  107RES   H41945151   2.201   7.163   4.616 -2.2023  0.3031  1.9652
  107RES   H42045152   2.307   7.269   4.696  0.3864 -0.5637  0.8342
  107RES   H42145153   2.253   7.142   4.790  1.8992 -0.2475  0.1835
  107RES   H42245154   2.571   6.626   4.367  3.0489 -4.3556  0.7986
  108RES     C145155   0.163   3.608   6.943 -0.0800  0.5761 -0.2445
  108RES     C245156   0.207   3.599   7.085 -0.2219 -0.2571 -0.2163
  108RES     C345157   0.144   3.712   7.161  0.7494  0.1469 -1.1226
  108RES     C445158   7.715   3.733   7.171  0.4076 -0.1906 -0.4456
  108RES     C545159   7.632   3.614   7.223 -0.5948  0.3767 -0.1352
  108RES     C645160   7.479   3.626   7.188 -0.7017  0.0633 -0.1754
  108RES     C745161   7.441   3.561   7.062 -0.1189  0.2862  0.3993
  108RES     H845162   0.148   3.706   6.898 -1.1630  1.0557  1.1205
  108RES     H945163   0.063   3.567   6.947  0.5615 -1.0508 -0.5283
  108RES    H1045164   0.175   3.502   7.123 -2.8275  0.5371 -0.3346
  108RES    H1145165   0.176   3.693   7.263 -2.5275  0.0500 -0.0553
  108RES    H1245166   0.196   3.799   7.121  3.6074 -0.4192  1.1702
  108RES    H1345167   7.690   3.825   7.223  1.9164 -1.1469  2.0794
  108RES    H1445168   7.674   3.747   7.071 -0.4190  0.5731  0.0004
  108RES    H1545169   7.644   3.585   7.327 -1.4200  1.3494  0.2402
  108RES    H1645170   7.668   3.531   7.161  1.9880  1.4930 -0.1989
  108RES    H1745171   7.439   3.727   7.194  1.3462  0.9568 -0.8621
  108RES    H1845172   7.428   3.566   7.264  1.4230 -1.2014  0.3070
  108RES    H1945173   7.470   3.457   7.054  0.8039  0.4727  1.1732
  108RES    H2045174   7.469   3.617   6.972  0.2975 -0.9479 -0.2405
  108RES    H2145175   7.332   3.561   7.052 -0.3134  1.9660  2.1472
  108RES    H2245176   0.220   3.547   6.873  0.7281 -0.8986  1.6372
  108RES    C2345177   0.363   3.601   7.099 -0.1039  0.2506  0.3201
  108RES    C2445178   0.430   3.608   7.233 -0.0485 -0.4245 -0.6207
  108RES    C2545179   0.582   3.605   7.213 -0.4961 -0.2325 -0.4611
  108RES    C2645180   0.634   3.736   7.161  0.2879 -0.4640  0.0716
  108RES    C2745181   0.788   3.746   7.201  0.3895 -0.4841 -0.4679
  108RES    C2845182   0.832   3.886   7.184 -0.2303  0.2950  0.4079
  108RES    C2945183   0.973   3.913   7.231  0.0044  0.7004 -1.0794
  108RES    H3045184   0.386   3.498   7.072  1.0587  0.1756  1.5528
  108RES    H3145185   0.413   3.676   7.038 -2.6781  1.2887 -0.5679
  108RES    H3245186   0.409   3.704   7.280  1.4114  0.4971 -1.8246
  108RES    H3345187   0.610   3.531   7.138  2.2044 -0.4133  0.6785
  108RES    H3445188   0.624   3.574   7.308 -0.9113  0.0969 -0.1663
  108RES    H3545189   0.591   3.824   7.211 -1.5009 -1.5313  0.4611
  108RES    H3645190   0.618   3.745   7.053 -0.9278 -1.6216  0.1390
  108RES    H3745191   0.843   3.669   7.146  0.0664 -2.0701  1.3958
  108RES    H3845192   0.799   3.721   7.306  0.0125 -3.0826 -1.0126
  108RES    H3945193   0.762   3.949   7.239 -1.3423  0.7308 -1.4514
  108RES    H4045194   0.826   3.913   7.078  0.9697 -2.9071 -0.5620
  108RES    H4145195   1.059   3.853   7.202  0.7800  0.1962  2.0619
  108RES    H4245196   1.002   4.018   7.226 -0.5223  0.8844 -0.2899
  108RES    H4345197   0.957   3.902   7.339 -1.3474 -0.3629 -1.3780
  108RES    C4445198   0.392   3.494   7.331 -0.0605 -0.6579  0.3403
  108RES    C4545199   0.394   3.523   7.479  0.6229 -0.9338  0.5889
  108RES    C4645200   0.289   3.632   7.525 -0.4345  0.4742  0.1721
  108RES    C4745201   0.302   3.682   7.676  0.1918 -0.4467  0.3624
  108RES    C4845202   0.197   3.787   7.708  0.3101  0.2672 -0.1439
  108RES    C4945203   0.200   3.840   0.131 -0.5332  0.0507 -0.6857
  108RES    C5045204   0.114   3.966   0.144 -0.2657 -0.4103 -0.2104
  108RES    H5145205   0.437   3.403   7.294 -2.2238 -1.2067 -1.0330
  108RES    H5245206   0.287   3.470   7.311 -0.2815  0.3246  0.2686
  108RES    H5345207   0.493   3.567   7.495  0.3695 -0.8247  1.8558
  108RES    H5445208   0.185   3.609   7.498 -0.7788  2.3116 -0.1280
  108RES    H5545209   0.283   3.718   7.458  0.3317 -0.7274 -1.4607
  108RES    H5645210   0.289   3.593   0.011 -2.0287  0.2752  1.0129
  108RES    H5745211   0.405   3.715   7.687  0.0900 -0.6871  2.2454
  108RES    H5845212   0.098   3.743   7.694  0.3257 -0.1300  0.9708
  108RES    H5945213   0.204   3.874   7.643 -0.8063 -0.1595 -0.8747
  108RES    H6045214   0.299   3.851   0.177 -1.1995 -0.4497  0.9136
  108RES    H6145215   0.162   3.758   0.192  2.0097  0.0556  1.0065
  108RES    H6245216   0.099   3.990   0.249 -1.9230 -1.8237 -0.1029
  108RES    H6345217   0.017   3.969   0.095 -0.0947 -0.5956 -0.5625
  108RES    H6445218   0.167   4.051   0.101 -1.1378  0.1217 -0.2424
  108RES    C6545219   0.365   3.390   7.553  0.3666 -1.2160  0.2003
  108RES    C6645220   0.471   3.346   7.660  0.4728 -0.0066  0.2289
  108RES    C6745221   0.602   3.295   7.601 -1.0032 -0.8030 -0.3082
  108RES    C6845222   0.734   3.288   7.677  0.3012  0.2598 -0.4863
  108RES    C6945223   0.852   3.249   7.586 -0.1600 -0.5282  0.2907
  108RES    C7045224   0.983   3.220   7.659  0.2415 -0.5814  0.5887
  108RES    C7145225   0.965   3.095   0.020  0.2472  0.3759  0.4976
  108RES    H7245226   0.266   3.399   7.597 -0.7767 -0.5583 -2.3780
  108RES    H7345227   0.367   3.314   7.475 -1.6988 -1.0829  0.0028
  108RES    H7445228   0.501   3.425   0.003 -1.7830  1.3667 -0.3220
  108RES    H7545229   0.589   3.196   7.557  0.5843 -2.4248  2.7221
  108RES    H7645230   0.635   3.365   7.525 -0.4558 -0.3822  0.3201
  108RES    H7745231   0.752   3.390   7.712  1.4175  0.2674 -1.0553
  108RES    H7845232   0.732   3.230   0.042  0.8614  0.7355 -0.1681
  108RES    H7945233   0.835   3.155   7.534 -2.4140 -0.2360  0.4459
  108RES    H8045234   0.869   3.323   7.507  1.5061 -1.3444 -0.1365
  108RES    H8145235   1.010   3.309   7.715 -0.7756  1.4852 -2.0933
  108RES    H8245236   1.067   3.205   7.592 -1.4777  0.8856 -2.0044
  108RES    H8345237   0.923   3.119   0.118 -1.5051  0.9675 -0.3761
  108RES    H8445238   0.908   3.021   7.692  1.6943 -1.3279  1.2289
  108RES    H8545239   1.066   3.056   0.034  0.6772  0.2104 -2.7052
  108RES    C8645240   0.420   3.225   0.018 -0.2426  0.5713  0.4576
  108RES    C8745241   0.326   3.260   0.132  0.6985  0.0455  1.0036
  108RES    C8845242   0.199   3.167   0.131  0.3146 -0.5000  0.0436
  108RES    C8945243   0.105   3.190   0.011  0.1834 -0.2527 -0.7414
  108RES    C9045244   0.019   3.316   0.023 -0.4159  0.3840  0.0825
  108RES    C9145245   7.656   3.344   7.634 -0.0041  0.2492  0.3782
  108RES    C9245246   7.571   3.477   7.648 -0.0868 -0.0802 -0.4105
  108RES    H9345247   0.377   3.153   7.675  0.6413  1.1343 -0.6921
  108RES    H9445248   0.506   3.176   0.065  1.1469  1.3532 -1.2319
  108RES    H9545249   0.292   3.362   0.113 -2.2185 -1.1514 -0.6844
  108RES    H9645250   0.230   3.063   0.117 -0.0886 -0.3835 -1.8580
  108RES    H9745251   0.146   3.178   0.226 -2.0668 -0.1841 -1.2886
  108RES    H9845252   0.158   3.181   7.643  1.5065  0.6472 -0.1075
  108RES    H9945253   0.037   3.105   0.018  0.7621 -0.4815  3.2301
  108RES   H10045254   0.088   3.401   0.031  0.8066 -0.5429 -0.4072
  108RES   H10145255   7.695   3.316   0.119  1.4511  0.1128  1.0978
  108RES   H10245256   7.707   3.334   7.538 -1.5503  0.5716 -0.5077
  108RES   H10345257   7.590   3.257   7.636  0.8180 -0.3859  0.1793
  108RES   H10445258   7.504   3.487   7.563 -1.0682  1.0090  0.4613
  108RES   H10545259   7.642   3.560   7.654  1.0054 -1.0964  1.3210
  108RES   H10645260   7.515   3.487   0.015  0.7330  0.1792  0.0632
  108RES   C10745261   0.386   3.255   0.268  0.0790 -0.1571  0.4875
  108RES   C10845262   0.508   3.340   0.307  0.1158 -1.2561  0.8157
  108RES   C10945263   0.463   3.487   0.322  0.2756 -1.2616  0.1768
  108RES   C11045264   0.342   3.505   0.416  0.5187  0.1416  0.3761
  108RES   C11145265   0.313   3.660   0.441  0.1473  0.1996  0.5215
  108RES   C11245266   0.163   3.670   0.489  0.3234 -0.4656  0.1521
  108RES   C11345267   0.130   3.594   0.614  0.1332 -0.4231  0.6025
  108RES   H11445268   0.417   3.152   0.280 -2.0725 -1.1701 -2.2451
  108RES   H11545269   0.301   3.257   0.337 -0.1468  0.1031  0.2069
  108RES   H11645270   0.579   3.328   0.225 -1.3377 -0.9545 -0.5312
  108RES   H11745271   0.441   3.517   0.219  0.7598  1.9587  0.9721
  108RES   H11845272   0.543   3.554   0.353 -2.4521  1.0721  2.4109
  108RES   H11945273   0.250   3.453   0.392 -0.2627  0.9624  1.5458
  108RES   H12045274   0.364   3.459   0.513 -1.4141 -2.1675 -0.2392
  108RES   H12145275   0.322   3.717   0.348  0.5582 -0.9116 -0.1243
  108RES   H12245276   0.377   3.704   0.517 -0.2454  0.0003  0.9675
  108RES   H12345277   0.137   3.774   0.506 -1.3824 -1.0633  1.3383
  108RES   H12445278   0.091   3.637   0.414 -1.5338  0.7971  1.3177
  108RES   H12545279   0.033   3.625   0.652  0.8170 -1.0441  2.9511
  108RES   H12645280   0.139   3.487   0.596 -0.5570 -0.6170  1.3486
  108RES   H12745281   0.199   3.612   0.697  0.9554  0.1200 -0.1930
  108RES   C12845282   0.589   3.287   0.427 -0.7984  0.6679 -0.6469
  108RES   C12945283   0.711   3.370   0.471  0.6725  0.1996 -0.4733
  108RES   C13045284   0.816   3.369   0.361  0.2767 -0.4641  0.0777
  108RES   C13145285   0.911   3.481   0.374 -0.0222  0.5667 -0.3102
  108RES   C13245286   1.015   3.482   0.258  0.8404 -0.2195  1.0257
  108RES   C13345287   1.136   3.579   0.277 -0.4536 -0.6950 -0.5304
  108RES   C13445288   1.249   3.590   0.168 -0.2967 -0.1048  0.3972
  108RES   H13545289   0.519   3.294   0.511  0.6254  1.9554  0.4403
  108RES   H13645290   0.604   3.180   0.414  0.4838  1.1816 -3.7465
  108RES   H13745291   0.676   3.472   0.485  1.9088  0.5127  0.4505
  108RES   H13845292   0.768   3.373   0.263 -0.2204 -2.4466  0.2159
  108RES   H13945293   0.874   3.277   0.356  0.1740 -0.4320 -2.3690
  108RES   H14045294   0.961   3.479   0.471  2.2119  1.9636 -1.3750
  108RES   H14145295   0.859   3.577   0.375 -2.1954 -0.5570  2.4284
  108RES   H14245296   0.969   3.502   0.161 -0.0593 -0.0747  1.4843
  108RES   H14345297   1.064   3.385   0.244 -3.8234 -2.5057 -0.2449
  108RES   H14445298   1.192   3.551   0.367 -0.7682 -2.1287 -0.7677
  108RES   H14545299   1.100   3.682   0.288 -1.6703 -1.2917  1.4570
  108RES   H14645300   1.323   3.668   0.186  0.3468 -0.8901  1.2353
  108RES   H14745301   1.194   3.594   0.074 -3.8266  0.3844  2.4239
  108RES   H14845302   1.304   3.497   0.148  3.2204  2.1395 -0.8658
  108RES   C14945303   0.772   3.318   0.600 -0.0314 -0.3793 -0.2179
  108RES   C15045304   0.667   3.309   0.724  0.0355  0.1438  0.8831
  108RES   C15145305   0.592   3.443   0.752  0.0796 -0.1466 -0.2455
  108RES   C15245306   0.677   3.561   0.801  0.9271  0.2194  0.2088
  108RES   C15345307   0.591   3.685   0.828 -0.2260  0.1783 -0.3159
  108RES   C15445308   0.687   3.789   0.893 -0.3208  0.5517 -0.0353
  108RES   C15545309   0.604   3.895   0.967 -0.7809 -0.5517  0.3638
  108RES   H15645310   0.829   3.225   0.599  0.0055 -0.3517 -1.2039
  108RES   H15745311   0.851   3.386   0.634 -0.0356 -0.4748 -0.0154
  108RES   H15845312   0.613   3.215   0.712  0.0088  0.2184  0.4110
  108RES   H15945313   0.533   3.477   0.667  0.6302 -0.8276 -0.9141
  108RES   H16045314   0.516   3.421   0.827 -0.1390  2.0612  0.2175
  108RES   H16145315   0.747   3.589   0.723  0.9902 -1.5508 -0.3886
  108RES   H16245316   0.737   3.537   0.889  0.2179 -0.0858  0.6097
  108RES   H16345317   0.517   3.647   0.899  0.1813 -0.8248 -0.4249
  108RES   H16445318   0.540   3.721   0.739  1.1081  1.7967 -0.4543
  108RES   H16545319   0.756   3.826   0.817 -0.7542 -0.6981 -1.0664
  108RES   H16645320   0.756   3.736   0.959 -0.7660 -3.6497 -2.7189
  108RES   H16745321   0.659   3.956   1.039 -1.8439 -1.5129  2.0242
  108RES   H16845322   0.534   3.848   1.036 -0.6250 -0.4508  0.5915
  108RES   H16945323   0.547   3.968   0.909  0.3741  1.5780  1.8327
  108RES   C17045324   0.755   3.271   0.842  0.0353 -0.3131  0.1497
  108RES   C17145325   0.689   3.256   0.982  0.3081  0.2402  0.3865
  108RES   C17245326   0.575   3.151   0.971  0.0593  0.4812  0.2755
  108RES   C17345327   0.495   3.144   1.104 -1.0106 -0.0419 -0.0937
  108RES   C17445328   0.368   3.058   1.098 -0.1527  0.4965 -0.0093
  108RES   C17545329   0.322   3.030   1.241 -1.0592  0.4621  1.1388
  108RES   C17645330   0.229   2.908   1.231 -0.0326  0.3990  0.6950
  108RES   H17745331   0.831   3.350   0.845  0.7898 -1.0841  1.7164
  108RES   H17845332   0.814   3.182   0.822 -0.2639 -0.6509  0.7698
  108RES   H17945333   0.637   3.346   1.017 -3.2485 -1.5495 -0.0317
  108RES   H18045334   0.609   3.049   0.950 -0.3338  0.5553 -0.7482
  108RES   H18145335   0.501   3.167   0.892 -0.0032  0.4515  0.3274
  108RES   H18245336   0.469   3.243   1.143 -0.8851 -0.7288  1.7790
  108RES   H18345337   0.559   3.108   1.184  0.7326  1.7855 -0.6132
  108RES   H18445338   0.395   2.969   1.041  1.0297  0.3173  0.8008
  108RES   H18545339   0.289   3.110   1.045  0.8901  2.7718  0.5918
  108RES   H18645340   0.270   3.115   1.284  1.3203  2.3119  0.4663
  108RES   H18745341   0.400   3.005   1.313  0.2620 -0.5804 -0.6120
  108RES   H18845342   0.291   2.820   1.246 -1.3550 -0.8863 -1.2259
  108RES   H18945343   0.168   2.907   1.141  0.2858 -1.2022  0.4788
  108RES   H19045344   0.164   2.902   1.318  0.7414 -1.6906  1.1682
  108RES   C19145345   0.800   3.208   1.091 -0.0157  0.0493 -0.2763
  108RES   C19245346   0.925   3.296   1.113  0.7870  0.4264  0.0340
  108RES   C19345347   0.876   3.437   1.158 -0.2492  0.7117  0.2088
  108RES   C19445348   0.976   3.549   1.140  0.8057  0.5939  0.4321
  108RES   C19545349   0.919   3.689   1.195 -0.3301 -0.4741  0.9777
  108RES   C19645350   1.002   3.813   1.159  0.0733 -0.7369  0.7599
  108RES   C19745351   1.124   3.847   1.250 -0.2063 -0.0403  0.1424
  108RES   H19845352   0.836   3.108   1.068  1.4115  0.8312 -1.5268
  108RES   H19945353   0.757   3.207   1.191  2.3846  1.8552  0.8099
  108RES   H20045354   0.969   3.309   1.014 -1.5478 -1.1287 -1.2294
  108RES   H20145355   0.819   3.434   1.251  0.5164  2.0083  0.7404
  108RES   H20245356   0.802   3.462   1.082  0.2097  1.3165 -0.0479
  108RES   H20345357   0.991   3.561   1.032  2.4945  2.4707  0.8433
  108RES   H20445358   1.072   3.528   1.186  0.6385 -3.7086 -0.9853
  108RES   H20545359   0.818   3.696   1.156 -0.7638 -2.8660  1.6234
  108RES   H20645360   0.907   3.688   1.303  1.0307  1.9330  1.2124
  108RES   H20745361   0.941   3.903   1.150  0.2638 -0.3955  2.8608
  108RES   H20845362   1.042   3.788   1.060  1.8107  3.3295  0.3673
  108RES   H20945363   1.097   3.883   1.349  0.7288 -1.7240  1.0406
  108RES   H21045364   1.192   3.918   1.203  0.1281 -0.4551 -0.0076
  108RES   H21145365   1.183   3.756   1.261 -1.0860 -0.2765  3.3614
  108RES   C21245366   1.023   3.238   1.215 -0.4241  0.1435 -1.4474
  108RES   C21345367   1.171   3.280   1.183 -0.1095 -0.1491  0.3453
  108RES   C21445368   1.237   3.351   1.304 -0.1191 -0.0959 -0.7700
  108RES   C21545369   1.357   3.434   1.275  0.3303  0.3174 -0.2171
  108RES   C21645370   1.403   3.519   1.397 -0.1362  0.0274  0.6524
  108RES   C21745371   1.536   3.594   1.368 -0.4112 -0.3302  0.2983
  108RES   C21845372   1.660   3.519   1.401 -0.4724  0.0017 -0.8114
  108RES   H21945373   1.019   3.130   1.201  0.6218  0.1312 -1.6857
  108RES   H22045374   0.991   3.260   1.317  0.6914  2.5450 -1.5693
  108RES   H22145375   1.154   3.340   1.094 -2.4800 -0.9247  0.2264
  108RES   H22245376   1.171   3.408   1.369  3.8124  2.1812  1.3653
  108RES   H22345377   1.261   3.267   1.369  1.9044  1.1692  0.1635
  108RES   H22445378   1.335   3.498   1.190  1.8476  1.5710  0.2921
  108RES   H22545379   1.440   3.369   1.248  0.0599 -0.2801  0.3804
  108RES   H22645380   1.326   3.593   1.416 -2.0149 -1.5101 -0.6227
  108RES   H22745381   1.415   3.456   1.485 -0.7437 -1.2544 -0.1600
  108RES   H22845382   1.540   3.619   1.262  0.7079  1.8413  0.8313
  108RES   H22945383   1.535   3.689   1.421 -1.1606  1.5326 -2.9572
  108RES   H23045384   1.749   3.581   1.386 -0.9728  1.4455  1.7833
  108RES   H23145385   1.665   3.437   1.330  2.5958 -0.9512  0.4264
  108RES   H23245386   1.662   3.471   1.499 -0.2837  0.8002 -0.4157
  108RES   C23345387   1.258   3.162   1.132 -0.1918  0.5880 -0.2469
  108RES   C23445388   1.208   3.095   1.000 -0.5831  0.4500 -0.0952
  108RES   C23545389   1.250   3.179   0.877  0.2870 -0.6706  0.4345
  108RES   C23645390   1.179   3.160   0.741  0.1631 -0.3497  0.0761
  108RES   C23745391   1.252   3.208   0.620  0.2134  0.2645 -0.3928
  108RES   C23845392   1.174   3.209   0.489 -0.2978 -0.0291 -0.7659
  108RES   C23945393   1.133   3.067   0.448  0.6303 -0.4484 -0.5065
  108RES   H24045394   1.254   3.093   1.217 -0.3600  3.1180  1.8645
  108RES   H24145395   1.361   3.197   1.126 -0.2132  0.6412 -0.3015
  108RES   H24245396   1.100   3.091   0.992 -0.6076 -0.8228  0.6591
  108RES   H24345397   1.358   3.168   0.862 -0.0226 -0.8471 -1.8434
  108RES   H24445398   1.240   3.286   0.900 -0.8552 -0.7429  0.3090
  108RES   H24545399   1.082   3.208   0.745 -0.2138 -0.8900 -1.8308
  108RES   H24645400   1.150   3.057   0.717  0.9875 -0.2692 -1.3905
  108RES   H24745401   1.331   3.135   0.599 -0.3777 -0.4254 -0.2395
  108RES   H24845402   1.298   3.306   0.633  1.4668 -0.3989  0.2627
  108RES   H24945403   1.093   3.280   0.502 -0.9653 -0.6685 -1.3657
  108RES   H25045404   1.231   3.259   0.411  3.2986 -0.7194  1.2881
  108RES   H25145405   1.027   3.046   0.466  0.1464  0.8490 -1.6833
  108RES   H25245406   1.149   3.050   0.341 -2.9206 -0.8348 -1.0449
  108RES   H25345407   1.189   2.995   0.508 -1.6295  1.1716  3.7572
  108RES   C25445408   1.279   2.961   0.991  0.6963  0.1848  0.0455
  108RES   C25545409   1.186   2.835   0.987 -0.1699 -0.2380 -0.4142
  108RES   C25645410   1.097   2.823   1.112 -0.1094  0.9145 -0.1825
  108RES   C25745411   0.960   2.786   1.076  0.5745  0.1425 -0.3692
  108RES   C25845412   0.863   2.803   1.191  0.9332  0.0714  0.0966
  108RES   C25945413   0.715   2.758   1.152 -0.6090  0.5229  0.3397
  108RES   C26045414   0.622   2.753   1.267  0.5351 -0.4909  0.2737
  108RES   H26145415   1.367   2.944   1.053  0.0412 -4.3463 -0.1266
  108RES   H26245416   1.330   2.964   0.894  0.6748  0.1395  0.0325
  108RES   H26345417   1.122   2.858   0.902 -1.5156 -0.5042  0.5184
  108RES   H26445418   1.107   2.921   1.159  0.0614  0.7669  0.0918
  108RES   H26545419   1.154   2.763   1.183  0.5141  0.8308 -0.7529
  108RES   H26645420   0.927   2.857   1.001 -2.3709 -1.3643 -0.5758
  108RES   H26745421   0.945   2.690   1.026 -0.2239  1.6679 -3.1668
  108RES   H26845422   0.864   2.909   1.219  0.9974  0.8109 -2.5731
  108RES   H26945423   0.889   2.755   1.285  2.0890  0.3732 -0.0645
  108RES   H27045424   0.679   2.832   1.080  0.3075  1.3756  0.7454
  108RES   H27145425   0.722   2.660   1.106 -1.3541  0.2731  0.7646
  108RES   H27245426   0.632   2.847   1.322  0.4829 -0.5060  0.3096
  108RES   H27345427   0.520   2.755   1.231 -0.0792 -1.2699  1.9283
  108RES   H27445428   0.637   2.670   1.336  0.0626  0.0411  1.0224
  108RES   C27545429   1.270   2.702   0.959  0.0924  0.3047  0.1219
  108RES   C27645430   1.349   2.687   0.825  0.2195 -0.0744  0.1765
  108RES   C27745431   1.251   2.657   0.707  0.7060  0.1379 -0.5290
  108RES   C27845432   1.307   2.685   0.570  0.5217  0.4401  0.3820
  108RES   C27945433   1.212   2.656   0.453  0.6175  0.5035 -0.1929
  108RES   C28045434   1.272   2.658   0.312 -0.5722  0.0181 -0.8934
  108RES   C28145435   1.180   2.595   0.200  0.3594 -0.2334 -0.1975
  108RES   H28245436   1.200   2.619   0.972  1.8337 -1.0171  1.3173
  108RES   H28345437   1.336   2.695   1.046 -0.7327  0.2139  0.7413
  108RES   H28445438   1.399   2.780   0.801 -0.7952 -0.2321 -2.8336
  108RES   H28545439   1.215   2.555   0.710 -0.0033  0.4312  3.0563
  108RES   H28645440   1.160   2.715   0.724  0.7579 -0.4958  2.0104
  108RES   H28745441   1.392   2.618   0.555 -0.2029 -0.2377 -0.7352
  108RES   H28845442   1.349   2.785   0.559  0.3597  0.6374  1.4482
  108RES   H28945443   1.133   2.730   0.466 -1.6435 -2.2596  2.6487
  108RES   H29045444   1.160   2.562   0.473  1.6153 -0.5379 -2.3139
  108RES   H29145445   1.276   2.767   0.303  0.8598 -0.0865 -1.6355
  108RES   H29245446   1.371   2.614   0.322 -1.1429 -0.7514  1.7029
  108RES   H29345447   1.177   2.486   0.201  2.5827 -0.3155 -0.1490
  108RES   H29445448   1.214   2.625   0.101 -0.3207 -0.1958 -0.4178
  108RES   H29545449   1.077   2.628   0.212  0.9910  2.0688 -0.7810
  108RES   C29645450   1.453   2.579   0.838 -0.7205  0.1823 -0.3172
  108RES   C29745451   1.567   2.594   0.936 -0.2482  0.3194 -0.0822
  108RES   C29845452   1.647   2.726   0.913  0.1784 -0.5267  0.3128
  108RES   C29945453   1.690   2.756   0.769 -0.2121  0.1886  0.3698
  108RES   C30045454   1.782   2.879   0.759 -0.6679 -0.8043  0.2259
  108RES   C30145455   1.700   3.008   0.759  0.1709 -1.0687 -0.2638
  108RES   C30245456   1.789   3.128   0.734 -0.2940 -0.6242  0.5421
  108RES   H30345457   1.407   2.481   0.852 -0.3477 -0.2776 -2.1291
  108RES   H30445458   1.498   2.555   0.741  0.0015 -3.3686  0.8107
  108RES   H30545459   1.528   2.601   1.038 -2.5997  1.5944 -1.0157
  108RES   H30645460   1.578   2.806   0.940 -0.5271 -1.0124 -0.0610
  108RES   H30745461   1.735   2.729   0.978  0.9991 -0.7622 -0.7796
  108RES   H30845462   1.606   2.756   0.700 -1.4169 -2.1763  1.7964
  108RES   H30945463   1.766   2.683   0.739  1.2438  1.3012  1.2850
  108RES   H31045464   1.836   2.887   0.665  0.9722  1.6369  1.3183
  108RES   H31145465   1.850   2.886   0.843 -1.5447 -1.6445  1.0296
  108RES   H31245466   1.628   3.006   0.678 -1.0370 -0.2954  0.7621
  108RES   H31345467   1.636   3.014   0.847 -0.4223  2.0800 -0.8405
  108RES   H31445468   1.731   3.220   0.722  0.8625 -0.1033 -1.3196
  108RES   H31545469   1.862   3.142   0.813  1.0679  0.7488 -0.9131
  108RES   H31645470   1.844   3.132   0.640 -0.6641 -0.5392  0.3238
  108RES   C31745471   1.662   2.473   0.937  1.0057 -0.0255 -0.4202
  108RES   C31845472   1.603   2.340   1.005 -0.1700 -0.7416  0.8142
  108RES   C31945473   1.699   2.220   0.983 -0.6583  0.0148 -0.2197
  108RES   C32045474   1.687   2.161   0.844 -0.3809  0.4539  0.8194
  108RES   C32145475   1.770   2.028   0.820  0.9970  0.3080 -0.4221
  108RES   C32245476   1.745   1.957   0.683  0.1304 -0.7550  0.2941
  108RES   C32345477   1.845   1.843   0.660 -0.0838 -0.2227  0.1256
  108RES   H32445478   1.743   2.509   1.000  3.2286 -1.7657 -2.1454
  108RES   H32545479   1.704   2.450   0.839  0.3325  0.3027 -0.7841
  108RES   H32645480   1.508   2.307   0.964 -1.9840  0.8850  3.5607
  108RES   H32745481   1.683   2.143   1.058  0.3447  0.0791  0.0611
  108RES   H32845482   1.802   2.255   0.987 -0.2283 -0.9705 -2.0557
  108RES   H32945483   1.712   2.240   0.773 -3.8326 -0.5423 -1.6431
  108RES   H33045484   1.583   2.133   0.832  0.1976 -1.4234 -0.0399
  108RES   H33145485   1.764   1.956   0.902  0.0641  0.5095 -0.3150
  108RES   H33245486   1.876   2.052   0.833  0.7762  0.9769  0.1724
  108RES   H33345487   1.754   2.030   0.603 -2.7416 -2.2648 -1.4887
  108RES   H33445488   1.643   1.922   0.665 -0.6408  0.4617  2.1084
  108RES   H33545489   1.952   1.866   0.662 -0.5595  2.1080  1.9845
  108RES   H33645490   1.833   1.775   0.575 -2.5107  0.2126  0.0893
  108RES   H33745491   1.831   1.776   0.745 -0.2750 -0.8095 -0.3656
  108RES   C33845492   1.579   2.361   1.153  0.4439  0.2847 -0.6524
  108RES   C33945493   1.426   2.388   1.192  0.1714  0.3549 -0.3475
  108RES   C34045494   1.405   2.499   1.291  0.5768  0.4718  0.0750
  108RES   C34145495   1.456   2.469   1.434  0.3861 -0.2585 -0.0327
  108RES   C34245496   1.481   2.591   1.519 -0.6226  0.2822  0.7171
  108RES   C34345497   1.561   2.556   1.648  0.3314  0.2476 -0.0524
  108RES   C34445498   1.569   2.671   1.751  0.2443  1.1286  0.5411
  108RES   H34545499   1.642   2.445   1.183  1.0917  0.2563 -1.8999
  108RES   H34645500   1.613   2.278   1.215  0.4698  0.7315 -0.0656
  108RES   H34745501   1.387   2.421   1.095  0.6388 -0.2616 -0.7503
  108RES   H34845502   1.461   2.581   1.245 -0.0475  0.7666 -0.1675
  108RES   H34945503   1.300   2.527   1.295  0.3256 -0.2003 -1.4501
  108RES   H35045504   1.547   2.409   1.432  1.0058  0.7200 -2.4376
  108RES   H35145505   1.395   2.394   1.485 -0.7894 -0.6965 -2.0329
  108RES   H35245506   1.524   2.673   1.461 -0.4637 -0.4071 -0.1615
  108RES   H35345507   1.382   2.624   1.548 -1.2679 -0.5946 -0.4386
  108RES   H35445508   1.518   2.473   1.704  1.3935  0.2950  0.8556
  108RES   H35545509   1.664   2.538   1.620 -0.1512 -0.5280 -1.3557
  108RES   H35645510   1.647   2.651   1.825 -0.5965 -1.1620  0.8433
  108RES   H35745511   1.474   2.691   1.800 -0.8170  1.4262 -1.5932
  108RES   H35845512   1.594   2.762   1.696  1.2344  0.8478  0.5165
  108RES   C35945513   1.347   2.253   1.218 -0.3535 -0.1639 -0.0765
  108RES   C36045514   1.198   2.271   1.259 -0.1622  0.1133 -0.4443
  108RES   C36145515   1.111   2.326   1.139  0.9410 -0.3190  0.2475
  108RES   C36245516   1.099   2.249   1.006 -0.4025  0.5192  0.7598
  108RES   C36345517   1.006   2.310   0.898 -0.2400  0.9130  0.5898
  108RES   C36445518   1.055   2.284   0.756  0.0618  0.2975 -0.4668
  108RES   C36545519   0.950   2.339   0.653 -0.0638  0.5784 -0.4935
  108RES   H36645520   1.398   2.196   1.295  0.0208 -0.6609 -0.6900
  108RES   H36745521   1.368   2.191   1.131  0.7486  0.1817 -0.0607
  108RES   H36845522   1.196   2.344   1.339  0.3146  0.8960 -1.1474
  108RES   H36945523   1.007   2.338   1.169 -0.0936 -1.3282 -2.7609
  108RES   H37045524   1.145   2.425   1.109  3.3981 -1.0202  0.5496
  108RES   H37145525   1.199   2.223   0.971 -1.9282 -1.7813 -2.1126
  108RES   H37245526   1.051   2.153   1.026  3.3882 -1.8247 -0.9595
  108RES   H37345527   0.901   2.280   0.906  0.5842 -2.2179  0.3277
  108RES   H37445528   1.019   2.418   0.903 -1.2947  1.3266 -3.5990
  108RES   H37545529   1.149   2.338   0.750  0.3712 -0.0225  1.1036
  108RES   H37645530   1.078   2.178   0.749 -0.6477 -0.2724  3.8592
  108RES   H37745531   0.848   2.303   0.670  0.6593  0.7006  5.0083
  108RES   H37845532   0.938   2.445   0.671 -0.6204  0.3822  0.3509
  108RES   H37945533   0.982   2.344   0.549 -2.4117 -0.0596 -1.2734
  108RES   C38045534   1.138   2.136   1.313 -0.0050 -0.3390  0.7703
  108RES   C38145535   0.994   2.134   1.373  0.5941  0.1210 -0.1752
  108RES   C38245536   0.940   1.992   1.366 -0.3054  0.8257 -1.0981
  108RES   C38345537   0.804   1.963   1.435 -0.6492 -0.1627  0.2417
  108RES   C38445538   0.742   1.830   1.396  0.1529 -0.1850  0.3844
  108RES   C38545539   0.626   1.793   1.486 -0.4958  0.2177 -0.0140
  108RES   C38645540   0.545   1.676   1.440  0.0861  0.3758  0.1792
  108RES   H38745541   1.146   2.054   1.242  1.6967  1.2265 -0.9099
  108RES   H38845542   1.205   2.097   1.390 -1.8302  0.5321  2.8607
  108RES   H38945543   0.928   2.203   1.319  0.9388 -0.5727 -1.4914
  108RES   H39045544   1.017   1.927   1.407  0.9643  2.5498 -0.6869
  108RES   H39145545   0.929   1.973   1.259  0.5188  2.0491 -1.4180
  108RES   H39245546   0.822   1.961   1.542 -1.1664 -2.6907  0.3198
  108RES   H39345547   0.741   2.048   1.410 -2.7046 -1.7093  0.0661
  108RES   H39445548   0.709   1.832   1.293 -0.9851 -0.4454  0.7345
  108RES   H39545549   0.808   1.743   1.391  0.5577  0.1813 -0.6998
  108RES   H39645550   0.558   1.878   1.492  0.5320  1.0944 -0.6005
  108RES   H39745551   0.664   1.770   1.586 -1.7734 -0.0483  0.4193
  108RES   H39845552   0.518   1.686   1.335 -0.1748  2.1987  0.4036
  108RES   H39945553   0.453   1.658   1.496 -0.1429 -1.3905 -0.7515
  108RES   H40045554   0.615   1.593   1.448  2.0247  1.7783 -1.5086
  108RES   C40145555   0.998   2.194   1.522  0.2909 -0.0845 -0.3333
  108RES   C40245556   1.095   2.128   1.617 -0.0118  0.2418 -0.2291
  108RES   C40345557   1.088   2.177   1.766  0.2378 -0.2800  0.1779
  108RES   C40445558   1.175   2.096   1.862  0.2676  0.0539  0.6062
  108RES   C40545559   1.324   2.132   1.848  0.5466 -0.7127  0.6140
  108RES   C40645560   1.408   2.119   1.985  0.9561  0.2253  0.8857
  108RES   C40745561   1.555   2.091   1.962  0.3949 -0.6028  0.2080
  108RES   H40845562   0.901   2.183   1.570  0.3504 -2.1269 -0.6549
  108RES   H40945563   1.022   2.301   1.521 -1.5357  0.3303 -0.0328
  108RES   H41045564   1.197   2.148   1.584  0.5942 -1.4701  0.5379
  108RES   H41145565   0.985   2.168   1.802 -0.1067 -1.6785 -1.1143
  108RES   H41245566   1.119   2.281   1.772  2.6375 -1.0179  1.1530
  108RES   H41345567   1.171   1.992   1.830 -1.1492  0.9160 -2.1454
  108RES   H41445568   1.138   2.100   1.964  2.0963 -1.0294  1.3234
  108RES   H41545569   1.368   2.077   1.764 -0.6706  0.4396 -0.7933
  108RES   H41645570   1.341   2.236   1.823 -0.1152 -1.1005 -1.4937
  108RES   H41745571   1.386   2.206   2.047 -1.0457  0.7807 -0.5332
  108RES   H41845572   1.381   2.031   2.043 -0.9524  1.6475  2.2470
  108RES   H41945573   1.612   2.162   1.903  0.7939 -0.0379  1.2594
  108RES   H42045574   1.575   2.000   1.905  0.0981 -0.8396  0.4768
  108RES   H42145575   1.611   2.078   2.054 -0.4406  0.0671  0.8207
  108RES   H42245576   1.089   2.019   1.607  1.7661  0.1437 -0.3734
  109RES     C145577   6.004   6.828   6.033 -0.7629 -0.3678  1.1187
  109RES     C245578   6.101   6.915   6.117  0.5480  0.4346  0.4009
  109RES     C345579   6.033   7.017   6.203  0.3746  0.4866 -1.0749
  109RES     C445580   6.104   7.054   6.339  0.0931 -0.2246  1.0262
  109RES     C545581   6.015   7.135   6.419  0.8377  0.0900 -0.0885
  109RES     C645582   6.091   7.210   6.532  0.7445 -0.6976 -0.3485
  109RES     C745583   6.197   7.321   6.501 -0.7436 -0.4548  0.3677
  109RES     H845584   6.057   6.754   5.972 -0.9674  0.6444 -0.3135
  109RES     H945585   5.950   6.881   5.955  0.0742 -0.3586  0.5387
  109RES    H1045586   6.131   6.845   6.195 -0.1361  0.6118  0.8214
  109RES    H1145587   6.022   7.105   6.140 -3.1312  0.4242 -0.6735
  109RES    H1245588   5.935   6.972   6.221  0.1478  1.6224  0.6453
  109RES    H1345589   6.144   6.963   6.384  0.9570 -1.6265 -2.3881
  109RES    H1445590   6.189   7.121   6.324  0.0056 -0.0396  1.3696
  109RES    H1545591   5.945   7.069   6.470 -0.0809  1.6534  0.7210
  109RES    H1645592   5.952   7.198   6.356 -0.1457 -1.1142 -0.3491
  109RES    H1745593   6.134   7.128   6.590 -1.7060 -1.8855 -0.1517
  109RES    H1845594   6.021   7.243   6.609 -0.3648 -0.1037 -1.6035
  109RES    H1945595   6.218   7.374   6.594 -2.0216 -1.3104  1.1612
  109RES    H2045596   6.157   7.391   6.428 -2.3313 -1.6562  0.0625
  109RES    H2145597   6.283   7.271   6.456 -1.1330 -1.7607  1.0588
  109RES    H2245598   5.937   6.772   6.098 -0.4574 -0.4693  1.3508
  109RES    C2345599   6.225   6.956   6.043  0.4450  0.4091 -0.5741
  109RES    C2445600   6.344   6.856   6.062  0.4628  0.1606 -0.2266
  109RES    C2545601   6.406   6.855   6.206 -0.0511 -1.1853  0.4505
  109RES    C2645602   6.434   6.717   6.245  0.3078  0.7516 -0.6129
  109RES    C2745603   6.539   6.712   6.361 -0.2432  0.7157  0.6140
  109RES    C2845604   6.569   6.565   6.388 -0.5520 -0.3758 -0.3887
  109RES    C2945605   6.661   6.543   6.502 -0.1851 -0.1569  0.2995
  109RES    H3045606   6.198   6.986   5.942  3.0115 -3.3471 -2.4865
  109RES    H3145607   6.253   7.044   6.101 -1.4884  0.9415 -0.4029
  109RES    H3245608   6.303   6.759   6.035 -0.1694  0.3568  0.0139
  109RES    H3345609   6.334   6.888   6.281  2.4962 -0.3062  2.5935
  109RES    H3445610   6.499   6.911   6.216  0.6024 -1.6935 -2.4887
  109RES    H3545611   6.468   6.660   6.158 -3.0218 -1.5784 -0.5007
  109RES    H3645612   6.348   6.670   6.293  2.7358 -0.4857  2.6726
  109RES    H3745613   6.503   6.765   6.450  2.6862 -1.0426  2.9594
  109RES    H3845614   6.634   6.754   6.328  0.6289 -1.2362  0.5471
  109RES    H3945615   6.615   6.516   6.302 -0.3923  0.0828 -0.5638
  109RES    H4045616   6.476   6.514   6.414  0.3029 -1.8680 -0.2287
  109RES    H4145617   6.760   6.585   6.481 -0.5087  0.6344  0.3417
  109RES    H4245618   6.631   6.585   6.598 -0.6846  0.5630 -0.1686
  109RES    H4345619   6.682   6.440   6.530 -0.4851  0.3570  2.5267
  109RES    C4445620   6.457   6.897   5.962 -0.3773 -0.5988 -0.2179
  109RES    C4545621   6.449   6.835   5.819  0.2820  0.2857 -0.3281
  109RES    C4645622   6.537   6.908   5.727 -0.2529 -0.1426  0.0522
  109RES    C4745623   6.690   6.921   5.764  0.0253 -0.1852 -0.6359
  109RES    C4845624   6.765   6.977   5.640 -0.7588 -0.0975  0.0010
  109RES    C4945625   6.898   7.040   5.680  0.3008  0.1842 -0.4437
  109RES    C5045626   6.979   7.090   5.561  0.0675  0.0477  0.3423
  109RES    H5145627   6.560   6.879   5.991 -0.0016  0.2305 -1.0078
  109RES    H5245628   6.447   7.004   5.944 -0.9872 -0.3235  1.6572
  109RES    H5345629   6.347   6.836   5.782  0.5872 -1.0447 -1.2153
  109RES    H5445630   6.495   7.006   5.707 -0.0351 -0.1805 -0.6326
  109RES    H5545631   6.537   6.850   5.634 -3.1043  1.0360 -0.7244
  109RES    H5645632   6.692   7.013   5.823 -1.2922  0.2359 -1.2409
  109RES    H5745633   6.746   6.839   5.810  1.4319  1.4934  0.7668
  109RES    H5845634   6.707   7.060   5.600  0.9282  0.4852 -1.3173
  109RES    H5945635   6.769   6.896   5.567  0.6984 -2.3079  2.4442
  109RES    H6045636   6.963   6.967   5.730 -1.8603 -0.3065  1.7490
  109RES    H6145637   6.896   7.120   5.754 -1.0229  0.0755 -0.3470
  109RES    H6245638   7.068   7.148   5.584 -1.0095  1.2171  1.7189
  109RES    H6345639   6.914   7.157   5.503 -2.3728 -2.3525  0.1878
  109RES    H6445640   7.006   7.002   5.503 -0.8281  0.0613 -0.1070
  109RES    C6545641   6.475   6.681   5.814  0.3964  0.3328 -0.0052
  109RES    C6645642   6.379   6.584   5.737 -0.1754 -0.0267 -0.1494
  109RES    C6745643   6.400   6.439   5.790  0.4618 -0.4994 -0.1925
  109RES    C6845644   6.330   6.406   5.920 -0.1522 -0.4326 -0.0831
  109RES    C6945645   6.366   6.272   5.974 -0.0563  0.2674  0.3634
  109RES    C7045646   6.274   6.229   6.092  0.5673  0.0305 -0.2814
  109RES    C7145647   6.263   6.331   6.203  0.3976  0.2107  0.1637
  109RES    H7245648   6.580   6.659   5.794  0.7924  1.6199  0.6321
  109RES    H7345649   6.466   6.643   5.916 -0.1316  0.1056 -0.1352
  109RES    H7445650   6.276   6.597   5.771  0.8252  0.6035  2.8303
  109RES    H7545651   6.364   6.374   5.710 -1.9492  0.1867  0.2932
  109RES    H7645652   6.507   6.416   5.794  0.4648 -0.5406 -0.5493
  109RES    H7745653   6.346   6.485   5.993  1.4033 -1.2805  0.5152
  109RES    H7845654   6.221   6.407   5.915 -0.2040  0.2627  1.0425
  109RES    H7945655   6.359   6.195   5.897  2.6050  0.4543 -0.1005
  109RES    H8045656   6.470   6.275   6.007  0.3433  1.2219 -0.9085
  109RES    H8145657   6.316   6.139   6.136  0.4519 -0.1208 -0.4789
  109RES    H8245658   6.178   6.205   6.046 -0.9699  0.9436  2.3451
  109RES    H8345659   6.366   6.353   6.232  0.1974  0.2223  0.8694
  109RES    H8445660   6.211   6.423   6.176  0.9546  0.1637 -1.1258
  109RES    H8545661   6.210   6.294   6.290 -1.1151  1.9698  0.0205
  109RES    C8645662   6.388   6.607   5.589 -0.1293  0.3125 -0.4303
  109RES    C8745663   6.298   6.530   5.483  0.1022 -0.5434 -0.3136
  109RES    C8845664   6.156   6.514   5.526 -0.1232  0.7076 -0.1577
  109RES    C8945665   6.072   6.634   5.564 -0.2006  0.8255 -0.0160
  109RES    C9045666   5.924   6.623   5.532  0.1840  0.0957 -0.7215
  109RES    C9145667   5.836   6.734   5.584 -0.5599  0.0165 -0.6098
  109RES    C9245668   5.686   6.697   5.572 -0.0292  0.3981  0.2979
  109RES    H9345669   6.383   6.715   5.575  1.1597  0.3157 -0.9397
  109RES    H9445670   6.491   6.586   5.560 -0.3988 -0.7871 -0.6140
  109RES    H9545671   6.333   6.427   5.489  1.7358 -0.1017 -1.7961
  109RES    H9645672   6.103   6.467   5.444  0.5887 -1.0511  0.3736
  109RES    H9745673   6.152   6.440   5.606  1.7802 -0.2064 -0.8909
  109RES    H9845674   6.083   6.654   5.670 -1.5625 -2.0270  0.7102
  109RES    H9945675   6.105   6.723   5.511 -0.7918  2.0272  1.6032
  109RES   H10045676   5.896   6.523   5.565 -1.3926  1.5566  2.5793
  109RES   H10145677   5.906   6.609   5.425 -1.7278  0.4411 -0.4670
  109RES   H10245678   5.861   6.771   5.684  2.8498 -2.3252 -0.4974
  109RES   H10345679   5.849   6.822   5.521 -0.0042 -0.6896 -1.4957
  109RES   H10445680   5.622   6.784   5.585  0.3830  0.8245 -0.5134
  109RES   H10545681   5.650   6.622   5.643 -1.5194  1.2255  0.4240
  109RES   H10645682   5.676   6.653   5.473 -0.1276 -0.2275  0.5820
  109RES   C10745683   6.310   6.583   5.338 -0.3209  0.9138  0.2351
  109RES   C10845684   6.453   6.570   5.262  0.4386  0.0600 -0.5687
  109RES   C10945685   6.553   6.678   5.303 -0.2526 -0.0127  0.4084
  109RES   C11045686   6.559   6.783   5.190  0.1224  0.4694 -0.7000
  109RES   C11145687   6.672   6.892   5.230 -0.1696 -0.1203 -0.3169
  109RES   C11245688   6.684   6.995   5.121  1.2647 -0.4114 -0.4571
  109RES   C11345689   6.821   7.058   5.125 -1.1320 -1.0356 -0.8840
  109RES   H11445690   6.294   6.691   5.329 -0.4468  0.9777  1.1470
  109RES   H11545691   6.238   6.537   5.271  0.0155  2.4520 -1.2116
  109RES   H11645692   6.430   6.586   5.157 -2.2497  0.0996 -0.0240
  109RES   H11745693   6.649   6.627   5.314  0.0414  0.2459 -0.8739
  109RES   H11845694   6.537   6.736   5.393  2.3657  0.9062  0.3333
  109RES   H11945695   6.582   6.738   5.094  2.9090  0.3000 -0.0084
  109RES   H12045696   6.462   6.831   5.179 -0.3569 -0.2701  0.2399
  109RES   H12145697   6.769   6.844   5.245  0.7943  1.5654 -1.0039
  109RES   H12245698   6.641   6.936   5.325  3.5933 -0.9852  1.3807
  109RES   H12345699   6.672   6.954   5.021  0.4197 -1.5084  0.0802
  109RES   H12445700   6.614   7.076   5.139  2.2291  0.3221  0.0509
  109RES   H12545701   6.898   6.993   5.085  0.8702  0.9703 -0.3965
  109RES   H12645702   6.824   7.146   5.061  1.0756 -1.0041 -0.7722
  109RES   H12745703   6.869   7.083   5.220  0.2041 -0.0677 -1.7988
  109RES   C12845704   6.509   6.430   5.283 -0.2570 -0.7347 -0.4065
  109RES   C12945705   6.624   6.386   5.191 -0.2544  0.6626 -0.1497
  109RES   C13045706   6.615   6.420   5.040  0.4742 -0.0588 -0.0315
  109RES   C13145707   6.504   6.353   4.960  0.2945  1.1624  0.7195
  109RES   C13245708   6.502   6.394   4.814 -0.3563 -0.4679  0.3112
  109RES   C13345709   6.388   6.335   4.747 -0.6215 -0.0943  0.0605
  109RES   C13445710   6.375   6.367   4.593 -0.1175 -0.4123 -0.0137
  109RES   H13545711   6.542   6.429   5.387 -1.6072  1.3706  0.0611
  109RES   H13645712   6.426   6.360   5.283 -1.1727  0.3184 -2.6003
  109RES   H13745713   6.720   6.433   5.213 -0.4842  0.5592  1.1207
  109RES   H13845714   6.713   6.397   4.998  1.3903  1.6204  1.1183
  109RES   H13945715   6.601   6.528   5.035  0.2867 -0.0578  0.5063
  109RES   H14045716   6.409   6.388   4.999 -0.3313  0.6003 -0.2824
  109RES   H14145717   6.524   6.247   4.972  1.6042  1.2535 -0.4374
  109RES   H14245718   6.593   6.373   4.759  0.4659 -0.0757  1.5105
  109RES   H14345719   6.491   6.502   4.825 -0.1876 -0.2982 -1.0727
  109RES   H14445720   6.294   6.348   4.801 -0.5428  0.0164  0.1691
  109RES   H14545721   6.421   6.231   4.743 -0.1140  0.0736 -0.1545
  109RES   H14645722   6.326   6.465   4.586 -2.0284 -1.4485 -1.6948
  109RES   H14745723   6.312   6.287   4.556 -1.0467 -1.1755  3.0301
  109RES   H14845724   6.469   6.370   4.538  1.5378  2.2958  2.7588
  109RES   C14945725   6.665   6.238   5.216 -0.5810  0.2142  0.4243
  109RES   C15045726   6.713   6.208   5.357  0.6643  0.5876 -0.5720
  109RES   C15145727   6.851   6.276   5.401  0.0842  0.0773  0.2056
  109RES   C15245728   6.832   6.385   5.512 -0.3235  0.1021 -0.5386
  109RES   C15345729   6.962   6.461   5.552 -1.1144 -0.2219 -0.2088
  109RES   C15445730   6.942   6.588   5.643  0.2725  0.9202 -0.3843
  109RES   C15545731   7.073   6.636   5.718 -0.0258 -0.1839  0.5466
  109RES   H15645732   6.586   6.166   5.196  0.9548 -1.4455  0.1686
  109RES   H15745733   6.742   6.205   5.146  3.1581  2.6137  3.1804
  109RES   H15845734   6.631   6.237   5.423  0.0131  0.6162 -1.3771
  109RES   H15945735   6.921   6.196   5.425 -0.3974 -0.4484 -0.1238
  109RES   H16045736   6.903   6.318   5.315  1.2995 -1.0475  0.3794
  109RES   H16145737   6.784   6.356   5.605 -1.8426 -0.5163 -1.4964
  109RES   H16245738   6.771   6.467   5.474 -0.6107  0.0593 -0.1765
  109RES   H16345739   7.007   6.490   5.457  1.2608 -0.6448  0.7647
  109RES   H16445740   7.030   6.388   5.595  2.6239  2.3049 -1.5067
  109RES   H16545741   6.868   6.563   5.718  1.2867  0.6574  0.5337
  109RES   H16645742   6.895   6.664   5.580 -0.6682  0.5314 -0.1487
  109RES   H16745743   7.066   6.728   5.777 -0.3819  1.0094 -1.2997
  109RES   H16845744   7.153   6.668   5.652 -1.8496  0.9226 -1.1906
  109RES   H16945745   7.106   6.551   5.778  1.3090  0.7624  1.1681
  109RES   C17045746   6.721   6.057   5.388 -0.0680  0.5941  0.3484
  109RES   C17145747   6.582   5.991   5.395  0.3577 -0.3215 -0.5137
  109RES   C17245748   6.605   5.839   5.360 -0.0637 -0.1934 -0.1828
  109RES   C17345749   6.604   5.818   5.206  0.2913  0.0724  0.4630
  109RES   C17445750   6.611   5.669   5.161  0.0068 -0.0131  0.0248
  109RES   C17545751   6.600   5.634   5.012 -0.5683 -0.0699  0.8572
  109RES   C17645752   6.688   5.727   4.925 -0.3991 -0.2063 -0.1365
  109RES   H17745753   6.773   6.039   5.481 -0.7348  1.2427  0.8533
  109RES   H17845754   6.779   6.000   5.315 -0.4139  0.7352 -0.0415
  109RES   H17945755   6.512   6.028   5.320 -0.0295 -1.3597 -0.6742
  109RES   H18045756   6.521   5.788   5.408  1.7979 -1.7463  1.5215
  109RES   H18145757   6.692   5.796   5.410  1.5408 -1.3091 -3.7592
  109RES   H18245758   6.667   5.894   5.158  0.3862  0.7084  1.5632
  109RES   H18345759   6.504   5.851   5.176  0.7114 -1.6819 -3.0222
  109RES   H18445760   6.535   5.626   5.226 -2.7050  2.5513 -1.3251
  109RES   H18545761   6.706   5.627   5.197 -1.0706 -1.0256  1.7638
  109RES   H18645762   6.495   5.627   4.982  0.3453 -0.4887 -2.4099
  109RES   H18745763   6.636   5.533   4.997 -1.0237  0.0008 -0.8196
  109RES   H18845764   6.638   5.824   4.915  1.3874  0.7188 -0.4295
  109RES   H18945765   6.698   5.689   4.823  0.0535 -1.0760  0.2348
  109RES   H19045766   6.791   5.741   4.957 -0.6137 -0.2480  0.5763
  109RES   C19145767   6.504   6.016   5.527 -0.1275  0.1092 -0.1507
  109RES   C19245768   6.345   6.009   5.536  0.4364 -0.3948 -0.2789
  109RES   C19345769   6.280   6.024   5.677  0.2746  0.0259 -0.5628
  109RES   C19445770   6.142   5.964   5.690  0.5159 -0.3778 -0.3854
  109RES   C19545771   6.094   5.941   5.838  0.0492  0.3483  0.6907
  109RES   C19645772   5.939   5.956   5.860  0.0232  0.0870  0.3200
  109RES   C19745773   5.875   5.815   5.833  0.4642  0.1696  0.5188
  109RES   H19845774   6.522   6.116   5.567  0.0280  0.6657 -1.5836
  109RES   H19945775   6.532   5.948   5.607 -2.1036  0.4233  0.8397
  109RES   H20045776   6.323   5.914   5.487 -0.1256  0.1549 -1.1180
  109RES   H20145777   6.278   6.130   5.703 -0.7643 -0.2878  0.6981
  109RES   H20245778   6.329   5.958   5.749 -0.0786  0.1022 -0.2488
  109RES   H20345779   6.148   5.872   5.632  0.8138 -0.1957 -0.6487
  109RES   H20445780   6.062   6.016   5.638  1.2901  1.4861  0.2451
  109RES   H20545781   6.134   5.851   5.885  0.1534  1.3828  2.6226
  109RES   H20645782   6.126   6.027   5.897  0.3556 -0.6940  2.0529
  109RES   H20745783   5.894   6.029   5.793 -0.9456 -1.4669 -0.7526
  109RES   H20845784   5.909   5.976   5.963  3.0069 -2.4012  1.7515
  109RES   H20945785   5.769   5.840   5.845  0.9030  2.2100  0.4052
  109RES   H21045786   5.907   5.746   5.910  1.3672 -0.9713 -0.8483
  109RES   H21145787   5.887   5.778   5.731  1.0503  1.6632  0.0220
  109RES   C21245788   6.273   6.119   5.444 -0.0882 -0.0776 -0.5503
  109RES   C21345789   6.194   6.064   5.322  0.1320 -0.2229 -0.4149
  109RES   C21445790   6.073   5.979   5.353 -0.3592 -0.3188  0.2724
  109RES   C21545791   5.945   6.060   5.397  0.3497  0.4807  0.5716
  109RES   C21645792   5.841   5.954   5.457 -0.0011 -0.2678  0.1639
  109RES   C21745793   5.715   6.021   5.520  0.0394 -0.1029 -0.5138
  109RES   C21845794   5.603   5.913   5.559 -0.2978 -0.1438  0.0803
  109RES   H21945795   6.348   6.187   5.403  1.1974 -0.5050  1.0082
  109RES   H22045796   6.201   6.185   5.492  0.3605  0.8024 -1.0869
  109RES   H22145797   6.257   5.995   5.266  2.1397  1.2789 -0.0510
  109RES   H22245798   6.044   5.905   5.279 -0.4244  1.1058 -1.1462
  109RES   H22345799   6.105   5.914   5.434 -0.3334  1.0630  1.3871
  109RES   H22445800   5.896   6.125   5.325 -0.3684 -0.7408 -0.0585
  109RES   H22545801   5.977   6.121   5.481 -2.5082  0.6678  1.5771
  109RES   H22645802   5.828   5.879   5.378  3.6050 -0.3663 -0.4437
  109RES   H22745803   5.889   5.898   5.537  1.1700 -0.4156 -0.6159
  109RES   H22845804   5.755   6.072   5.608 -0.2549 -0.2754 -0.2763
  109RES   H22945805   5.667   6.092   5.453 -0.0222 -0.2696 -0.6472
  109RES   H23045806   5.532   5.952   5.633 -0.0379 -2.6546  1.6897
  109RES   H23145807   5.648   5.820   5.590  0.4582 -0.0487 -0.6977
  109RES   H23245808   5.540   5.891   5.472  2.2343  0.2408 -1.9255
  109RES   C23345809   6.163   6.189   5.235 -0.1652  0.1488 -0.0040
  109RES   C23445810   6.097   6.161   5.098 -0.1918  0.1144 -0.1397
  109RES   C23545811   6.057   6.296   5.031 -0.3655  0.2246  0.3399
  109RES   C23645812   5.948   6.368   5.118 -0.4643  0.2346  0.6955
  109RES   C23745813   5.858   6.466   5.034 -0.3997  0.1479 -0.1759
  109RES   C23845814   5.771   6.556   5.124 -0.3770  0.8772 -0.3807
  109RES   C23945815   5.681   6.644   5.051 -0.7654  0.0787 -0.0760
  109RES   H24045816   6.257   6.243   5.223 -1.1514  2.4310  1.9223
  109RES   H24145817   6.107   6.255   5.302 -0.5332 -0.4143  0.2483
  109RES   H24245818   6.005   6.106   5.113 -0.8161  1.0625 -0.4152
  109RES   H24345819   6.007   6.284   4.935 -0.7504  0.5548  0.4959
  109RES   H24445820   6.141   6.355   4.992  0.0279  0.2183  1.1699
  109RES   H24545821   6.006   6.426   5.189 -0.9336  0.7954  0.6301
  109RES   H24645822   5.881   6.302   5.173  3.9692 -3.1847  2.2822
  109RES   H24745823   5.791   6.406   4.972 -0.2568 -1.5369  1.2610
  109RES   H24845824   5.917   6.531   4.969 -0.6253 -1.0471 -1.6062
  109RES   H24945825   5.705   6.493   5.182  0.1883 -1.1043 -1.8469
  109RES   H25045826   5.832   6.619   5.188  0.3130  0.1650 -0.3348
  109RES   H25145827   5.603   6.589   4.999 -1.1099  1.8027 -1.4011
  109RES   H25245828   5.631   6.713   5.119  1.7460  1.9900 -0.0984
  109RES   H25345829   5.724   6.713   4.979 -0.9947  0.5123  0.2003
  109RES   C25445830   6.202   6.077   5.008  0.4473 -0.2294 -0.4453
  109RES   C25545831   6.168   6.040   4.862  0.1381  0.2116 -0.1663
  109RES   C25645832   6.031   5.968   4.848  0.1566 -0.2241 -0.4464
  109RES   C25745833   6.001   5.833   4.909 -0.1824 -0.8614 -0.1118
  109RES   C25845834   5.877   5.767   4.854  0.4672  0.5694 -0.4914
  109RES   C25945835   5.842   5.637   4.922 -0.4558  0.1506  1.1461
  109RES   C26045836   5.696   5.598   4.904  0.2947  0.3769  1.2051
  109RES   H26145837   6.208   5.982   5.061 -0.9619  0.7627  1.5838
  109RES   H26245838   6.299   6.128   5.011  0.1639  0.3061 -0.4118
  109RES   H26345839   6.167   6.137   4.812 -0.8452  1.3012  1.8912
  109RES   H26445840   6.017   5.957   4.740 -1.0842 -0.1103 -0.3003
  109RES   H26545841   5.952   6.034   4.883  0.9930 -0.6024  2.2499
  109RES   H26645842   6.079   5.760   4.887  2.3773  0.9712  2.4147
  109RES   H26745843   6.008   5.837   5.018  1.4300  0.2985 -0.2407
  109RES   H26845844   5.881   5.751   4.746 -0.2273 -0.5601 -0.3511
  109RES   H26945845   5.796   5.839   4.866 -0.6058 -0.3107 -2.2225
  109RES   H27045846   5.898   5.547   4.896  0.0087  0.3225  1.5415
  109RES   H27145847   5.858   5.654   5.029 -0.3819  0.9860  1.0104
  109RES   H27245848   5.625   5.678   4.924 -0.5232 -0.0846  0.1575
  109RES   H27345849   5.685   5.563   4.802  0.9059 -0.3532  1.3844
  109RES   H27445850   5.670   5.512   4.967 -0.3026 -1.0215 -0.9052
  109RES   C27545851   6.291   5.959   4.811  0.0124 -0.1447  0.6485
  109RES   C27645852   6.311   5.967   4.656 -0.3880  0.4893  0.0009
  109RES   C27745853   6.217   5.867   4.576 -0.2809 -0.1588  0.1950
  109RES   C27845854   6.142   5.930   4.464  0.0340  0.0129  0.2052
  109RES   C27945855   6.061   5.838   4.356  0.1993  0.4165  0.4971
  109RES   C28045856   5.975   5.934   4.273 -0.0800 -0.3296 -0.1962
  109RES   C28145857   5.930   5.862   4.151 -0.4387 -0.0540 -0.5450
  109RES   H28245858   6.273   5.855   4.841 -3.0411 -0.2819 -1.3846
  109RES   H28345859   6.384   5.990   4.858  1.4254 -1.7571 -0.9766
  109RES   H28445860   6.279   6.069   4.635  0.4103  0.6415 -0.5019
  109RES   H28545861   6.273   5.778   4.545  0.7607 -0.2601  2.2969
  109RES   H28645862   6.141   5.830   4.645 -1.2817 -1.6083 -1.6371
  109RES   H28745863   6.196   6.006   4.408  1.9532 -1.0732  0.5372
  109RES   H28845864   6.066   5.983   4.521  1.0393 -0.5542  2.1136
  109RES   H28945865   6.001   5.761   4.405 -0.1421  1.7494  2.2397
  109RES   H29045866   6.133   5.772   4.308 -0.7222 -1.2059  1.2836
  109RES   H29145867   5.893   5.979   4.330 -0.3541 -1.3626  0.2401
  109RES   H29245868   6.028   6.025   4.246 -0.2161 -0.3846 -0.6517
  109RES   H29345869   5.873   5.771   4.173  0.0053 -0.8971 -2.7697
  109RES   H29445870   6.012   5.829   4.087 -2.3466 -1.2956 -2.4120
  109RES   H29545871   5.861   5.918   4.088 -1.1657 -0.8327 -0.4488
  109RES   C29645872   6.461   5.948   4.626 -0.2552 -0.1399  0.2719
  109RES   C29745873   6.501   5.923   4.474  0.3733 -0.2298  0.4564
  109RES   C29845874   6.634   5.841   4.471 -0.4382 -0.2691  0.0293
  109RES   C29945875   6.644   5.699   4.522 -0.7521  0.0727 -0.0142
  109RES   C30045876   6.597   5.586   4.422  0.2331 -0.4808  0.9197
  109RES   C30145877   6.674   5.559   4.300  0.2197 -0.1441  0.0600
  109RES   C30245878   6.650   5.420   4.236 -0.1466  0.0507 -0.2450
  109RES   H30345879   6.530   6.029   4.652  0.7441 -0.3176 -1.6684
  109RES   H30445880   6.493   5.866   4.690  1.5714  0.8171  0.6131
  109RES   H30545881   6.430   5.865   4.415  0.1599  1.6759 -1.1844
  109RES   H30645882   6.669   5.820   4.370 -1.9769 -0.7037 -0.4245
  109RES   H30745883   6.712   5.902   4.516  0.0745  1.2208 -2.7879
  109RES   H30845884   6.587   5.686   4.614 -1.2818 -2.3588 -0.6349
  109RES   H30945885   6.740   5.683   4.571 -0.5336 -0.9697 -0.7731
  109RES   H31045886   6.490   5.589   4.401  0.6726 -0.1417 -1.3447
  109RES   H31145887   6.598   5.497   4.485  2.1505 -1.1710 -0.0658
  109RES   H31245888   6.658   5.638   4.226  0.3379 -0.1611  0.0170
  109RES   H31345889   6.778   5.567   4.331  1.1858 -1.5266 -2.6313
  109RES   H31445890   6.677   5.335   4.298  1.4838  0.6124 -0.1549
  109RES   H31545891   6.548   5.417   4.198  0.5098 -2.4808 -1.8960
  109RES   H31645892   6.721   5.423   4.153  0.2949 -0.3963  0.1115
  109RES   C31745893   6.514   6.058   4.393  0.0315 -0.0470 -0.5586
  109RES   C31845894   6.540   6.058   4.242  0.4062  0.0126  0.4432
  109RES   C31945895   6.436   5.984   4.163  0.1969  0.3910  0.6308
  109RES   C32045896   6.473   5.938   4.022  0.0623 -0.4675 -1.0814
  109RES   C32145897   6.368   5.847   3.950 -0.1599  0.1329  0.9779
  109RES   C32245898   6.267   5.926   3.871 -0.0281 -0.5032  0.5054
  109RES   C32345899   6.173   5.840   3.785 -0.2192  0.1054  0.3510
  109RES   H32445900   6.585   6.116   4.452 -0.3116  0.1033 -0.2917
  109RES   H32545901   6.418   6.109   4.382  1.3502  2.6676  0.1344
  109RES   H32645902   6.635   6.007   4.229 -0.0465 -0.4684 -1.1006
  109RES   H32745903   6.348   6.049   4.166 -0.5071 -0.5640  1.2611
  109RES   H32845904   6.400   5.887   4.198  1.5082 -0.9432 -1.6134
  109RES   H32945905   6.560   5.871   4.027  0.3480 -0.0717 -0.5906
  109RES   H33045906   6.486   6.027   3.961 -0.5595 -0.8294 -1.7435
  109RES   H33145907   6.316   5.782   4.020 -0.1388  1.1703  1.9751
  109RES   H33245908   6.426   5.786   3.881 -0.0843  1.9456 -0.6169
  109RES   H33345909   6.310   5.997   3.800  2.1625 -1.0363  1.2829
  109RES   H33445910   6.208   5.986   3.941  0.2289  0.3283  0.0248
  109RES   H33545911   6.138   5.747   3.831 -0.7866  0.1255 -0.0407
  109RES   H33645912   6.236   5.808   3.702  0.5291  0.7913  0.6522
  109RES   H33745913   6.097   5.894   3.729  0.9217 -1.1852 -2.5447
  109RES   C33845914   6.561   6.197   4.184  0.0492 -0.4556  0.7158
  109RES   C33945915   6.699   6.258   4.214 -0.1060 -0.9527  0.5001
  109RES   C34045916   6.679   6.409   4.234 -1.2179  0.6601  0.7880
  109RES   C34145917   6.628   6.490   4.118 -0.2254 -0.5799  0.8632
  109RES   C34245918   6.628   6.639   4.147 -0.0524 -0.3593  0.2999
  109RES   C34345919   6.569   6.730   4.033 -0.4485 -1.1743 -0.7218
  109RES   C34445920   6.549   6.874   4.073 -0.1675 -0.4613 -0.2613
  109RES   H34545921   6.479   6.256   4.225 -1.1418 -1.6551  0.0950
  109RES   H34645922   6.544   6.198   4.076 -0.2450 -1.8058  0.7474
  109RES   H34745923   6.737   6.235   4.313  0.3188  0.6467  0.7165
  109RES   H34845924   6.614   6.430   4.318  0.0933  0.0775  1.9629
  109RES   H34945925   6.782   6.436   4.258 -0.1636 -2.3545 -0.0450
  109RES   H35045926   6.528   6.457   4.089  0.3726  0.2662 -2.3980
  109RES   H35145927   6.701   6.465   4.042  0.2586  1.5990  0.5784
  109RES   H35245928   6.588   6.666   4.245  0.7164  0.1446  0.4801
  109RES   H35345929   6.730   6.672   4.168 -0.6992  0.6241  1.9383
  109RES   H35445930   6.645   6.725   3.955 -1.8183  1.3799 -2.2858
  109RES   H35545931   6.471   6.697   3.998 -0.8423  1.1745 -1.9564
  109RES   H35645932   6.499   6.929   3.993  1.5117  2.8245  0.8277
  109RES   H35745933   6.646   6.924   4.081 -0.1342 -0.3454 -1.4067
  109RES   H35845934   6.493   6.881   4.166  0.2702 -3.1469  0.2461
  109RES   C35945935   6.809   6.222   4.104 -0.4174 -0.0682 -0.6159
  109RES   C36045936   6.952   6.191   4.152  0.7053  0.3727  0.0727
  109RES   C36145937   7.026   6.314   4.205 -0.3188  0.2333 -0.0963
  109RES   C36245938   7.181   6.307   4.224 -0.1921 -0.1944 -0.1418
  109RES   C36345939   7.274   6.258   4.103 -0.7468  0.0601 -0.4671
  109RES   C36445940   7.424   6.241   4.149 -0.1420 -0.3495  0.0271
  109RES   C36545941   7.536   6.207   4.047  0.3122  0.1307  0.2660
  109RES   H36645942   6.806   6.278   4.011 -0.4380  0.9128 -0.0337
  109RES   H36745943   6.776   6.129   4.059 -0.2483  0.1226 -1.1310
  109RES   H36845944   7.008   6.161   4.063 -0.1137  0.5377 -0.4980
  109RES   H36945945   7.021   6.397   4.133 -1.9450  0.8087  0.6492
  109RES   H37045946   6.973   6.362   4.287 -2.5833 -4.4056  1.2736
  109RES   H37145947   7.215   6.408   4.248  0.0264 -0.3295  0.1238
  109RES   H37245948   7.219   6.264   4.316 -0.6579 -1.1556 -0.3958
  109RES   H37345949   7.240   6.160   4.070  0.6172 -0.0381 -1.5886
  109RES   H37445950   7.286   6.320   4.014  1.7973  1.9144  1.1029
  109RES   H37545951   7.463   6.326   4.204 -0.5919  1.3878 -2.2972
  109RES   H37645952   7.410   6.158   4.219  0.3534 -1.5031 -1.2116
  109RES   H37745953   7.634   6.190   4.090 -0.5941 -0.4681  2.1455
  109RES   H37845954   7.511   6.119   3.987 -2.4644 -0.2174  1.8395
  109RES   H37945955   7.553   6.282   3.970 -0.7125  0.6150  0.4971
  109RES   C38045956   6.950   6.060   4.244 -0.7455  0.0713  0.7148
  109RES   C38145957   7.076   5.966   4.233 -0.4455 -0.3397  0.7184
  109RES   C38245958   7.070   5.845   4.336  0.3455  0.2906  0.1245
  109RES   C38345959   7.116   5.883   4.479 -0.0922 -0.3049 -0.2958
  109RES   C38445960   7.071   5.776   4.575 -1.1444 -0.9414 -0.3555
  109RES   C38545961   7.172   5.662   4.587 -0.0129  0.3685  0.7045
  109RES   C38645962   7.137   5.551   4.688  0.5272 -0.3137 -0.0510
  109RES   H38745963   6.921   6.089   4.345 -0.7418  0.4078  0.6202
  109RES   H38845964   6.874   5.990   4.210 -0.2012 -0.2807  0.2192
  109RES   H38945965   7.162   6.032   4.244 -0.7665  0.1416  0.4106
  109RES   H39045966   7.113   5.749   4.308  1.7941  0.6944  0.9521
  109RES   H39145967   6.965   5.821   4.355 -0.4887  2.4821 -1.4505
  109RES   H39245968   7.224   5.899   4.483 -0.0071 -1.0044  0.3916
  109RES   H39345969   7.063   5.975   4.502 -0.6076 -0.5901 -0.3248
  109RES   H39445970   7.062   5.819   4.674 -2.4741 -0.7811 -0.5418
  109RES   H39545971   6.969   5.750   4.548 -0.3005 -4.6489 -0.2663
  109RES   H39645972   7.269   5.702   4.614  0.3615 -0.3224  0.3952
  109RES   H39745973   7.184   5.613   4.490 -0.9290 -0.8346  1.1889
  109RES   H39845974   7.030   5.532   4.686  0.5192 -0.3808  0.8217
  109RES   H39945975   7.183   5.576   4.784  1.3747 -2.7627  0.2054
  109RES   H40045976   7.182   5.455   4.665 -2.9401 -2.0806  0.3301
  109RES   C40145977   7.090   5.912   4.079  0.2294 -0.0807  0.2047
  109RES   C40245978   7.206   5.814   4.059 -0.3248  0.1549 -0.1725
  109RES   C40345979   7.337   5.867   4.111 -0.0967  0.2496  0.0527
  109RES   C40445980   7.456   5.769   4.105  0.2544 -0.5999  0.4576
  109RES   C40545981   7.567   5.807   4.212 -0.0201  0.5013 -0.0940
  109RES   C40645982   7.529   5.786   4.359  0.1143 -0.2086  0.4340
  109RES   C40745983   7.648   5.789   4.448  1.0619  0.9161  0.5617
  109RES   H40845984   7.129   5.992   4.016  1.0028 -0.6888 -0.1010
  109RES   H40945985   7.005   5.861   4.033 -0.6475  0.6068  1.0325
  109RES   H41045986   7.225   5.777   3.958 -0.5599 -2.2467  0.6480
  109RES   H41145987   7.322   5.893   4.216  0.8417 -2.3544  0.8735
  109RES   H41245988   7.372   5.963   4.073  3.7573 -1.9052 -2.1349
  109RES   H41345989   7.493   5.776   4.003 -0.7365 -0.4212  0.0977
  109RES   H41445990   7.417   5.668   4.120 -3.7353  0.4251 -2.0821
  109RES   H41545991   7.657   5.746   4.200  0.3473  1.3346 -1.6692
  109RES   H41645992   7.604   5.905   4.184  0.9304 -0.2721 -1.6485
  109RES   H41745993   7.488   5.881   4.396  0.8253  0.7949 -1.2802
  109RES   H41845994   7.455   5.713   4.393 -1.2583  1.3597  0.9082
  109RES   H41945995   7.625   5.805   4.554  1.4879  0.5159  0.7164
  109RES   H42045996   7.708   5.875   4.419  0.7891  0.7255 -0.5760
  109RES   H42145997   7.698   5.692   4.446  1.2091  0.9808  1.0647
  109RES   H42245998   7.168   5.724   4.107 -0.5073 -0.7816 -2.0100
  110RES     C145999   7.270   4.695   7.716  0.1955 -0.4648  0.1530
  110RES     C246000   7.145   4.759   0.038 -0.4157 -0.6263  0.3019
  110RES     C346001   7.146   4.908   7.725  0.1276  0.4626  0.1225
  110RES     C446002   7.188   4.948   7.586 -0.4469  0.5442  0.9016
  110RES     C546003   7.075   4.911   7.487 -0.1292 -0.4347  0.0944
  110RES     C646004   7.107   4.925   7.336  0.1980 -0.8595  0.0310
  110RES     C746005   6.979   4.892   7.258 -0.0218 -0.8175  0.8100
  110RES     H846006   7.359   4.739   0.034 -0.6211  1.4918 -0.1008
  110RES     H946007   7.275   4.693   7.607  3.7286  3.0971  0.1610
  110RES    H1046008   7.064   4.703   7.719 -0.9136 -0.2448  0.7123
  110RES    H1146009   7.051   4.951   0.029  0.7270  0.0249  2.7136
  110RES    H1246010   7.212   4.961   0.067 -0.5696  0.3296  0.9007
  110RES    H1346011   7.205   5.055   7.585 -1.1394  0.7240  3.4641
  110RES    H1446012   7.274   4.898   7.541 -0.9762  1.3422 -1.0054
  110RES    H1546013   6.993   4.980   7.501  0.6262  0.5447 -0.2380
  110RES    H1646014   7.036   4.812   7.509 -0.5618  0.1189  1.8952
  110RES    H1746015   7.177   4.845   7.311 -2.7991 -3.9521  1.1303
  110RES    H1846016   7.152   5.022   7.317  0.1024 -0.9028 -0.4388
  110RES    H1946017   6.906   4.966   7.293  0.7598  0.7482 -0.7798
  110RES    H2046018   6.953   4.787   7.266  2.0205 -1.3919  0.0673
  110RES    H2146019   6.998   4.909   7.152 -0.5620 -1.9380  0.5301
  110RES    H2246020   7.278   4.596   0.034  2.3758 -0.6541 -0.5999
  110RES    C2346021   7.129   4.738   0.192 -0.2210  0.0158 -0.3462
  110RES    C2446022   6.985   4.761   0.242  0.4898 -0.2282  0.3609
  110RES    C2546023   6.973   4.741   0.394  0.0526  0.4857 -0.1988
  110RES    C2646024   7.065   4.833   0.476  0.4503  0.1735 -0.3343
  110RES    C2746025   7.041   4.812   0.628 -0.5479 -0.1585  0.4468
  110RES    C2846026   7.072   4.671   0.671  0.4695 -0.6017 -0.1688
  110RES    C2946027   7.086   4.646   0.825  0.0873 -0.0029 -0.6622
  110RES    H3046028   7.147   4.635   0.222 -1.6528  0.2812  1.5970
  110RES    H3146029   7.205   4.799   0.241 -1.3958  1.4357 -0.2392
  110RES    H3246030   6.956   4.861   0.210  2.0023  0.5333  1.3223
  110RES    H3346031   7.006   4.641   0.420 -1.4164 -0.4280 -1.7363
  110RES    H3446032   6.872   4.764   0.429  0.4600  0.4514  1.0288
  110RES    H3546033   7.044   4.937   0.450 -0.6369  0.1518  0.4198
  110RES    H3646034   7.170   4.816   0.453  0.2925  2.0835 -2.6817
  110RES    H3746035   6.938   4.833   0.659 -0.3314 -0.4348  1.3790
  110RES    H3846036   7.104   4.875   0.691 -0.7997 -0.4558  0.9983
  110RES    H3946037   7.165   4.640   0.623 -0.5462 -0.7151 -2.0997
  110RES    H4046038   6.989   4.608   0.639  0.6464 -0.5872 -0.6564
  110RES    H4146039   7.176   4.688   0.870 -0.7846  0.5172  0.6112
  110RES    H4246040   7.000   4.678   0.883  0.4770 -1.4202  0.7296
  110RES    H4346041   7.097   4.539   0.845  0.3873 -0.1953 -1.8032
  110RES    C4446042   6.877   4.672   0.170  0.4387 -0.1319 -0.3247
  110RES    C4546043   6.884   4.519   0.201  0.0640  0.5154 -0.5362
  110RES    C4646044   6.744   4.473   0.265 -0.5627 -0.4158  0.6351
  110RES    C4746045   6.622   4.487   0.168 -1.1854 -0.9522  0.1782
  110RES    C4846046   6.484   4.438   0.218  0.2575  0.5001 -0.5657
  110RES    C4946047   6.371   4.471   0.121 -0.9588 -0.0477  0.5043
  110RES    C5046048   6.379   4.401   7.709 -0.3668  0.0601 -0.2739
  110RES    H5146049   6.883   4.691   0.063 -1.2000  2.2907 -0.0338
  110RES    H5246050   6.779   4.710   0.201  0.4633  0.4964 -0.9985
  110RES    H5346051   6.960   4.507   0.277 -1.6208  1.0591  1.2646
  110RES    H5446052   6.722   4.534   0.352  1.9214  1.1375  0.2152
  110RES    H5546053   6.743   4.370   0.301 -1.1299 -1.5239 -2.3525
  110RES    H5646054   6.610   4.588   0.130 -0.0195 -0.2582  1.6228
  110RES    H5746055   6.650   4.432   0.078  5.3636  2.7060 -0.3317
  110RES    H5846056   6.456   4.477   0.316 -1.6427  0.0450 -0.9078
  110RES    H5946057   6.480   4.330   0.229 -1.6928  0.3522 -2.4310
  110RES    H6046058   6.360   4.578   0.106 -0.9450 -0.5034 -3.1720
  110RES    H6146059   6.275   4.435   0.156 -1.8349 -0.3760 -2.1187
  110RES    H6246060   6.451   4.443   7.640 -0.5778 -1.4964 -1.4477
  110RES    H6346061   6.281   4.414   7.663 -0.7755  0.0004  0.5752
  110RES    H6446062   6.392   4.294   7.719  1.8358  0.3686  0.3819
  110RES    C6546063   6.928   4.426   0.084 -0.1351  0.3208  0.6477
  110RES    C6646064   6.954   4.281   0.135  0.8830 -0.1779  0.5346
  110RES    C6746065   7.090   4.220   0.079 -0.4732  0.5763  1.2111
  110RES    C6846066   7.222   4.264   0.141 -0.1250  0.0844 -0.2405
  110RES    C6946067   7.351   4.243   0.061  0.4053  0.5180 -0.1124
  110RES    C7046068   7.469   4.308   0.119  0.6642  1.3405 -0.1820
  110RES    C7146069   7.600   4.273   0.048  0.2072  0.2891 -0.3692
  110RES    H7246070   6.864   4.430   7.722 -0.4639 -0.6026  0.8310
  110RES    H7346071   7.018   4.466   0.037 -0.4004 -1.1665 -1.2086
  110RES    H7446072   6.954   4.285   0.244  0.0341 -0.4261  0.5453
  110RES    H7546073   7.104   4.113   0.090  2.9710  0.8745  0.4038
  110RES    H7646074   7.083   4.232   7.697  0.4212 -0.4923  1.0274
  110RES    H7746075   7.215   4.366   0.178 -1.1467 -0.2964  0.6691
  110RES    H7846076   7.231   4.199   0.228 -1.9061  0.3667  0.1729
  110RES    H7946077   7.373   4.138   0.046 -1.2940 -0.1353  1.7107
  110RES    H8046078   7.325   4.280   7.689 -0.9263 -1.1793 -0.4258
  110RES    H8146079   7.475   4.283   0.225 -0.8186  0.2287 -0.3463
  110RES    H8246080   7.459   4.416   0.117  1.2641  1.4190  0.7090
  110RES    H8346081   7.602   4.307   7.671  0.2172  3.1453  0.5049
  110RES    H8446082   7.691   4.310   0.094  1.1558 -2.5818  0.1378
  110RES    H8546083   7.595   4.165   0.038  1.5766  0.1807 -0.0036
  110RES    C8646084   6.837   4.187   0.081 -0.1377  0.0143  0.2914
  110RES    C8746085   6.826   4.042   0.144  0.5818 -0.1286  0.0380
  110RES    C8846086   6.809   4.048   0.299  0.3926 -0.2158  0.2824
  110RES    C8946087   6.831   3.913   0.370 -0.6834  0.3966  0.4861
  110RES    C9046088   6.973   3.871   0.388 -0.0298 -0.2300 -0.4642
  110RES    C9146089   6.996   3.772   0.499 -0.8334 -0.2779  0.6672
  110RES    C9246090   7.143   3.716   0.503 -0.0349  0.5099 -0.5898
  110RES    H9346091   6.745   4.243   0.096 -1.4181 -0.9706 -3.3738
  110RES    H9446092   6.855   4.189   7.700  1.3711  1.0181  0.5331
  110RES    H9546093   6.921   3.994   0.118  2.4857  3.2510  0.5281
  110RES    H9646094   6.882   4.119   0.337  0.1097  0.2640 -0.0734
  110RES    H9746095   6.708   4.087   0.308  0.9488  1.7072 -1.4883
  110RES    H9846096   6.796   3.936   0.471 -1.9793 -0.4583  0.2364
  110RES    H9946097   6.768   3.830   0.338  1.6960 -2.0482  1.9585
  110RES   H10046098   7.036   3.956   0.412 -1.0588 -0.1419  2.0496
  110RES   H10146099   7.011   3.851   0.288 -3.2041  2.7374 -2.3842
  110RES   H10246100   6.975   3.809   0.599  0.7002  0.0771  0.8659
  110RES   H10346101   6.927   3.691   0.479  0.6832 -1.2362 -0.8438
  110RES   H10446102   7.161   3.628   0.564  0.8138  0.9558 -0.1837
  110RES   H10546103   7.192   3.806   0.540 -1.0529  2.1087 -2.9870
  110RES   H10646104   7.176   3.694   0.401  0.6676 -0.2012 -0.2075
  110RES   C10746105   6.720   3.959   0.075  0.3787 -0.1809  0.4447
  110RES   C10846106   6.749   3.919   7.648  0.0327  0.3011 -0.6000
  110RES   C10946107   6.877   3.835   7.632  0.0324  0.7770  0.1375
  110RES   C11046108   6.876   3.696   7.703 -0.1749 -0.6832 -0.0104
  110RES   C11146109   6.996   3.607   7.672 -0.2040  1.5716  0.0949
  110RES   C11246110   7.102   3.624   0.055  0.3655 -0.2444  0.1165
  110RES   C11346111   7.237   3.549   0.039  0.1881  0.2941  0.1875
  110RES   H11446112   6.629   4.019   0.067 -0.7802 -2.2382 -2.8728
  110RES   H11546113   6.699   3.870   0.134 -0.3825 -0.7503 -0.6598
  110RES   H11646114   6.761   4.011   7.591 -0.7504  1.3247  0.8396
  110RES   H11746115   6.964   3.894   7.659 -0.7485  0.8604  2.6553
  110RES   H11846116   6.878   3.820   7.524 -0.7614  1.1725  0.0718
  110RES   H11946117   6.862   3.697   0.084 -2.3846 -0.7025 -0.2702
  110RES   H12046118   6.790   3.641   7.662  0.5189 -2.3603  0.7214
  110RES   H12146119   7.022   3.641   7.572  0.2246 -1.6679 -0.9351
  110RES   H12246120   6.965   3.504   7.657  0.7746  1.0237  1.7288
  110RES   H12346121   7.131   3.729   0.064 -2.8027  0.6131  0.7628
  110RES   H12446122   7.051   3.597   0.147  3.4694 -2.6787  1.2341
  110RES   H12546123   7.288   3.581   7.675 -4.8066  1.6051 -2.3615
  110RES   H12646124   7.302   3.554   0.126  0.5214  0.4897 -0.0754
  110RES   H12746125   7.204   3.447   0.018  0.4097  0.0741  0.8887
  110RES   C12846126   6.627   3.862   7.580  0.3138  0.7647 -0.1121
  110RES   C12946127   6.524   3.976   7.544  0.3384 -0.0014 -0.7089
  110RES   C13046128   6.382   3.952   7.607  0.0554 -0.5977 -0.9442
  110RES   C13146129   6.359   3.968   0.034 -0.0100 -0.0906  0.8386
  110RES   C13246130   6.210   3.936   0.071 -0.0605  0.0180  0.3181
  110RES   C13346131   6.147   3.979   0.207 -0.2101 -0.9077  0.6448
  110RES   C13446132   6.139   4.132   0.219  0.3073 -0.5802  0.4595
  110RES   H13546133   6.645   3.818   7.481 -1.2848  1.5924 -0.7984
  110RES   H13646134   6.577   3.784   7.638  1.2134  2.0252  2.4174
  110RES   H13746135   6.553   4.073   7.584  0.2424 -0.2972  0.0853
  110RES   H13846136   6.346   3.855   7.574 -0.6350 -0.5421 -0.3635
  110RES   H13946137   6.306   4.022   7.573 -0.1769  0.0178  0.7696
  110RES   H14046138   6.407   4.061   0.065 -0.5891  0.5594 -0.2030
  110RES   H14146139   6.412   3.887   0.084  1.8447  0.3147 -0.4313
  110RES   H14246140   6.198   3.828   0.065  1.2215 -0.0798 -1.0033
  110RES   H14346141   6.152   3.985   7.720  1.2038  1.2630  0.1207
  110RES   H14446142   6.186   3.926   0.294 -0.1931  0.9332  1.7865
  110RES   H14546143   6.042   3.952   0.199 -0.6545  0.4489  1.8383
  110RES   H14646144   6.101   4.179   0.129  3.9503  0.6942 -0.5151
  110RES   H14746145   6.238   4.175   0.233 -0.5709  2.3475 -1.9633
  110RES   H14846146   6.070   4.150   0.302  0.2319 -0.7097  0.4248
  110RES   C14946147   6.504   3.998   7.392  0.5135 -0.8205 -0.0282
  110RES   C15046148   6.639   4.036   7.323 -0.1504 -0.2823  0.4412
  110RES   C15146149   6.670   4.188   7.348  0.0973 -0.0759  0.6594
  110RES   C15246150   6.821   4.221   7.359 -0.1832  0.3696 -0.6705
  110RES   C15346151   6.832   4.362   7.400  0.6828  0.1565  0.2592
  110RES   C15446152   6.975   4.413   7.400  0.6595  0.1779  0.1999
  110RES   C15546153   6.994   4.552   7.451  0.3428 -0.1331 -0.2417
  110RES   H15646154   6.457   3.909   7.350 -0.3471 -0.6491  0.5742
  110RES   H15746155   6.432   4.076   7.369  0.6198 -0.7473 -0.1121
  110RES   H15846156   6.722   3.978   7.365 -0.6132 -1.0466  0.3208
  110RES   H15946157   6.614   4.248   7.276  0.8882  0.3664  0.3989
  110RES   H16046158   6.629   4.217   7.445 -0.4226 -0.0983  0.4439
  110RES   H16146159   6.874   4.216   7.264  0.0627 -0.2705 -0.5039
  110RES   H16246160   6.867   4.150   7.428 -0.0108  2.6091  1.5759
  110RES   H16346161   6.796   4.372   7.502 -0.4120  0.5858 -0.1636
  110RES   H16446162   6.772   4.428   7.338  2.0676  2.5416  1.3724
  110RES   H16546163   7.011   4.410   7.297  1.0081  2.9359  0.2264
  110RES   H16646164   7.033   4.349   7.467  1.2736  0.9437  0.4006
  110RES   H16746165   6.930   4.629   7.408 -0.1286  0.4226  1.4085
  110RES   H16846166   7.099   4.578   7.443  1.1692 -3.4926 -0.9574
  110RES   H16946167   6.967   4.566   7.556 -2.1114  1.8153 -1.0780
  110RES   C17046168   6.637   4.001   7.170  0.0198 -0.3615  0.1375
  110RES   C17146169   6.607   3.856   7.119  0.0014  0.2338 -0.3820
  110RES   C17246170   6.510   3.866   7.008 -0.0737  0.4402 -0.8768
  110RES   C17346171   6.558   3.947   6.883  0.4967 -0.1453  0.3732
  110RES   C17446172   6.459   3.934   6.767 -0.2735  0.0002  0.2301
  110RES   C17546173   6.507   4.009   6.643 -0.2172 -0.4941  0.7046
  110RES   C17646174   6.428   3.964   6.528 -0.3142 -0.3379 -0.0220
  110RES   H17746175   6.732   4.030   7.126 -0.7768  0.1245 -1.2839
  110RES   H17846176   6.568   4.073   7.128  0.5805  0.3063  0.3532
  110RES   H17946177   6.561   3.804   7.203 -1.3282  2.5398  0.3668
  110RES   H18046178   6.412   3.892   7.048  0.2765 -0.3411  0.5399
  110RES   H18146179   6.498   3.761   6.982 -0.4869  0.6487 -1.5572
  110RES   H18246180   6.653   3.903   6.851 -0.0184  0.0154 -1.3917
  110RES   H18346181   6.587   4.050   6.902  0.3980  0.0220 -0.3816
  110RES   H18446182   6.363   3.976   6.797  0.4480  2.2669 -0.5566
  110RES   H18546183   6.439   3.827   6.761 -3.3226  0.4778  0.8012
  110RES   H18646184   6.614   3.994   6.631 -0.2522  0.5880 -1.0910
  110RES   H18746185   6.488   4.113   6.671  0.8489  0.8581 -3.3351
  110RES   H18846186   6.320   3.967   6.540 -0.3434 -2.5344  0.5272
  110RES   H18946187   6.445   3.858   6.508  0.2708 -0.2188 -0.1986
  110RES   H19046188   6.455   4.009   6.432 -0.9753 -1.9161 -0.9760
  110RES   C19146189   6.727   3.768   7.077 -0.4168 -0.2551 -0.4843
  110RES   C19246190   6.820   3.719   7.191  0.8012 -0.3018  0.5676
  110RES   C19346191   6.794   3.572   7.253 -0.5900 -0.1711  0.2667
  110RES   C19446192   6.649   3.540   7.282 -0.3481  0.0144  0.5036
  110RES   C19546193   6.612   3.405   7.350 -0.0886  0.3630 -0.4845
  110RES   C19646194   6.464   3.405   7.378  0.3106  0.3273 -0.0187
  110RES   C19746195   6.417   3.445   7.522  0.3139  0.1889  0.0590
  110RES   H19846196   6.780   3.814   6.994 -0.4288 -0.6226 -0.6980
  110RES   H19946197   6.676   3.679   7.040 -0.1380 -0.9870  0.8781
  110RES   H20046198   6.801   3.781   7.278  2.3309  2.7776 -1.2264
  110RES   H20146199   6.850   3.571   7.346  1.3874 -2.1349 -0.8869
  110RES   H20246200   6.843   3.500   7.187  1.4664  2.7383 -1.4993
  110RES   H20346201   6.595   3.534   7.187  1.0775  0.2709 -0.3352
  110RES   H20446202   6.602   3.627   7.328 -0.2955  1.5119 -2.1301
  110RES   H20546203   6.623   3.322   7.279  0.3387  1.1460 -1.3506
  110RES   H20646204   6.678   3.380   7.433  0.4001  2.2860 -0.2751
  110RES   H20746205   6.428   3.303   7.359  0.9471  0.2105 -0.6264
  110RES   H20846206   6.422   3.467   7.299 -3.7175 -1.7364  0.3362
  110RES   H20946207   6.314   3.424   7.550  0.7428  0.0254  1.5665
  110RES   H21046208   6.435   3.553   7.522  0.4808  0.1983 -3.0513
  110RES   H21146209   6.479   3.400   7.599  0.2350  0.3658  0.2283
  110RES   C21246210   6.967   3.727   7.146 -0.2554 -0.2991  0.1284
  110RES   C21346211   7.030   3.864   7.126 -0.2330  0.1493  0.9269
  110RES   C21446212   7.055   3.939   7.260 -0.3739  0.3891  0.2964
  110RES   C21546213   7.172   3.882   7.336  0.5431 -0.5666  0.3345
  110RES   C21646214   7.222   3.981   7.437 -0.1521 -0.2155  0.1757
  110RES   C21746215   7.301   3.912   7.556  0.0280  0.6324 -0.2392
  110RES   C21846216   7.420   3.813   7.515 -0.4657  0.2053  0.2017
  110RES   H21946217   6.969   3.680   7.047 -0.0562 -2.7213  1.2556
  110RES   H22046218   7.033   3.665   7.207  0.0127  0.0455  0.1959
  110RES   H22146219   6.951   3.927   7.085  0.0394 -0.9914 -1.4293
  110RES   H22246220   7.077   4.040   7.226  1.9853 -0.8858 -2.1672
  110RES   H22346221   6.969   3.932   7.327  0.0422  1.0343  0.9041
  110RES   H22446222   7.254   3.860   7.268  1.2515 -0.6851  1.2214
  110RES   H22546223   7.144   3.789   7.386  1.2697 -0.2487  1.3351
  110RES   H22646224   7.287   4.060   7.398  1.8655 -1.4789  0.8926
  110RES   H22746225   7.132   4.025   7.479  0.4974  1.7104 -0.4081
  110RES   H22846226   7.340   3.979   7.633 -0.7356 -1.1312  1.7231
  110RES   H22946227   7.228   3.861   7.619  0.4384 -0.6652 -0.7980
  110RES   H23046228   7.495   3.859   7.449  1.2517 -0.0565  1.9271
  110RES   H23146229   7.376   3.737   7.451 -3.3474  2.0302 -0.0868
  110RES   H23246230   7.476   3.776   7.601  0.6924  1.5163  0.0528
  110RES   C23346231   7.138   3.853   7.020  0.0214 -0.5680  0.2525
  110RES   C23446232   7.209   3.986   6.993  0.2060  0.7687  1.0617
  110RES   C23546233   7.346   3.943   6.924  0.5575 -0.6664  0.2369
  110RES   C23646234   7.342   3.845   6.813 -0.9622  0.2339 -0.0812
  110RES   C23746235   7.465   3.839   6.722  0.2261 -0.4468  0.0111
  110RES   C23846236   7.597   3.820   6.786 -0.0267  0.1461 -0.5445
  110RES   C23946237   7.708   3.849   6.686 -0.5396  0.6910 -0.3030
  110RES   H24046238   7.100   3.808   6.929  1.8458 -1.2732 -0.1774
  110RES   H24146239   7.214   3.783   7.056  0.9419 -0.2805 -1.1159
  110RES   H24246240   7.240   4.029   7.088  2.9747 -0.4032  0.7192
  110RES   H24346241   7.411   3.896   6.998  0.1364 -2.9618 -0.8272
  110RES   H24446242   7.402   4.023   6.876 -0.0281 -1.0359 -1.0640
  110RES   H24546243   7.259   3.859   6.744 -1.5301  0.4764  0.6395
  110RES   H24646244   7.306   3.749   6.849 -0.2391  0.1764  0.4960
  110RES   H24746245   7.463   3.926   6.655  1.3099 -0.0788  0.4580
  110RES   H24846246   7.444   3.760   6.650 -1.9152 -0.4591  0.5919
  110RES   H24946247   7.619   3.889   6.868 -0.5464 -1.6468  1.1417
  110RES   H25046248   7.598   3.723   6.836 -3.3714  0.3929  0.1558
  110RES   H25146249   0.070   3.862   6.748  0.0576  2.5162 -1.5017
  110RES   H25246250   7.719   3.764   6.619 -1.5197 -0.8211  1.4250
  110RES   H25346251   7.688   3.942   6.632 -0.4216  0.7944 -0.1701
  110RES   C25446252   7.126   4.088   6.908 -0.1578 -0.3844  0.0940
  110RES   C25546253   7.170   4.233   6.914 -0.1136  0.5923 -0.8857
  110RES   C25646254   7.109   4.309   7.036  0.4698 -0.0752 -1.0398
  110RES   C25746255   7.194   4.422   7.097  0.1088  0.0687 -0.2550
  110RES   C25846256   7.290   4.367   7.213 -0.1883 -0.6145  0.2673
  110RES   C25946257   7.357   4.485   7.286 -0.1980 -0.3634  0.0586
  110RES   C26046258   7.481   4.451   7.377  0.4109  0.2965  0.2853
  110RES   H26146259   7.023   4.081   6.942 -0.6607  0.4765 -1.2255
  110RES   H26246260   7.119   4.046   6.808 -0.7674 -1.3383  0.5347
  110RES   H26346261   7.274   4.204   6.930 -0.8464 -1.0324  1.2064
  110RES   H26446262   7.076   4.239   7.113  1.8482  1.1662  0.7145
  110RES   H26546263   7.019   4.349   6.991 -0.2748 -1.7486 -1.0880
  110RES   H26646264   7.256   4.478   7.026 -1.2365 -0.2959 -1.7472
  110RES   H26746265   7.133   4.487   7.158 -0.2723 -0.2739 -0.2718
  110RES   H26846266   7.370   4.310   7.165  0.3613  1.0734 -0.8563
  110RES   H26946267   7.243   4.300   7.285  1.4890  0.1042  2.0945
  110RES   H27046268   7.390   4.555   7.210 -0.8273 -1.5633 -1.3422
  110RES   H27146269   7.288   4.546   7.345  1.5007  2.4707 -0.8182
  110RES   H27246270   7.558   4.399   7.318 -0.1297 -0.4770  0.2466
  110RES   H27346271   7.524   4.534   7.433  4.4645 -0.3316 -1.6960
  110RES   H27446272   7.446   4.391   7.461 -3.5691  1.1479 -0.6633
  110RES   C27546273   7.171   4.308   6.778 -0.1725  0.7612  0.6166
  110RES   C27646274   7.278   4.269   6.669  0.1597 -0.1118  0.3417
  110RES   C27746275   7.416   4.311   6.718 -0.4867 -0.2155  0.3569
  110RES   C27846276   7.530   4.244   6.655 -0.2569 -0.1972  0.0035
  110RES   C27946277   7.660   4.318   6.685  0.0999  0.0246 -0.5918
  110RES   C28046278   0.048   4.269   6.591  0.1818  0.0333 -0.3509
  110RES   C28146279   0.157   4.368   6.560  0.0020 -0.2353 -0.0718
  110RES   H28246280   7.183   4.416   6.790  4.6539  0.4840 -0.7245
  110RES   H28346281   7.073   4.297   6.731  0.4056  0.4490 -0.5432
  110RES   H28446282   7.281   4.160   6.673  2.5530 -0.0295  3.5734
  110RES   H28546283   7.423   4.419   6.706  1.6156 -0.4137 -0.3373
  110RES   H28646284   7.425   4.309   6.827 -0.3396  1.6549  0.3929
  110RES   H28746285   7.510   4.247   6.548  1.0129  1.7925 -0.2079
  110RES   H28846286   7.535   4.140   6.686  0.8398 -0.8446 -2.2153
  110RES   H28946287   7.690   4.314   6.789  1.6939  1.3776 -0.9714
  110RES   H29046288   7.643   4.423   6.660  0.3821  0.3490  0.5690
  110RES   H29146289   0.090   4.181   6.639 -1.3518 -1.6183 -1.9407
  110RES   H29246290   0.011   4.244   6.491  0.8931  2.5301 -1.2736
  110RES   H29346291   0.184   4.423   6.650 -2.2051 -0.5247  0.7958
  110RES   H29446292   0.105   4.444   6.501  1.7236  0.6742 -0.4712
  110RES   H29546293   0.237   4.325   6.499  1.4652  1.1299  0.8299
  110RES   C29646294   7.247   4.315   6.523  0.2853  0.3952 -0.5955
  110RES   C29746295   7.164   4.211   6.429 -0.3503 -0.6003 -0.0299
  110RES   C29846296   7.022   4.183   6.483 -0.3704 -0.2173  0.1836
  110RES   C29946297   6.914   4.292   6.444  0.2628  0.9730 -0.1975
  110RES   C30046298   6.770   4.240   6.470 -0.0405 -0.0006 -1.0547
  110RES   C30146299   6.666   4.301   6.369 -0.0421  0.3377 -0.1977
  110RES   C30246300   6.651   4.454   6.392 -0.3608  0.2804 -0.1921
  110RES   H30346301   7.201   4.413   6.528 -1.6816 -0.5906  1.4903
  110RES   H30446302   7.334   4.336   6.461  1.7220 -0.7752  0.9857
  110RES   H30546303   7.142   4.268   6.340  0.4938  1.4476  1.0434
  110RES   H30646304   7.002   4.087   6.434  2.0399 -0.0985 -1.1130
  110RES   H30746305   7.019   4.167   6.591 -1.1760 -1.5041 -0.0174
  110RES   H30846306   6.914   4.316   6.338 -2.6696 -0.2703 -0.5414
  110RES   H30946307   6.931   4.387   6.495  0.6329  0.2568  1.0432
  110RES   H31046308   6.743   4.255   6.575 -0.1938  0.9943 -1.2274
  110RES   H31146309   6.777   4.132   6.465  0.0831  0.0269 -1.4445
  110RES   H31246310   6.690   4.278   6.265  0.0900  0.4930 -0.2000
  110RES   H31346311   6.571   4.251   6.391  0.6084  0.0865  2.2811
  110RES   H31446312   6.590   4.494   6.311 -1.0348  2.2539  1.2534
  110RES   H31546313   6.613   4.455   6.494 -1.4100  2.1874 -0.5898
  110RES   H31646314   6.747   4.505   6.388  0.9470 -2.2063 -1.9105
  110RES   C31746315   7.255   4.087   6.391 -0.0735  0.2382  0.5703
  110RES   C31846316   7.205   4.000   6.274  0.2799  0.4702 -0.1062
  110RES   C31946317   7.163   4.087   6.147  0.6078 -0.2119  0.0364
  110RES   C32046318   7.013   4.099   6.112  0.3321  0.4144 -0.2874
  110RES   C32146319   6.949   3.968   6.072  0.1714  0.4085  0.4848
  110RES   C32246320   6.797   3.968   6.063  0.5599  0.0979  0.0127
  110RES   C32346321   6.728   3.858   5.981 -0.6222 -0.0742  0.4652
  110RES   H32446322   7.251   4.021   6.478 -0.9759 -1.6042 -0.8390
  110RES   H32546323   7.360   4.115   6.388  0.1367 -0.7123 -1.1702
  110RES   H32646324   7.121   3.942   6.313 -0.1303  0.7511 -0.5717
  110RES   H32746325   7.209   4.038   6.061 -0.6025 -3.3620  1.1135
  110RES   H32846326   7.210   4.184   6.165 -1.1604  0.9128 -1.2762
  110RES   H32946327   6.992   4.181   6.044 -0.9761 -0.0314 -0.4332
  110RES   H33046328   6.967   4.117   6.210 -0.5182  1.5174 -0.8727
  110RES   H33146329   6.990   3.892   6.139 -0.0876 -1.2057 -1.1570
  110RES   H33246330   6.984   3.933   5.975  0.5854 -1.4753  1.2863
  110RES   H33346331   6.784   4.060   6.005  1.1950 -0.6251 -1.3032
  110RES   H33446332   6.755   3.968   6.164  2.2190  0.0085  0.7224
  110RES   H33546333   6.741   3.871   5.874 -1.4490 -0.0225  0.3665
  110RES   H33646334   6.622   3.855   6.005 -0.3020 -0.9348  1.8229
  110RES   H33746335   6.767   3.761   6.012 -0.4512 -0.1388  0.0522
  110RES   C33846336   7.318   3.902   6.233  0.1174  0.1339 -0.2874
  110RES   C33946337   7.313   3.772   6.313 -0.0465  0.9268 -0.0906
  110RES   C34046338   7.454   3.705   6.325 -0.1219 -0.2185  0.1558
  110RES   C34146339   7.497   3.652   6.184 -0.2256 -0.1164  0.1888
  110RES   C34246340   7.642   3.601   6.174 -0.1817  0.5186  0.8664
  110RES   C34346341   7.687   3.561   6.036 -0.7909 -0.2984  0.0457
  110RES   C34446342   7.622   3.433   5.984 -0.5728 -0.1949  0.6068
  110RES   H34546343   7.413   3.954   6.234  0.3073 -0.2109 -0.4683
  110RES   H34646344   7.301   3.873   6.129 -1.9670  1.8050 -0.4646
  110RES   H34746345   7.290   3.797   6.417  0.0847 -1.8162  0.6507
  110RES   H34846346   7.527   3.777   6.363 -0.0572  0.0622 -0.5004
  110RES   H34946347   7.451   3.620   6.394  1.9643 -2.8769 -2.8913
  110RES   H35046348   7.482   3.734   6.114  0.4080  0.2649  0.4973
  110RES   H35146349   7.437   3.569   6.146 -0.3952  0.4542 -0.8052
  110RES   H35246350   7.714   3.675   6.211  1.5047 -0.7874  0.2543
  110RES   H35346351   7.654   3.511   6.235 -0.5684  0.7287  1.2595
  110RES   H35446352   7.664   3.643   5.968  1.3032 -1.1879 -1.8073
  110RES   H35546353   0.068   3.541   6.034 -1.0189 -1.4899 -2.4018
  110RES   H35646354   7.655   3.406   5.884  1.1258 -1.0297  1.3839
  110RES   H35746355   7.513   3.441   5.983 -0.6034 -0.4900  1.2361
  110RES   H35846356   7.667   3.350   6.038  3.2808  2.7042  2.0795
  110RES   C35946357   7.199   3.679   6.274 -0.0628  0.1798  0.4389
  110RES   C36046358   7.174   3.555   6.364  0.1359  0.4781 -0.0087
  110RES   C36146359   7.139   3.589   6.509  0.1727  0.6100  0.3879
  110RES   C36246360   6.994   3.646   6.523  0.1064  0.1686  0.2711
  110RES   C36346361   6.968   3.712   6.654 -0.0985 -0.4999 -0.2612
  110RES   C36446362   6.814   3.747   6.676 -0.1123 -0.6644  0.6205
  110RES   C36546363   6.710   3.640   6.656  0.0788  0.7180  0.4445
  110RES   H36646364   7.209   3.656   6.168  2.0045  0.4732  0.5580
  110RES   H36746365   7.106   3.735   6.271 -0.7592 -0.9228  0.8912
  110RES   H36846366   7.268   3.500   6.370  1.5267  2.7856  0.2473
  110RES   H36946367   7.161   3.499   6.566  1.5536  1.8634  1.8978
  110RES   H37046368   7.218   3.649   6.555  0.1487 -0.1960  1.4895
  110RES   H37146369   6.966   3.703   6.435 -1.6151 -0.6639  0.2479
  110RES   H37246370   6.925   3.561   6.526  0.9796 -0.7078 -2.7323
  110RES   H37346371   6.993   3.641   6.733  0.2690 -1.0216 -0.8413
  110RES   H37446372   7.027   3.803   6.660 -0.9988  0.2308 -2.1240
  110RES   H37546373   6.808   3.782   6.779  1.1797 -1.4809  0.9890
  110RES   H37646374   6.787   3.829   6.610  0.3135 -1.1423 -0.1452
  110RES   H37746375   6.713   3.566   6.736 -0.2598  0.4810  0.2399
  110RES   H37846376   6.616   3.687   6.683 -0.9054 -2.3951  2.7667
  110RES   H37946377   6.712   3.593   6.558  2.6443 -0.8177  1.1774
  110RES   C38046378   7.070   3.471   6.284 -0.3290  0.4427 -0.2805
  110RES   C38146379   7.027   3.328   6.340  0.6118  0.3606 -0.3157
  110RES   C38246380   6.925   3.263   6.241  0.0098  0.0512 -0.5219
  110RES   C38346381   6.804   3.345   6.189  0.1888  0.6962  0.5380
  110RES   C38446382   6.693   3.256   6.129 -0.5507 -0.3645  0.3153
  110RES   C38546383   6.575   3.346   6.094 -0.3467 -0.2617  0.1982
  110RES   C38646384   6.466   3.258   6.030  0.1582  0.0553  0.3202
  110RES   H38746385   6.980   3.531   6.270 -1.6896 -1.0266  1.8715
  110RES   H38846386   7.096   3.466   6.178 -0.6640 -0.0208 -0.3422
  110RES   H38946387   6.976   3.344   6.435  0.2553 -0.2641 -0.4016
  110RES   H39046388   6.885   3.169   6.279 -0.8915  0.3507 -0.7302
  110RES   H39146389   6.979   3.225   6.154  2.9401 -1.8210  2.0119
  110RES   H39246390   6.775   3.405   6.275  1.0068  2.1805 -0.2049
  110RES   H39346391   6.844   3.410   6.112  1.7415 -2.6962 -1.6189
  110RES   H39446392   6.727   3.200   6.042 -2.6686 -0.8654 -0.2063
  110RES   H39546393   6.663   3.186   6.206 -1.4876 -0.6444 -0.2965
  110RES   H39646394   6.600   3.421   6.019 -1.1723  0.2765  0.4471
  110RES   H39746395   6.536   3.404   6.178 -0.2612  0.0145  0.0461
  110RES   H39846396   6.407   3.213   6.110 -0.0259 -1.4120 -0.6299
  110RES   H39946397   6.510   3.182   5.966  1.0286 -0.0586  1.0342
  110RES   H40046398   6.387   3.309   5.975  0.6444 -0.6605 -1.0569
  110RES   C40146399   7.139   3.229   6.378 -0.2569 -0.1178 -0.6888
  110RES   C40246400   7.235   3.212   6.261  0.3608  0.0107  0.6248
  110RES   C40346401   7.352   3.124   6.310 -0.1476  0.3436  0.6127
  110RES   C40446402   7.474   3.127   6.209 -0.1209 -0.1816 -0.1197
  110RES   C40546403   7.571   3.011   6.242 -0.5537 -0.2882 -0.3224
  110RES   C40646404   7.667   3.030   6.361  0.3099 -0.9218  0.3776
  110RES   C40746405   0.034   2.911   6.397 -0.2763 -0.2890 -0.3425
  110RES   H40846406   7.093   3.136   6.410 -0.1479  0.0906  0.0850
  110RES   H40946407   7.192   3.264   6.467  1.6363  1.3266 -2.3368
  110RES   H41046408   7.278   3.305   6.223 -1.7128  0.6521 -0.2735
  110RES   H41146409   7.319   3.020   6.315  0.7391 -0.0688 -1.5840
  110RES   H41246410   7.390   3.159   6.405  0.5167  2.8060 -0.5320
  110RES   H41346411   7.527   3.221   6.220  1.2795 -1.2981  3.4438
  110RES   H41446412   7.439   3.111   6.107 -2.6535 -0.5229  0.7505
  110RES   H41546413   7.502   2.926   6.249 -1.1670  0.1257 -1.2732
  110RES   H41646414   7.630   2.983   6.155  0.0145 -1.8278  0.5325
  110RES   H41746415   7.722   3.124   6.351  1.2538 -1.4093  0.9496
  110RES   H41846416   7.597   3.042   6.445 -1.2455  0.2803 -1.0598
  110RES   H41946417   0.099   2.893   6.311 -0.5863  0.5264 -0.7485
  110RES   H42046418   7.704   2.822   6.422 -1.3009  0.9027  1.6966
  110RES   H42146419   0.104   2.934   6.478  1.0739 -0.3082 -1.4762
  110RES   H42246420   7.180   3.171   6.176  1.4645  1.1432 -0.6626
  111RES     C146421   2.427   0.417   4.823 -0.0992  0.2517 -0.4097
  111RES     C246422   2.494   0.284   4.850 -0.0571  0.0963 -0.2245
  111RES     C346423   2.392   0.173   4.875  0.3561 -0.3492  0.0242
  111RES     C446424   2.448   0.032   4.871 -0.1848 -0.2672 -0.2754
  111RES     C546425   2.351   7.648   4.879  1.0625 -0.8460 -0.1107
  111RES     C646426   2.412   7.507   4.908  0.1609 -0.1439 -0.2731
  111RES     C746427   2.535   7.466   4.818  0.2682  1.0128  0.0690
  111RES     H846428   2.504   0.488   4.791 -0.8687  0.8006 -1.0704
  111RES     H946429   2.385   0.461   4.913 -0.9271  1.5407 -1.4106
  111RES    H1046430   2.544   0.264   4.755  2.4211 -0.4667  1.1514
  111RES    H1146431   2.336   0.169   4.969  0.1209 -2.2246 -0.1790
  111RES    H1246432   2.322   0.170   4.792  2.8550  0.8352 -2.1721
  111RES    H1346433   2.515   0.021   4.785  1.7121 -0.4595  1.1918
  111RES    H1446434   2.504   0.031   4.964 -0.2886 -1.2363 -0.2156
  111RES    H1546435   2.278   7.634   4.800  0.1648  1.1832  0.3089
  111RES    H1646436   2.282   7.675   4.960  0.9836  0.5150 -0.6201
  111RES    H1746437   2.327   7.439   4.896  1.7844 -2.0336 -1.1955
  111RES    H1846438   2.441   7.509   5.013  2.9239  0.8576 -1.0060
  111RES    H1946439   2.569   7.368   4.849  3.0272  1.5056 -1.2840
  111RES    H2046440   2.608   7.547   4.815  0.9158  0.3853 -0.9999
  111RES    H2146441   2.489   7.449   4.721  1.2946  0.0871 -0.2522
  111RES    H2246442   2.353   0.412   4.743 -0.6586  0.4098  0.0933
  111RES    C2346443   2.595   0.308   4.960 -0.2290 -0.0170  0.4815
  111RES    C2446444   2.729   0.231   4.946  0.5839 -0.0517  0.2079
  111RES    C2546445   2.799   0.218   5.082 -0.2467  0.4916  0.2861
  111RES    C2646446   2.715   0.138   5.197  1.1282 -0.2863 -0.3026
  111RES    C2746447   2.805   0.084   5.310  0.5566 -0.7923 -0.8595
  111RES    C2846448   2.756   0.100   5.452 -0.3270 -0.1999 -0.3331
  111RES    C2946449   2.836   0.010   5.546  0.4033  0.3032 -0.0952
  111RES    H3046450   2.607   0.414   4.979  0.6435 -0.2989  1.5611
  111RES    H3146451   2.536   0.271   5.044 -0.2405  1.6733  1.2348
  111RES    H3246452   2.703   0.137   4.897  0.1392  0.4461 -0.5242
  111RES    H3346453   2.805   0.320   5.119  0.4463  1.3179 -2.0728
  111RES    H3446454   2.894   0.165   5.077 -1.0483 -0.8739 -0.6661
  111RES    H3546455   2.674   0.049   5.150 -2.2409  1.7723 -1.4531
  111RES    H3646456   2.632   0.197   5.236  2.0307  0.2159  0.9145
  111RES    H3746457   2.895   0.146   5.310  0.4554 -0.6442  0.8580
  111RES    H3846458   2.821   7.706   5.285  4.6306 -1.0028  2.0955
  111RES    H3946459   2.650   0.081   5.464 -0.0233 -1.6368  0.1423
  111RES    H4046460   2.764   0.205   5.482 -3.6379 -0.3373  1.2465
  111RES    H4146461   2.943   0.029   5.542  0.7618 -1.8866 -3.1422
  111RES    H4246462   2.805   0.032   5.648  2.3897 -0.5269  0.7091
  111RES    H4346463   2.818   7.633   5.517  0.4254  0.5149 -0.8897
  111RES    C4446464   2.826   0.309   4.854 -0.3598  0.0998  0.7438
  111RES    C4546465   2.970   0.253   4.829  0.1875 -0.2776  0.3784
  111RES    C4646466   2.956   0.106   4.780 -0.0951 -0.1720 -0.5382
  111RES    C4746467   3.084   0.057   4.709 -0.8243 -0.7518  0.4135
  111RES    C4846468   3.207   0.065   4.797 -0.4230  0.1044  0.0414
  111RES    C4946469   3.329   7.709   4.753 -0.9264 -0.0053 -1.1695
  111RES    C5046470   3.444   7.721   4.859  0.7219  0.0205 -0.1444
  111RES    H5146471   2.849   0.410   4.887  0.8915 -0.5588  1.9329
  111RES    H5246472   2.777   0.311   4.756  1.9198  1.5923 -0.4075
  111RES    H5346473   3.027   0.251   4.922 -1.8052  2.0682  1.7013
  111RES    H5446474   2.868   0.100   4.717 -0.0424 -2.0299 -0.4743
  111RES    H5546475   2.942   0.049   4.872  3.1514 -0.6889 -0.2873
  111RES    H5646476   3.047   7.686   4.678 -0.4494 -0.8640  0.3106
  111RES    H5746477   3.103   0.112   4.617  0.7421  0.0356  1.1803
  111RES    H5846478   3.183   0.018   4.893  0.4542  0.6718  0.5455
  111RES    H5946479   3.237   0.169   4.809  0.4545  0.0037 -1.1768
  111RES    H6046480   3.368   0.006   4.655  2.2171 -0.1413  0.0056
  111RES    H6146481   3.291   7.606   4.749 -0.5093 -0.2971  1.4699
  111RES    H6246482   3.513   7.638   4.847  0.5103 -0.2335  0.3997
  111RES    H6346483   3.403   7.725   4.960  0.9015  1.3224 -0.1038
  111RES    H6446484   3.505   0.085   4.850  0.4686  0.2668  0.5762
  111RES    C6546485   3.036   0.357   4.731 -0.1379  0.1120 -0.1787
  111RES    C6646486   3.096   0.493   4.792  0.2017  0.1092 -0.6832
  111RES    C6746487   3.096   0.606   4.690  0.1573  0.2430  0.0372
  111RES    C6846488   2.962   0.686   4.687 -0.3888  0.3183  0.5583
  111RES    C6946489   2.947   0.790   4.799 -0.0459  0.3022  0.3741
  111RES    C7046490   3.038   0.913   4.783 -0.2172 -0.6485 -0.0178
  111RES    C7146491   3.022   1.019   4.895 -0.0158 -0.0879  0.2356
  111RES    H7246492   3.120   0.309   4.680  0.1961 -0.1953  0.6537
  111RES    H7346493   2.955   0.373   4.660  0.0040  0.1351 -0.3360
  111RES    H7446494   3.044   0.527   4.881  1.8712 -0.1324  0.4190
  111RES    H7546495   3.177   0.678   4.700 -0.2566  0.4815  1.7951
  111RES    H7646496   3.114   0.565   4.590  0.4678  0.8287 -0.1478
  111RES    H7746497   2.959   0.729   4.587 -0.1439 -0.5016  0.1910
  111RES    H7846498   2.881   0.615   4.704  0.6928 -1.4913 -1.5974
  111RES    H7946499   2.843   0.821   4.801 -0.0806  0.1819  0.4601
  111RES    H8046500   2.962   0.747   4.898 -0.5969 -4.1325 -1.3389
  111RES    H8146501   3.046   0.963   4.687 -0.6966  0.9912  0.7824
  111RES    H8246502   3.142   0.885   4.802  0.7761  2.3918 -0.6975
  111RES    H8346503   3.095   1.099   4.905 -0.4820  0.2574  0.9545
  111RES    H8446504   2.930   1.078   4.885  0.2102  0.2431  0.0848
  111RES    H8546505   3.030   0.968   4.991  2.9185  1.6544  0.9924
  111RES    C8646506   3.244   0.467   4.840  0.4052 -0.3045 -0.2360
  111RES    C8746507   3.294   0.569   4.943  0.7413  0.5016 -0.8331
  111RES    C8846508   3.233   0.547   5.076 -0.0397 -0.0083  0.1222
  111RES    C8946509   3.224   0.674   5.157 -0.2592 -0.5031  0.6866
  111RES    C9046510   3.128   0.662   5.277  0.0466 -0.1080  0.2236
  111RES    C9146511   3.147   0.781   5.374 -0.0419 -0.0232 -0.0532
  111RES    C9246512   3.073   0.910   5.327  0.1574  0.7871 -0.0119
  111RES    H9346513   3.257   0.369   4.886 -3.8494 -1.0768 -0.4207
  111RES    H9446514   3.317   0.468   4.760  1.3459 -1.9381  0.5629
  111RES    H9546515   3.256   0.665   4.906 -1.5382 -1.5078 -3.9306
  111RES    H9646516   3.134   0.501   5.070 -0.7355  1.1235  2.3028
  111RES    H9746517   3.299   0.479   5.129  0.4597 -0.0242 -0.5117
  111RES    H9846518   3.321   0.693   5.203  0.5640 -2.6153 -0.1208
  111RES    H9946519   3.205   0.760   5.094  2.4852 -1.9618 -2.2486
  111RES   H10046520   3.151   0.571   5.333  1.3197 -0.5890 -1.0299
  111RES   H10146521   3.021   0.660   5.255  0.1369 -0.1922 -0.2216
  111RES   H10246522   3.095   0.776   5.470  1.3523  2.3840  0.8777
  111RES   H10346523   3.253   0.801   5.383 -0.4225  1.1150  2.2476
  111RES   H10446524   2.967   0.905   5.352 -0.2534  1.2126 -1.6315
  111RES   H10546525   3.091   0.934   5.222  1.2189 -1.5851 -0.3948
  111RES   H10646526   3.115   0.996   5.380  1.4815 -0.1027  0.3916
  111RES   C10746527   3.450   0.563   4.944  0.1899  0.2885  0.3306
  111RES   C10846528   3.511   0.670   4.852 -0.1631  0.1601  0.0818
  111RES   C10946529   3.509   0.817   4.912 -0.0037 -0.7008 -0.4216
  111RES   C11046530   3.485   0.923   4.806  0.9045  0.3354 -0.3049
  111RES   C11146531   3.456   1.061   4.864  0.6589 -0.4259  0.3434
  111RES   C11246532   3.415   1.160   4.751  0.0605  0.2024 -0.3804
  111RES   C11346533   3.523   1.260   4.709  0.0668  0.0510  0.2874
  111RES   H11446534   3.474   0.464   4.906 -2.8059 -1.3363  2.4242
  111RES   H11546535   3.486   0.579   5.046 -1.1869 -0.2231  0.9154
  111RES   H11646536   3.456   0.671   4.758  0.0892 -0.3869 -0.0778
  111RES   H11746537   3.594   0.834   4.978  0.0392 -0.9525 -0.4111
  111RES   H11846538   3.417   0.817   4.971 -0.2751 -1.5194 -0.8352
  111RES   H11946539   3.572   0.935   4.742 -0.5430  1.0452 -2.1950
  111RES   H12046540   3.414   0.885   4.733  1.8655  0.8350 -1.5086
  111RES   H12146541   3.533   1.097   4.932  1.6335  0.6267 -1.2857
  111RES   H12246542   3.368   1.052   4.927  0.1147  0.7350 -0.2306
  111RES   H12346543   3.367   1.118   4.663  2.2444  1.6771 -2.3265
  111RES   H12446544   3.333   1.217   4.794 -0.6019  0.1942 -1.6015
  111RES   H12546545   3.497   1.327   4.626  3.0155 -0.4072 -1.0475
  111RES   H12646546   3.553   1.309   4.802 -0.7375 -1.4237  1.3470
  111RES   H12746547   3.605   1.201   4.669 -1.4684 -0.7979 -1.7168
  111RES   C12846548   3.658   0.617   4.822 -0.1534 -0.2699  0.8106
  111RES   C12946549   3.684   0.510   4.707 -1.0759  0.5602  0.8409
  111RES   C13046550   3.837   0.474   4.707 -0.0888  0.1592  0.0639
  111RES   C13146551   3.885   0.406   4.835 -0.6925 -0.1010 -0.4964
  111RES   C13246552   3.832   0.265   4.864 -0.1800 -0.7676 -0.5622
  111RES   C13346553   3.893   0.203   4.994 -0.1948 -0.5368  0.1899
  111RES   C13446554   3.791   0.152   5.090  0.1816  0.1210  0.2797
  111RES   H13546555   3.722   0.703   4.805 -0.8095 -0.0271 -0.5729
  111RES   H13646556   3.698   0.576   4.915  0.9981 -0.4657  0.2321
  111RES   H13746557   3.634   0.418   4.735  0.2942 -0.7581 -0.8811
  111RES   H13846558   3.898   0.561   4.682 -1.5206  0.5257 -2.3364
  111RES   H13946559   3.854   0.398   4.630  0.1944 -0.6072  0.8655
  111RES   H14046560   3.875   0.469   4.923 -0.9527  1.0163 -1.3216
  111RES   H14146561   3.993   0.395   4.824 -0.1032  1.0101  3.4351
  111RES   H14246562   3.871   0.200   4.786  0.3742 -0.0656 -0.8785
  111RES   H14346563   3.723   0.258   4.861 -0.1739 -1.3193  0.4917
  111RES   H14446564   3.957   0.277   5.041  0.3676 -1.0774  0.2755
  111RES   H14546565   3.962   0.123   4.969  0.3048 -0.0697  0.0840
  111RES   H14646566   3.836   0.123   5.185  0.3586 -1.3403 -0.2325
  111RES   H14746567   3.731   0.067   5.059 -0.9332 -0.0685  2.8433
  111RES   H14846568   3.712   0.224   5.111 -1.1702 -0.6432 -2.0159
  111RES   C14946569   3.645   0.568   4.569  0.3362 -0.7990  0.0181
  111RES   C15046570   3.653   0.467   4.447  0.1777  0.2155  0.3125
  111RES   C15146571   3.635   0.532   4.311  0.2496 -0.1893  0.0670
  111RES   C15246572   3.761   0.601   4.256  0.6000  0.1297  0.6079
  111RES   C15346573   3.870   0.497   4.203 -0.0945  0.4641  0.4363
  111RES   C15446574   4.007   0.568   4.167  0.4407  0.5377  0.3082
  111RES   C15546575   4.015   0.642   4.027 -0.0984  0.1949 -0.2107
  111RES   H15646576   3.542   0.603   4.576 -0.1744 -2.0600 -0.8383
  111RES   H15746577   3.703   0.659   4.556  2.0330 -2.0109 -1.0931
  111RES   H15846578   3.749   0.416   4.447 -1.2085 -2.4844 -0.0977
  111RES   H15946579   3.609   0.458   4.235  1.2363  0.2279 -0.6732
  111RES   H16046580   3.552   0.603   4.307  0.2141 -0.2976 -1.4803
  111RES   H16146581   3.804   0.660   4.337  3.2514 -1.4257  0.3549
  111RES   H16246582   3.745   0.662   4.167  1.0613 -0.7392 -0.0733
  111RES   H16346583   3.839   0.442   4.115  0.5707 -0.5625  0.8346
  111RES   H16446584   3.895   0.432   4.287  1.1679  3.6174  2.6275
  111RES   H16546585   4.087   0.494   4.172 -1.3182 -1.2553  2.1768
  111RES   H16646586   4.043   0.639   4.242  0.1637  0.6750  0.3093
  111RES   H16746587   3.985   0.747   4.035 -0.5174  0.2517 -2.3211
  111RES   H16846588   3.944   0.598   3.957  1.3695 -2.5455 -0.0437
  111RES   H16946589   4.111   0.635   3.976  0.0185  1.2493 -0.1434
  111RES   C17046590   3.542   0.354   4.464 -0.5231 -0.2804  0.2243
  111RES   C17146591   3.558   0.222   4.379 -0.3940  0.5241 -0.0306
  111RES   C17246592   3.680   0.135   4.416 -0.0268  0.1692 -0.3818
  111RES   C17346593   3.670   0.041   4.538 -0.6329 -0.0943  0.2930
  111RES   C17446594   3.797   7.690   4.582  0.3037  0.4989  0.6495
  111RES   C17546595   3.784   7.630   4.722 -0.4010 -0.3576  0.4826
  111RES   C17646596   3.909   7.559   4.774 -0.3955 -0.2221 -0.6046
  111RES   H17746597   3.446   0.404   4.454  0.6069  2.0448  0.6833
  111RES   H17846598   3.551   0.320   4.567  0.7215 -2.3994 -0.5324
  111RES   H17946599   3.588   0.253   4.279  2.6943 -0.6257  0.4864
  111RES   H18046600   3.762   0.203   4.440 -1.0673  0.3537  2.8395
  111RES   H18146601   3.710   0.071   4.333  0.3997  0.2365 -0.2798
  111RES   H18246602   3.591   7.693   4.526 -0.0350 -0.7373  0.2957
  111RES   H18346603   3.632   0.100   4.621  3.1230  1.9835  0.6444
  111RES   H18446604   3.880   0.034   4.589  0.3383  0.5335 -0.0999
  111RES   H18546605   3.830   7.613   4.512  1.9566 -0.9157  2.8983
  111RES   H18646606   3.692   7.570   4.715 -0.1003 -0.7077 -0.6329
  111RES   H18746607   3.760   7.708   4.794 -2.3869 -0.8107  0.3418
  111RES   H18846608   3.997   7.621   4.787  0.2459 -1.3828  0.6736
  111RES   H18946609   3.928   7.496   4.687 -1.1907 -2.4764  0.8290
  111RES   H19046610   3.901   7.494   4.861  1.6753 -0.0020 -0.2394
  111RES   C19146611   3.418   0.137   4.366  0.5445 -0.2090 -0.2459
  111RES   C19246612   3.334   0.169   4.233 -0.9834  0.0837  0.6625
  111RES   C19346613   3.235   0.052   4.207 -0.2880  0.2707 -0.2606
  111RES   C19446614   3.144   0.014   4.320  0.1367 -0.1045  0.5004
  111RES   C19546615   3.047   7.626   4.300 -0.6778 -0.0702  0.2214
  111RES   C19646616   3.102   7.480   4.318 -0.1057 -0.2462  0.1726
  111RES   C19746617   2.999   7.395   4.244  0.4111 -0.0838 -0.6748
  111RES   H19846618   3.350   0.170   4.445  0.8219  0.5661 -0.3256
  111RES   H19946619   3.441   0.032   4.384 -0.1777 -0.4619 -0.7962
  111RES   H20046620   3.411   0.171   4.156 -2.0218 -0.4846 -0.4097
  111RES   H20146621   3.294   7.689   4.190  0.3395  0.8145 -0.9608
  111RES   H20246622   3.182   0.065   4.113  1.3197 -1.9820 -1.5210
  111RES   H20346623   3.089   0.102   4.352 -2.6632 -1.1354 -1.3478
  111RES   H20446624   3.208   7.713   4.404  1.4447  1.1357 -0.0614
  111RES   H20546625   2.970   7.646   4.374  0.6330 -2.0775  2.2204
  111RES   H20646626   2.994   7.638   4.206  0.7870  3.3376 -0.2286
  111RES   H20746627   3.125   7.456   4.421  0.2888 -1.0987 -0.1122
  111RES   H20846628   3.193   7.468   4.259  0.2532  2.7208  0.0070
  111RES   H20946629   2.900   7.392   4.291  0.0774  1.0837 -1.2954
  111RES   H21046630   3.046   7.296   4.238  0.4119 -0.2682  1.9094
  111RES   H21146631   2.967   7.431   4.146 -1.7126 -0.4972 -0.1688
  111RES   C21246632   3.266   0.304   4.239 -0.1559 -0.5195 -0.2651
  111RES   C21346633   3.189   0.345   4.112  1.0327  0.1889 -0.6800
  111RES   C21446634   3.092   0.459   4.145  0.1859 -1.0572  0.2035
  111RES   C21546635   3.157   0.575   4.228  0.4614 -0.1245  0.6838
  111RES   C21646636   3.064   0.689   4.260 -0.1052  0.3093 -0.2111
  111RES   C21746637   3.135   0.803   4.327 -0.7246 -0.7094 -0.5013
  111RES   C21846638   3.041   0.920   4.360 -0.7942 -0.0968  0.5239
  111RES   H21946639   3.348   0.371   4.264 -1.1405  0.2035  1.0711
  111RES   H22046640   3.196   0.304   4.322 -0.1236  0.5190 -0.2248
  111RES   H22146641   3.112   0.273   4.082 -0.2652  0.7816  1.1665
  111RES   H22246642   3.029   0.490   4.062  0.8595  1.5277  0.5989
  111RES   H22346643   3.013   0.421   4.209 -1.8049  1.7279 -0.5003
  111RES   H22446644   3.237   0.618   4.167 -0.8852 -1.4197 -2.0760
  111RES   H22546645   3.198   0.554   4.326 -0.4232 -0.0754  1.0697
  111RES   H22646646   3.025   0.721   4.163 -0.1120 -2.2924 -1.0890
  111RES   H22746647   2.980   0.654   4.321 -0.8248  2.5717  0.1421
  111RES   H22846648   3.169   0.766   4.424 -0.0247 -1.9586 -1.2182
  111RES   H22946649   3.229   0.833   4.281  0.7259 -1.8106  1.6445
  111RES   H23046650   3.050   0.995   4.281  0.2275  0.2498  0.9697
  111RES   H23146651   3.064   0.969   4.454 -1.3489 -1.8589  1.6048
  111RES   H23246652   2.935   0.894   4.371 -1.2906  1.8256  0.4914
  111RES   C23346653   3.287   0.394   3.999  0.8863 -0.7406 -0.2805
  111RES   C23446654   3.350   0.280   3.909  0.0002 -1.0931  0.3625
  111RES   C23546655   3.242   0.191   3.848  0.1046 -0.1811 -0.1636
  111RES   C23646656   3.309   0.060   3.799 -0.3703 -0.1181  0.7470
  111RES   C23746657   3.213   7.681   3.739  0.2896 -0.4346  0.5678
  111RES   C23846658   3.143   7.597   3.844  0.6374 -0.1664 -0.1016
  111RES   C23946659   3.237   7.498   3.910  0.3065  0.8367 -0.3428
  111RES   H24046660   3.368   0.442   4.054 -0.6004  0.3826  0.9893
  111RES   H24146661   3.226   0.467   3.945  1.9994 -0.0089 -0.5636
  111RES   H24246662   3.418   0.209   3.957 -0.2114 -0.8429  1.0423
  111RES   H24346663   3.196   0.247   3.766 -0.9232 -0.0458  0.5064
  111RES   H24446664   3.159   0.167   3.913  0.5856 -0.4017  0.3682
  111RES   H24546665   3.378   0.021   3.873  0.1138 -0.9068 -0.1077
  111RES   H24646666   3.377   0.084   3.718  0.2163  0.0608  1.2917
  111RES   H24746667   3.264   7.621   3.663  0.7666  0.9608 -0.2352
  111RES   H24846668   3.144   7.722   3.665 -0.3610  0.1835  1.5159
  111RES   H24946669   3.094   7.667   3.911 -0.0396 -0.5920 -0.1485
  111RES   H25046670   3.068   7.538   3.791 -2.2131  1.4234  2.0072
  111RES   H25146671   3.322   7.551   3.954  0.9317 -1.5573  1.4514
  111RES   H25246672   3.181   7.432   3.975 -0.0401  1.2197 -0.2490
  111RES   H25346673   3.277   7.423   3.842 -1.7316 -0.4993 -0.1012
  111RES   C25446674   3.438   0.347   3.798  0.8053  0.0997 -0.2559
  111RES   C25546675   3.579   0.400   3.838 -0.0032  0.0848  0.2975
  111RES   C25646676   3.676   0.298   3.899  0.2955  0.5111  0.4080
  111RES   C25746677   3.716   0.175   3.806  0.0100 -0.2500 -0.6192
  111RES   C25846678   3.827   0.087   3.878  1.0873 -0.6038  0.7436
  111RES   C25946679   3.970   0.156   3.865  0.2512 -0.5055  0.2059
  111RES   C26046680   4.034   0.131   3.729  0.4254 -0.6748 -0.4397
  111RES   H26146681   3.385   0.422   3.741  1.8835  0.0723 -1.3248
  111RES   H26246682   3.464   0.264   3.733 -0.0137  1.0955 -1.8613
  111RES   H26346683   3.630   0.406   3.742 -0.6887 -0.7916 -0.1324
  111RES   H26446684   3.643   0.265   3.998  0.8764 -0.6074  0.2336
  111RES   H26546685   3.764   0.356   3.925  0.7916  0.2851 -0.7365
  111RES   H26646686   3.628   0.110   3.803 -1.9974  2.3362 -0.2105
  111RES   H26746687   3.747   0.207   3.707 -0.8372  1.7265 -0.2681
  111RES   H26846688   3.827   7.710   3.845 -0.5373 -0.3888  0.0601
  111RES   H26946689   3.799   0.079   3.983  2.1971  1.3090  1.2283
  111RES   H27046690   3.967   0.264   3.877  0.4061 -0.4123 -0.5257
  111RES   H27146691   4.034   0.111   3.940  1.1375  0.3194 -0.0418
  111RES   H27246692   3.975   0.181   3.652  2.2628  1.5765 -0.4348
  111RES   H27346693   4.137   0.165   3.729 -0.3268  1.7442 -0.6668
  111RES   H27446694   4.029   0.024   3.710 -1.3515 -0.5895 -0.5611
  111RES   C27546695   3.583   0.539   3.897 -0.4652 -0.7368 -0.1901
  111RES   C27646696   3.506   0.655   3.833  0.2413  0.5697 -0.0872
  111RES   C27746697   3.557   0.685   3.688 -0.3776  0.4324  0.4274
  111RES   C27846698   3.704   0.725   3.669 -0.7695 -0.2659  0.3064
  111RES   C27946699   3.742   0.752   3.523 -0.0136  0.2125 -0.4328
  111RES   C28046700   3.896   0.793   3.515  0.1205 -0.0113 -0.0555
  111RES   C28146701   3.933   0.828   3.366 -0.4237  0.0919  0.2377
  111RES   H28246702   3.689   0.565   3.902 -0.5581  0.0740 -1.8677
  111RES   H28346703   3.559   0.531   4.003 -0.5459 -1.5351 -0.2721
  111RES   H28446704   3.401   0.630   3.825 -0.8472  4.1655  1.7416
  111RES   H28546705   3.514   0.610   3.623  0.6101  0.5081 -0.3313
  111RES   H28646706   3.503   0.773   3.653 -0.9534 -0.4068 -0.8275
  111RES   H28746707   3.774   0.648   3.704 -0.6931 -0.1736  0.3589
  111RES   H28846708   3.732   0.811   3.730  2.0037  0.7095 -2.2063
  111RES   H28946709   3.679   0.829   3.479 -0.7115  0.4050  0.8654
  111RES   H29046710   3.736   0.660   3.465  2.1009  0.7004 -1.4483
  111RES   H29146711   3.910   0.891   3.559  0.0796  0.7891 -1.7725
  111RES   H29246712   3.955   0.714   3.562 -0.6983 -0.7299 -0.2119
  111RES   H29346713   4.041   0.831   3.352 -0.2836 -1.6334  0.7762
  111RES   H29446714   3.893   0.927   3.348 -0.1886  0.2042  0.3310
  111RES   H29546715   3.901   0.756   3.291  0.2525  1.1145 -1.0552
  111RES   C29646716   3.508   0.777   3.924 -0.2236 -0.3418 -0.0372
  111RES   C29746717   3.442   0.914   3.882 -1.1914 -0.0966  0.7024
  111RES   C29846718   3.485   1.026   3.983 -1.2597  0.3943 -0.1526
  111RES   C29946719   3.427   1.009   4.124  0.4759  0.0389  0.1655
  111RES   C30046720   3.470   1.119   4.224  0.2914  0.2988  0.0444
  111RES   C30146721   3.421   1.095   4.362 -0.0682 -0.0660 -0.3101
  111RES   C30246722   3.502   0.995   4.446  0.0088  0.4042 -0.2719
  111RES   H30346723   3.440   0.737   4.000  2.4321 -2.5677  1.2609
  111RES   H30446724   3.606   0.790   3.969  0.0781 -1.1461 -0.4480
  111RES   H30546725   3.496   0.941   3.791 -0.7728 -2.5692  0.1592
  111RES   H30646726   3.592   1.025   4.003 -1.7173 -1.0135  2.5092
  111RES   H30746727   3.462   1.120   3.932 -0.5302  0.3038 -0.6595
  111RES   H30846728   3.473   0.921   4.168  3.6537  0.5970 -1.8320
  111RES   H30946729   3.319   1.001   4.113  0.5384 -1.5958  0.5865
  111RES   H31046730   3.402   1.193   4.182 -0.5987  0.1391  1.1670
  111RES   H31146731   3.575   1.146   4.219  0.5849 -0.7729  0.1426
  111RES   H31246732   3.413   1.190   4.415  1.5549  0.4354 -0.9145
  111RES   H31346733   3.320   1.054   4.355  0.1269 -0.3406 -1.7136
  111RES   H31446734   3.599   1.039   4.470  0.6377 -1.1610  0.1545
  111RES   H31546735   3.450   0.977   4.539  0.0619  0.8365 -0.1601
  111RES   H31646736   3.509   0.898   4.396 -2.6543  0.4000 -0.6772
  111RES   C31746737   3.291   0.907   3.864  0.0132  0.0429  0.4199
  111RES   C31846738   3.229   0.863   3.726  0.4856  0.0680  0.5018
  111RES   C31946739   3.078   0.829   3.746 -0.6025  0.1784  0.7853
  111RES   C32046740   3.053   0.684   3.793  0.0718 -0.1375 -0.0824
  111RES   C32146741   2.903   0.670   3.825  0.3819 -0.5383 -0.1472
  111RES   C32246742   2.854   0.525   3.803 -0.8263  0.0319  0.1006
  111RES   C32346743   2.709   0.507   3.854  0.0404 -0.5338  0.1830
  111RES   H32446744   3.253   1.008   3.879 -2.3745 -0.5696 -1.1420
  111RES   H32546745   3.247   0.842   3.939 -1.4264 -0.9221 -1.2232
  111RES   H32646746   3.279   0.776   3.682  0.1581  1.0506 -1.9343
  111RES   H32746747   3.020   0.837   3.654 -0.4326  2.0682  0.8254
  111RES   H32846748   3.032   0.895   3.819 -0.8444  0.2225  0.5910
  111RES   H32946749   3.108   0.665   3.885  0.6597 -0.4303 -0.4964
  111RES   H33046750   3.095   0.615   3.720  0.6047  0.0248  0.0704
  111RES   H33146751   2.841   0.743   3.772  1.8508  1.2160  0.5057
  111RES   H33246752   2.890   0.694   3.930 -3.7705 -1.8060 -0.2665
  111RES   H33346753   2.923   0.453   3.848  0.1536  1.1938  0.4800
  111RES   H33446754   2.868   0.497   3.698 -0.0907 -0.8678  0.4340
  111RES   H33546755   2.681   0.402   3.842 -0.3051 -0.4717  0.4414
  111RES   H33646756   2.637   0.559   3.791 -1.4818 -1.7283  0.9018
  111RES   H33746757   2.685   0.545   3.953 -2.9054 -1.3651 -0.1625
  111RES   C33846758   3.241   0.975   3.625 -0.7891 -0.0623  0.1725
  111RES   C33946759   3.224   0.935   3.476 -0.0536  1.0799 -0.5455
  111RES   C34046760   3.314   0.818   3.425 -0.1339  0.0496  0.3779
  111RES   C34146761   3.280   0.776   3.283  0.2980  0.4592 -0.5504
  111RES   C34246762   3.325   0.632   3.244  0.3888  0.8013 -0.8156
  111RES   C34346763   3.484   0.612   3.255  0.0082  0.0550 -0.4024
  111RES   C34446764   3.530   0.481   3.207  0.2641  0.2569  0.3412
  111RES   H34546765   3.343   1.008   3.643 -1.2436  0.8225  1.1827
  111RES   H34646766   3.175   1.058   3.651 -0.6943 -0.5766  2.1988
  111RES   H34746767   3.124   0.896   3.457 -0.3007 -0.5709  3.8108
  111RES   H34846768   3.419   0.846   3.429  0.7581 -3.2061  1.9278
  111RES   H34946769   3.311   0.727   3.485 -0.5061  1.6318  2.8140
  111RES   H35046770   3.327   0.838   3.207  0.7598  1.5611  0.6077
  111RES   H35146771   3.172   0.776   3.266  0.2250  1.0352 -0.1223
  111RES   H35246772   3.285   0.555   3.309 -0.7048  1.0421 -1.1956
  111RES   H35346773   3.288   0.616   3.143  0.4486 -1.1681 -0.5328
  111RES   H35446774   3.532   0.688   3.193 -0.3441  2.0217  1.6523
  111RES   H35546775   3.517   0.622   3.358  0.8917  1.7329 -0.8189
  111RES   H35646776   3.638   0.464   3.207 -0.1573 -2.6568 -0.0564
  111RES   H35746777   3.494   0.458   3.107 -0.9361  0.7668  0.6515
  111RES   H35846778   3.488   0.400   3.265  1.3928 -1.2227 -0.8766
  111RES   C35946779   3.243   1.061   3.387  0.0334  0.2214  0.1750
  111RES   C36046780   3.137   1.178   3.406  0.2403  0.4124 -0.3338
  111RES   C36146781   3.171   1.298   3.313  0.1973 -0.5136  0.0767
  111RES   C36246782   3.287   1.370   3.375  0.2385 -0.0544  0.3469
  111RES   C36346783   3.320   1.504   3.308  0.3684 -0.3209 -0.4430
  111RES   C36446784   3.441   1.587   3.360 -0.1285 -0.0867 -0.3359
  111RES   C36546785   3.465   1.606   3.509  0.1379  0.8026  0.0590
  111RES   H36646786   3.253   1.040   3.281 -0.9696 -1.3995  0.3953
  111RES   H36746787   3.338   1.102   3.421  0.1588  1.0800 -1.1939
  111RES   H36846788   3.138   1.218   3.508  0.5622 -0.3404 -0.0365
  111RES   H36946789   3.199   1.266   3.212 -1.3646  1.6924 -1.1154
  111RES   H37046790   3.085   1.364   3.299  1.7348  1.3393 -0.9049
  111RES   H37146791   3.260   1.401   3.476  1.8056 -0.3244  0.8619
  111RES   H37246792   3.377   1.309   3.385 -0.0018 -0.5165 -0.3153
  111RES   H37346793   3.322   1.495   3.200  2.4058 -3.3649 -0.1962
  111RES   H37446794   3.235   1.563   3.343 -2.2473 -3.2810 -1.5379
  111RES   H37546795   3.533   1.549   3.314 -0.9795 -3.1133  0.3360
  111RES   H37646796   3.422   1.683   3.312 -0.2756  0.5723  1.0404
  111RES   H37746797   3.373   1.640   3.557  0.0056 -0.1583  0.4936
  111RES   H37846798   3.489   1.510   3.556  0.3144  0.8123 -0.0116
  111RES   H37946799   3.552   1.667   3.532  0.8919 -0.5674  0.9324
  111RES   C38046800   2.986   1.132   3.387  0.2575  0.0856 -0.2455
  111RES   C38146801   2.875   1.237   3.425 -0.1630  0.2446 -0.0117
  111RES   C38246802   2.735   1.185   3.385  0.0760  0.9226  0.7992
  111RES   C38346803   2.703   1.164   3.236 -0.5698 -0.4758 -0.9520
  111RES   C38446804   2.553   1.138   3.210 -0.7508  0.1117  0.5853
  111RES   C38546805   2.467   1.269   3.199  0.3450 -0.3149  0.0622
  111RES   C38646806   2.333   1.250   3.123 -0.2577 -0.0851  0.0139
  111RES   H38746807   2.967   1.123   3.281  0.1531 -0.7795 -0.1551
  111RES   H38846808   2.965   1.034   3.428 -1.6974 -0.1210 -1.6951
  111RES   H38946809   2.886   1.332   3.373  0.8456  0.8048  1.1878
  111RES   H39046810   2.660   1.247   3.433 -1.3784  1.3601 -1.9350
  111RES   H39146811   2.727   1.083   3.423  1.0441  0.3189 -0.5509
  111RES   H39246812   2.745   1.248   3.180 -0.3653 -0.3937 -0.6760
  111RES   H39346813   2.760   1.078   3.200 -1.3554 -2.2471  1.9301
  111RES   H39446814   2.540   1.090   3.114  0.1538  0.8947  0.0580
  111RES   H39546815   2.515   1.074   3.289 -0.1590 -2.4431 -1.1529
  111RES   H39646816   2.523   1.352   3.156  1.4515 -1.5287 -0.8870
  111RES   H39746817   2.449   1.294   3.303 -2.2942 -2.4691  0.1420
  111RES   H39846818   2.273   1.341   3.128  2.4038  1.8157 -1.5384
  111RES   H39946819   2.278   1.164   3.161 -1.8230  1.1008  0.4837
  111RES   H40046820   2.363   1.227   3.021  1.1415  1.1028  0.1387
  111RES   C40146821   2.865   1.292   3.569  0.5601 -0.0530  0.4201
  111RES   C40246822   2.855   1.186   3.685  0.4034 -0.2387  0.9891
  111RES   C40346823   2.839   1.249   3.821 -0.2998 -0.3893  0.3180
  111RES   C40446824   2.858   1.155   3.944  0.4455  0.5323 -0.6465
  111RES   C40546825   2.737   1.052   3.941 -0.1537 -0.7404 -0.2587
  111RES   C40646826   2.736   0.977   4.074  0.0854 -0.1559 -0.0622
  111RES   C40746827   2.636   0.859   4.085  0.3292 -0.2304 -0.1209
  111RES   H40846828   2.781   1.360   3.584  0.5029  0.6221 -2.6361
  111RES   H40946829   2.950   1.355   3.592  2.0592 -1.2573 -1.6603
  111RES   H41046830   2.941   1.120   3.675  0.0555 -0.7684  1.4760
  111RES   H41146831   2.743   1.299   3.832 -0.2678 -0.4212  0.7402
  111RES   H41246832   2.918   1.324   3.834 -0.6970  0.2711 -0.9795
  111RES   H41346833   2.847   1.208   4.038 -4.0708 -1.1370 -0.0876
  111RES   H41446834   2.950   1.096   3.938 -0.6053 -1.7199  3.3216
  111RES   H41546835   2.645   1.110   3.938  0.8308  0.8688  0.3350
  111RES   H41646836   2.733   0.982   3.857 -0.1996 -1.5853  0.4512
  111RES   H41746837   2.839   0.943   4.082  1.2358  3.1448 -0.2874
  111RES   H41846838   2.715   1.057   4.145  1.1109 -1.1714  1.4230
  111RES   H41946839   2.671   0.775   4.025 -0.9909 -0.2995 -0.8281
  111RES   H42046840   2.533   0.872   4.050  0.5511 -1.1346 -1.1651
  111RES   H42146841   2.633   0.824   4.188  0.1087 -0.0097 -0.0520
  111RES   H42246842   2.767   1.124   3.667 -0.9945  2.2982 -1.5701
  112RES     C146843   4.021   6.242   7.265  0.2953 -0.4526  0.7436
  112RES     C246844   4.132   6.179   7.350  0.7108  0.1937  0.4560
  112RES     C346845   4.074   6.057   7.430 -0.5090 -0.2286 -0.4161
  112RES     C446846   4.028   5.932   7.349 -0.0228  1.0692  0.3900
  112RES     C546847   3.968   5.825   7.448 -0.5281 -0.4632 -0.2773
  112RES     C646848   3.831   5.875   7.500  0.5537 -0.0085  0.8213
  112RES     C746849   3.785   5.809   7.630 -0.4313  0.2958  0.2157
  112RES     H846850   3.964   6.163   7.216 -0.4100  1.1615 -1.0715
  112RES     H946851   4.061   6.289   7.175 -2.5581  1.7664  0.5916
  112RES    H1046852   4.215   6.144   7.289  0.8932 -0.8206  1.2702
  112RES    H1146853   4.148   6.014   7.497 -0.5320  0.6940  0.2108
  112RES    H1246854   4.000   6.102   7.497  0.0711  0.9020 -0.5198
  112RES    H1346855   3.949   5.962   7.280  0.3420  1.6173  0.2056
  112RES    H1446856   4.112   5.901   7.288 -2.2680 -2.4439 -1.0509
  112RES    H1546857   4.035   5.804   7.532  0.9674  0.6995 -1.1542
  112RES    H1646858   3.958   5.738   7.384  0.6774 -1.0040  0.2609
  112RES    H1746859   3.757   5.865   7.421  0.1906  1.3981  0.9825
  112RES    H1846860   3.832   5.981   7.524  0.3487  0.2272 -0.1979
  112RES    H1946861   3.842   5.832   7.720 -0.1093 -2.1777  0.6686
  112RES    H2046862   3.783   5.700   7.631  1.1777  0.2539  0.4693
  112RES    H2146863   3.682   5.831   7.659  0.5213  0.6110  3.5958
  112RES    H2246864   3.963   6.312   7.325 -1.9352 -1.9727  0.3916
  112RES    C2346865   4.194   6.288   7.441 -0.0316 -1.0431  0.3895
  112RES    C2446866   4.276   6.396   7.373 -0.3378  0.6447 -0.1911
  112RES    C2546867   4.417   6.347   7.326  0.5338 -1.0666  0.2954
  112RES    C2646868   4.474   6.445   7.217 -0.2561 -0.0275  0.1843
  112RES    C2746869   4.623   6.424   7.164  0.7231 -0.3670 -0.0286
  112RES    C2846870   4.728   6.467   7.274 -0.2961  0.4765  0.5972
  112RES    C2946871   4.871   6.456   7.218 -0.5529 -0.4201 -0.3852
  112RES    H3046872   4.107   6.319   7.499 -0.7818  0.6956 -1.6142
  112RES    H3146873   4.254   6.239   7.518 -0.5091 -0.2384  1.2893
  112RES    H3246874   4.225   6.426   7.281  0.8024 -1.8842 -1.7115
  112RES    H3346875   4.405   6.244   7.293 -0.2637 -2.4600  4.6974
  112RES    H3446876   4.485   6.347   7.411  0.6496  0.3972  0.2173
  112RES    H3546877   4.464   6.545   7.257  0.5857  0.0782  0.1308
  112RES    H3646878   4.410   6.448   7.129 -0.5907  1.6053  0.4664
  112RES    H3746879   4.632   6.499   7.087 -0.3325 -1.3200 -1.0936
  112RES    H3846880   4.633   6.324   7.122 -1.5920 -1.7557  2.5151
  112RES    H3946881   4.718   6.409   7.365  0.2527 -0.5380  0.0185
  112RES    H4046882   4.704   6.571   7.295 -1.4564  0.5943 -1.1316
  112RES    H4146883   4.885   6.458   7.110  1.1052 -1.1683 -0.1996
  112RES    H4246884   4.933   6.533   7.264 -3.3218  1.0360  1.0975
  112RES    H4346885   4.905   6.361   7.258  0.7269 -0.4265 -1.4429
  112RES    C4446886   4.280   6.531   7.457 -0.1806  0.0096 -0.3360
  112RES    C4546887   4.356   6.528   7.598 -0.0234  0.1034  0.4461
  112RES    C4646888   4.498   6.594   7.595 -0.1023  0.6329 -0.2655
  112RES    C4746889   4.502   6.749   7.591 -0.3257 -0.5837 -0.3274
  112RES    C4846890   4.639   6.801   7.625 -0.5632 -0.2374  0.2260
  112RES    C4946891   4.651   6.965   7.637  0.5403  0.5102 -0.0404
  112RES    C5046892   4.676   7.041   7.507 -0.0884 -0.0336  0.9582
  112RES    H5146893   4.179   6.571   7.461 -0.9961 -2.1422  1.7061
  112RES    H5246894   4.322   6.612   7.397  0.1517 -0.9621 -1.4235
  112RES    H5346895   4.355   6.421   7.619  1.0957 -0.0485 -0.2539
  112RES    H5446896   4.549   6.560   7.505 -0.8476 -0.8187 -0.1668
  112RES    H5546897   4.565   6.550   7.669  0.8308 -0.7380 -1.8810
  112RES    H5646898   4.458   6.795   7.503 -0.7786  0.4203  0.4103
  112RES    H5746899   4.437   6.791   7.668 -1.1494 -2.2839 -0.0919
  112RES    H5846900   4.716   6.757   7.561 -0.6663 -1.7910  1.1510
  112RES    H5946901   4.661   6.744   7.715 -1.9067  0.7124  1.1737
  112RES    H6046902   4.724   6.972   7.718  0.2648  1.0227  0.1652
  112RES    H6146903   4.552   6.995   7.673  0.3471 -1.5831  1.2632
  112RES    H6246904   4.595   7.031   7.434  1.4708 -1.5531 -0.5968
  112RES    H6346905   4.752   6.992   7.446 -0.4176  0.5819  0.0458
  112RES    H6446906   4.708   7.143   7.525 -0.2651  0.2894 -0.5145
  112RES    C6546907   4.269   6.587   7.710  0.3398 -1.3692 -0.1944
  112RES    C6646908   4.333   6.558   0.125  1.0965 -0.3514  0.0798
  112RES    C6746909   4.359   6.411   0.146 -0.1275 -0.1068 -0.1917
  112RES    C6846910   4.237   6.325   0.128 -0.5696  0.0747  0.1738
  112RES    C6946911   4.269   6.174   0.124  0.3200  0.4348  0.8468
  112RES    C7046912   4.161   6.076   0.105  0.6770 -0.2709  0.3662
  112RES    C7146913   4.212   5.937   0.146  0.3292  0.0620  0.0488
  112RES    H7246914   4.254   6.693   7.689  1.5177 -0.9401  1.0661
  112RES    H7346915   4.177   6.531   7.693 -0.5722 -0.2677  0.9940
  112RES    H7446916   4.425   6.616   0.129  0.3836  0.7304  1.2838
  112RES    H7546917   4.440   6.371   0.085  0.3947  1.6276 -0.6728
  112RES    H7646918   4.399   6.403   0.247 -1.9040  1.2369  0.6438
  112RES    H7746919   4.153   6.340   0.196 -1.3698 -0.2416 -0.7263
  112RES    H7846920   4.187   6.338   0.032  0.9769  0.2237 -0.6108
  112RES    H7946921   4.343   6.161   0.045 -0.4726 -1.2426  0.3631
  112RES    H8046922   4.313   6.149   0.221  1.0160 -0.6117  0.2664
  112RES    H8146923   4.128   6.082   0.001  0.5950 -0.4897  0.3806
  112RES    H8246924   4.075   6.096   0.168 -0.9598 -0.5686 -1.7057
  112RES    H8346925   4.130   5.873   0.114  1.3150  0.0316 -2.5862
  112RES    H8446926   4.302   5.906   0.092  0.4440  1.6979 -0.7228
  112RES    H8546927   4.229   5.926   0.253  0.7451 -0.6684 -0.0834
  112RES    C8646928   4.249   6.617   0.250  0.4468  0.3700 -0.1725
  112RES    C8746929   4.335   6.648   0.372  0.5322  0.3101  0.2279
  112RES    C8846930   4.373   6.806   0.380 -0.2144 -0.3792 -0.5297
  112RES    C8946931   4.486   6.848   0.286 -0.1477 -0.5485  0.7000
  112RES    C9046932   4.549   6.979   0.329 -0.5979 -0.1611  0.1417
  112RES    C9146933   4.472   7.101   0.270  0.5617 -0.2443  0.1398
  112RES    C9246934   4.486   7.222   0.352  0.3185 -0.0869  0.0071
  112RES    H9346935   4.168   6.690   0.242 -1.9357 -2.4317 -2.4652
  112RES    H9446936   4.176   6.541   0.279  2.3360 -1.1465  0.6641
  112RES    H9546937   4.426   6.592   0.355 -1.2668 -2.3297 -0.9591
  112RES    H9646938   4.285   6.867   0.362  0.7287  1.2637  0.2232
  112RES    H9746939   4.413   6.821   0.481 -0.9975 -0.8945 -0.1368
  112RES    H9846940   4.554   6.763   0.289 -2.8540 -2.8811 -1.2924
  112RES    H9946941   4.465   6.847   0.179 -0.8655  1.2119  0.7992
  112RES   H10046942   4.656   6.988   0.309 -0.1420  3.0024  3.5042
  112RES   H10146943   4.533   6.991   0.436  0.4058  0.9968  0.1741
  112RES   H10246944   4.517   7.122   0.173  1.5934  0.9710  0.8653
  112RES   H10346945   4.366   7.080   0.257  0.7852 -1.2902 -0.0199
  112RES   H10446946   4.442   7.215   0.452 -2.5516  2.0811 -1.0459
  112RES   H10546947   4.423   7.302   0.314 -0.5437  0.3129  2.2062
  112RES   H10646948   4.583   7.270   0.367  0.5658 -0.9625  1.2952
  112RES   C10746949   4.269   6.596   0.504  0.6420 -0.4895  1.0778
  112RES   C10846950   4.366   6.564   0.616  0.2691 -1.2490  0.1147
  112RES   C10946951   4.308   6.608   0.750 -0.0031  0.5117 -0.2499
  112RES   C11046952   4.184   6.542   0.806  0.0751  0.6078 -0.8319
  112RES   C11146953   4.130   6.598   0.940  0.5853 -0.1462 -0.1705
  112RES   C11246954   3.993   6.548   0.996  0.7122 -0.2502  0.3341
  112RES   C11346955   4.015   6.418   1.070 -0.7197 -0.4073  0.0944
  112RES   H11446956   4.207   6.507   0.492 -1.5922  1.0667  0.8692
  112RES   H11546957   4.197   6.668   0.541 -0.8084 -1.5820  0.4401
  112RES   H11646958   4.447   6.636   0.605 -0.9118  0.9943  4.5652
  112RES   H11746959   4.284   6.713   0.735  1.5676  0.7969 -0.9317
  112RES   H11846960   4.387   6.602   0.825 -2.5551 -1.5451  2.4024
  112RES   H11946961   4.099   6.540   0.737  0.8459  0.3006 -1.7777
  112RES   H12046962   4.203   6.436   0.824  1.5685  1.0745  0.3944
  112RES   H12146963   4.134   6.707   0.933  0.2756 -0.2053 -1.3527
  112RES   H12246964   4.209   6.564   1.006  1.5738 -0.8536 -1.6892
  112RES   H12346965   3.960   6.615   1.076 -1.2257 -0.2495 -0.4445
  112RES   H12446966   3.908   6.549   0.927  0.8311 -0.5111  0.1837
  112RES   H12546967   4.099   6.421   1.140  1.3236 -2.0958 -2.2027
  112RES   H12646968   3.925   6.384   1.121  0.7799 -1.9032  1.7951
  112RES   H12746969   4.038   6.341   0.997 -0.4024 -0.3171  0.0970
  112RES   C12846970   4.411   6.420   0.610 -0.3515 -0.2974  0.0007
  112RES   C12946971   4.557   6.394   0.656  0.1579 -0.5938  0.3585
  112RES   C13046972   4.636   6.306   0.558  0.3880 -0.5376 -0.4867
  112RES   C13146973   4.674   6.361   0.416  0.0708  0.1667 -0.1701
  112RES   C13246974   4.764   6.487   0.425  0.3715 -0.8242 -0.0365
  112RES   C13346975   4.792   6.537   0.283 -0.0442 -0.1933  0.4376
  112RES   C13446976   4.834   6.685   0.281  0.5366 -0.3295  0.3060
  112RES   H13546977   4.354   6.342   0.660  0.6420  0.2857  2.0789
  112RES   H13646978   4.409   6.390   0.505  0.6457  0.2879 -0.1935
  112RES   H13746979   4.606   6.491   0.667  0.2802 -0.3304 -2.0483
  112RES   H13846980   4.590   6.207   0.551  0.1666 -0.4869  0.2069
  112RES   H13946981   4.727   6.281   0.612 -0.9166 -0.3656  1.9043
  112RES   H14046982   4.582   6.373   0.360  1.0415  0.8667 -1.6487
  112RES   H14146983   4.742   6.286   0.375 -1.2433 -0.7499 -0.6964
  112RES   H14246984   4.852   6.470   0.487  2.2036  2.1078 -1.6721
  112RES   H14346985   4.694   6.558   0.468  2.5072 -0.3760  2.8536
  112RES   H14446986   4.696   6.528   0.232 -0.0772 -2.0446  0.7693
  112RES   H14546987   4.861   6.467   0.235 -0.1635  0.2104 -0.3316
  112RES   H14646988   4.811   6.736   0.187  2.3344  1.4518  0.7777
  112RES   H14746989   4.941   6.678   0.300  0.3753 -0.0083  1.3730
  112RES   H14846990   4.783   6.741   0.359 -0.1091  0.5411 -0.7204
  112RES   C14946991   4.554   6.341   0.806  0.4699 -0.4916  1.2678
  112RES   C15046992   4.693   6.324   0.883  0.4619  0.2604  0.2094
  112RES   C15146993   4.741   6.171   0.889  0.7152  0.5105  0.2700
  112RES   C15246994   4.888   6.156   0.886 -0.6086 -0.2916  0.2574
  112RES   C15346995   4.940   6.012   0.894 -0.2282 -0.2801  0.2187
  112RES   C15446996   5.074   6.010   0.975 -0.1922 -0.0930  0.4906
  112RES   C15546997   5.137   5.876   0.962  0.1645 -0.3818  0.3574
  112RES   H15646998   4.490   6.411   0.861 -1.3253 -0.3837 -0.8758
  112RES   H15746999   4.489   6.253   0.809  0.4354 -0.5288 -0.1354
  112RES   H15847000   4.763   6.388   0.829 -0.3179 -0.4725 -1.7132
  112RES   H15947001   4.702   6.119   0.976 -1.0014 -2.7537 -2.3242
  112RES   H16047002   4.703   6.116   0.803  0.1486  1.5338 -0.1486
  112RES   H16147003   4.932   6.226   0.956 -0.3343  0.7780 -0.9673
  112RES   H16247004   4.907   6.201   0.788  0.1764 -1.9978 -0.4013
  112RES   H16347005   4.948   5.964   0.796  0.2731  1.9182 -0.8397
  112RES   H16447006   4.869   5.950   0.949  0.2117 -1.3884 -0.4372
  112RES   H16547007   5.045   6.035   1.077  1.4390  1.5514  0.5649
  112RES   H16647008   5.142   6.088   0.943  0.9664 -2.4609 -3.1288
  112RES   H16747009   5.174   5.863   0.860 -1.3814 -1.3585 -0.0897
  112RES   H16847010   5.071   5.795   0.994 -0.5969  0.5572  1.1723
  112RES   H16947011   5.229   5.876   1.020  0.3733  0.7853  0.0476
  112RES   C17047012   4.688   6.400   1.020 -0.7280 -0.8397  0.3822
  112RES   C17147013   4.807   6.476   1.063  0.3897 -0.2486  0.2034
  112RES   C17247014   4.835   6.604   0.992  0.0060 -0.2627  0.1031
  112RES   C17347015   4.716   6.706   0.998 -0.7362 -0.0286 -0.3961
  112RES   C17447016   4.724   6.821   0.902 -0.0431  0.1735  0.4876
  112RES   C17547017   4.666   6.787   0.771 -1.1848  0.0014 -0.3499
  112RES   C17647018   4.700   6.876   0.656  0.1437  0.1763  0.0773
  112RES   H17747019   4.678   6.321   1.095 -2.3865 -3.0680 -2.1095
  112RES   H17847020   4.599   6.463   1.032  0.2065  0.4940  0.4077
  112RES   H17947021   4.899   6.421   1.042  0.0887  0.3117 -2.7922
  112RES   H18047022   4.855   6.579   0.888  0.7252  0.2021  0.1265
  112RES   H18147023   4.926   6.654   1.026  0.2371 -0.6437  0.0413
  112RES   H18247024   4.717   6.729   1.104  0.4640  0.0030 -0.4094
  112RES   H18347025   4.624   6.651   0.975 -1.3816  0.7031  0.3968
  112RES   H18447026   4.825   6.861   0.888  1.3351 -3.3624 -0.1575
  112RES   H18547027   4.662   6.904   0.936  0.9539  0.7277  0.9902
  112RES   H18647028   4.557   6.785   0.772 -1.1987  0.6171 -0.1434
  112RES   H18747029   4.720   6.697   0.744  0.3375  0.5647  0.7739
  112RES   H18847030   4.808   6.868   0.650  0.0728  0.2480 -1.6824
  112RES   H18947031   4.666   6.979   0.668 -1.3972 -0.3625  0.5162
  112RES   H19047032   4.656   6.831   0.567  0.4430 -0.7891  0.4116
  112RES   C19147033   4.807   6.509   1.218 -0.2651 -0.0365  0.1213
  112RES   C19247034   4.836   6.389   1.311  0.7824 -0.5147 -0.4401
  112RES   C19347035   4.963   6.306   1.268  0.0811  0.1489 -0.5734
  112RES   C19447036   5.088   6.389   1.242 -0.3923 -0.3504 -0.2272
  112RES   C19547037   5.202   6.299   1.196  0.3878  0.4272 -0.3260
  112RES   C19647038   5.326   6.375   1.149  0.2389  0.0437  1.2517
  112RES   C19747039   5.416   6.441   1.259 -0.5837 -0.2974 -0.1014
  112RES   H19847040   4.707   6.548   1.233 -1.0923 -1.4267 -1.6745
  112RES   H19947041   4.873   6.595   1.230  0.3242 -0.6656  1.4471
  112RES   H20047042   4.748   6.327   1.295  0.4731  0.2236 -1.6439
  112RES   H20147043   4.934   6.249   1.180 -3.0974 -0.4624  0.7864
  112RES   H20247044   4.989   6.230   1.342 -0.3063 -0.7123 -1.3139
  112RES   H20347045   5.109   6.451   1.329 -0.0867  1.6178 -1.6622
  112RES   H20447046   5.077   6.466   1.165 -1.1872 -1.0506 -0.8286
  112RES   H20547047   5.245   6.223   1.262 -1.0434 -0.3503 -0.2664
  112RES   H20647048   5.158   6.247   1.111 -1.6587  1.0349  0.3422
  112RES   H20747049   5.290   6.446   1.075  2.0903  1.7469  1.9487
  112RES   H20847050   5.388   6.305   1.094 -0.6361 -0.0903  0.4294
  112RES   H20947051   5.374   6.532   1.303  0.5714  1.0521 -1.7480
  112RES   H21047052   5.510   6.461   1.208 -0.7092  2.2184  0.6163
  112RES   H21147053   5.420   6.364   1.336 -2.0266  0.0643  0.3531
  112RES   C21247054   4.849   6.447   1.462  0.0252  0.0443 -0.2704
  112RES   C21347055   4.814   6.335   1.574  0.2397  0.2844  0.3406
  112RES   C21447056   4.898   6.348   1.703 -0.2208 -0.2373  0.6461
  112RES   C21547057   5.048   6.318   1.682 -0.2126  0.5360 -0.3587
  112RES   C21647058   5.091   6.173   1.657  0.1479  0.0783  0.1085
  112RES   C21747059   5.127   6.104   1.789  0.5354 -0.0019 -0.1764
  112RES   C21847060   5.190   5.972   1.766 -0.0970 -0.4525 -0.0395
  112RES   H21947061   4.769   6.517   1.484 -1.0191 -1.0059 -0.7088
  112RES   H22047062   4.944   6.498   1.481 -1.4308  2.1974  1.4004
  112RES   H22147063   4.843   6.237   1.535 -1.9815 -0.2319 -0.0592
  112RES   H22247064   4.893   6.446   1.751  0.0071 -0.1729  0.5413
  112RES   H22347065   4.863   6.278   1.779  0.0110 -0.9082  0.1374
  112RES   H22447066   5.108   6.348   1.768  1.7226 -0.8828 -1.1617
  112RES   H22547067   5.093   6.385   1.609  0.8225  0.1523 -0.0874
  112RES   H22647068   5.021   6.112   1.601 -0.3106 -0.0575  0.8176
  112RES   H22747069   5.179   6.181   1.593  0.9552  0.1835  1.2192
  112RES   H22847070   5.201   6.156   1.849  0.8433 -3.0167  2.2107
  112RES   H22947071   5.034   6.103   1.846 -0.7863 -0.1470 -2.3059
  112RES   H23047072   5.099   5.916   1.742 -1.3955  1.3845  0.5042
  112RES   H23147073   5.230   5.921   1.854 -1.8275 -2.3763 -0.3110
  112RES   H23247074   5.258   5.973   1.682  0.0222  0.2531  0.0643
  112RES   C23347075   4.660   6.318   1.609  0.5476  0.7018 -0.3550
  112RES   C23447076   4.622   6.203   1.703 -0.4551 -0.0424  0.4453
  112RES   C23547077   4.486   6.233   1.765 -0.3529 -0.5300 -0.4999
  112RES   C23647078   4.361   6.233   1.670 -0.1614 -0.4112 -0.1831
  112RES   C23747079   4.234   6.217   1.746 -0.0482 -0.3378  0.1336
  112RES   C23847080   4.116   6.228   1.656 -0.4179  0.4610  0.1387
  112RES   C23947081   3.984   6.249   1.734  0.7531  0.3883  0.2188
  112RES   H24047082   4.612   6.305   1.512  0.1707 -0.4615 -0.0286
  112RES   H24147083   4.619   6.411   1.646 -0.4993 -0.0512  0.4073
  112RES   H24247084   4.679   6.210   1.795  0.5082  0.9253 -0.2173
  112RES   H24347085   4.476   6.317   1.833  1.8078  0.3698 -1.2425
  112RES   H24447086   4.466   6.161   1.844 -1.7071 -0.0374 -0.3780
  112RES   H24547087   4.369   6.144   1.607 -2.0697 -1.3459  0.8481
  112RES   H24647088   4.358   6.319   1.604 -1.3923 -0.7129 -0.5277
  112RES   H24747089   4.228   6.299   1.818  0.4912 -0.1726 -0.0129
  112RES   H24847090   4.239   6.122   1.800  2.0804  1.3203  3.0261
  112RES   H24947091   4.129   6.315   1.591 -0.0442  1.1573  1.1373
  112RES   H25047092   4.116   6.138   1.594 -1.0578  1.6071 -1.5556
  112RES   H25147093   3.980   6.346   1.782  2.0419  0.3067  0.4918
  112RES   H25247094   3.897   6.257   1.669  0.3433 -1.2853  0.5217
  112RES   H25347095   3.962   6.177   1.813 -0.0644 -0.8001 -1.0592
  112RES   C25447096   4.650   6.072   1.632 -0.3670  0.3543 -0.0208
  112RES   C25547097   4.626   5.951   1.722 -0.7620 -0.2492 -0.1672
  112RES   C25647098   4.749   5.867   1.755 -0.8181 -0.0798 -0.2445
  112RES   C25747099   4.795   5.893   1.895  0.3540  0.1579  0.7034
  112RES   C25847100   4.909   5.801   1.927  0.8618 -0.1402  0.4515
  112RES   C25947101   4.976   5.831   2.059  0.7481  0.0318  0.0273
  112RES   C26047102   4.888   5.860   2.182 -0.2399 -0.3740 -0.2418
  112RES   H26147103   4.757   6.069   1.611 -0.3635 -2.7581  0.1230
  112RES   H26247104   4.600   6.073   1.536 -0.1958  2.0874 -0.0984
  112RES   H26347105   4.586   5.997   1.813  0.1703  0.2301  0.0066
  112RES   H26447106   4.824   5.884   1.678 -1.9458  2.0925 -0.8968
  112RES   H26547107   4.726   5.764   1.728 -0.8885  0.1472 -1.0479
  112RES   H26647108   4.818   6.000   1.901 -5.1537  1.5528 -0.4330
  112RES   H26747109   4.715   5.883   1.968  1.0095  1.3647  1.6196
  112RES   H26847110   4.984   5.795   1.848  1.8608 -1.3835  1.4660
  112RES   H26947111   4.859   5.705   1.937 -3.9751  2.1228 -0.3595
  112RES   H27047112   5.037   5.749   2.097  0.3319 -1.0400 -1.5360
  112RES   H27147113   5.050   5.908   2.036 -0.3248  0.2304 -3.0097
  112RES   H27247114   4.816   5.779   2.193 -0.5021  0.1461  2.0855
  112RES   H27347115   4.945   5.885   2.271 -2.0409 -0.8100  1.0547
  112RES   H27447116   4.827   5.948   2.160  0.2876 -0.1462 -0.8118
  112RES   C27547117   4.506   5.863   1.676 -0.5494 -0.3297  0.3080
  112RES   C27647118   4.449   5.777   1.790 -0.1444  0.1058  0.0747
  112RES   C27747119   4.411   5.629   1.738  0.8242 -0.0660  0.3906
  112RES   C27847120   4.544   5.543   1.730  0.4249  0.1862 -0.0281
  112RES   C27947121   4.526   5.390   1.721 -0.1588 -1.1404  0.0118
  112RES   C28047122   4.647   5.316   1.669 -0.2558 -0.1882 -0.3120
  112RES   C28147123   4.611   5.169   1.627  0.1279 -0.0997  0.1480
  112RES   H28247124   4.555   5.805   1.597  1.6820  0.2727  1.2266
  112RES   H28347125   4.427   5.920   1.627 -1.5164 -0.7445  1.3715
  112RES   H28447126   4.535   5.761   1.856  0.0251 -1.6371 -0.5230
  112RES   H28547127   4.335   5.582   1.801  0.9872 -0.7128  0.1037
  112RES   H28647128   4.365   5.645   1.640 -1.8178  2.4940  1.9589
  112RES   H28747129   4.604   5.548   1.820  1.8227 -1.4240 -0.8380
  112RES   H28847130   4.601   5.583   1.646  0.9114 -1.6183 -0.5863
  112RES   H28947131   4.448   5.389   1.645 -0.1313  0.8881 -0.0632
  112RES   H29047132   4.484   5.349   1.813 -1.9921 -0.3768 -0.4686
  112RES   H29147133   4.688   5.367   1.582  1.3208 -2.1084 -0.7585
  112RES   H29247134   4.721   5.315   1.750 -1.1236 -0.3152  0.4851
  112RES   H29347135   4.552   5.165   1.536 -1.3369 -0.4941  1.0942
  112RES   H29447136   4.543   5.126   1.701  0.6210 -1.3519 -0.1191
  112RES   H29547137   4.687   5.093   1.613  0.5244  0.3360 -0.0518
  112RES   C29647138   4.343   5.850   1.871 -0.1382 -0.0704  1.0504
  112RES   C29747139   4.312   5.795   2.018 -0.3127 -0.2672  0.2705
  112RES   C29847140   4.179   5.869   2.078 -0.2098  0.0137 -0.8268
  112RES   C29947141   4.182   6.022   2.093  0.0490  0.1080 -0.0668
  112RES   C30047142   4.049   6.089   2.116  0.1149  0.0071 -0.6011
  112RES   C30147143   4.066   6.243   2.094 -0.1158  0.8545 -0.1729
  112RES   C30247144   3.971   6.324   2.180  0.0221 -0.6062  0.0666
  112RES   H30347145   4.380   5.951   1.886 -3.0188  1.0322  1.1476
  112RES   H30447146   4.253   5.866   1.812  0.0537  0.5408  0.9195
  112RES   H30547147   4.292   5.688   2.027  0.0193 -0.4153 -0.6784
  112RES   H30647148   4.102   5.849   2.003  1.8657 -1.0646 -2.7084
  112RES   H30747149   4.145   5.817   2.168 -1.8326  2.3192 -0.0320
  112RES   H30847150   4.239   6.060   2.008  0.8076  0.2493  0.4972
  112RES   H30947151   4.246   6.018   2.181  1.2903  0.8853 -0.9182
  112RES   H31047152   4.021   6.068   2.219  0.1708 -1.0047 -0.7875
  112RES   H31147153   3.968   6.056   2.050 -0.2521 -0.5908  0.1478
  112RES   H31247154   4.167   6.283   2.106 -1.1441  2.6971  2.8432
  112RES   H31347155   4.039   6.269   1.992  1.6194 -0.2949 -0.9643
  112RES   H31447156   3.964   6.427   2.146  0.4605 -0.4749  0.3686
  112RES   H31547157   3.872   6.278   2.182  0.3610 -1.2738  2.9998
  112RES   H31647158   3.996   6.319   2.286 -0.0565 -1.5608  0.0440
  112RES   C31747159   4.433   5.823   2.112 -0.2438 -0.3892 -0.1361
  112RES   C31847160   4.417   5.778   2.261  0.5476  0.0529  0.6587
  112RES   C31947161   4.395   5.626   2.274  0.0195 -0.2643  0.3993
  112RES   C32047162   4.493   5.539   2.197  0.3540  0.3632  0.3250
  112RES   C32147163   4.509   5.399   2.244 -0.6871 -0.6467 -0.9054
  112RES   C32247164   4.619   5.320   2.172 -0.1984 -0.1624 -1.3342
  112RES   C32347165   4.584   5.204   2.082 -0.5371 -0.1825  0.1532
  112RES   H32447166   4.456   5.930   2.105  1.1080 -0.6038  0.8947
  112RES   H32547167   4.521   5.771   2.075 -1.6610 -1.2778 -2.3535
  112RES   H32647168   4.335   5.835   2.305  0.8044 -0.7334  2.1986
  112RES   H32747169   4.290   5.606   2.251 -0.4604  0.2896  2.0502
  112RES   H32847170   4.404   5.597   2.379 -1.6026 -2.8521 -0.1457
  112RES   H32947171   4.593   5.583   2.192  0.6614 -0.4590 -1.0101
  112RES   H33047172   4.455   5.530   2.095 -0.8090 -0.2337  0.8041
  112RES   H33147173   4.413   5.346   2.243 -2.0481  1.7383  0.6999
  112RES   H33247174   4.540   5.402   2.348 -3.9391 -0.9140  0.1209
  112RES   H33347175   4.677   5.283   2.257  0.6720  1.8026 -1.0211
  112RES   H33447176   4.679   5.386   2.108  0.5028  0.3512 -0.1709
  112RES   H33547177   4.549   5.114   2.133  0.6392 -1.7849 -1.8463
  112RES   H33647178   4.663   5.170   2.015  0.7452  0.2272  1.4266
  112RES   H33747179   4.501   5.229   2.015 -0.8203  1.4009  1.0606
  112RES   C33847180   4.532   5.833   2.343 -0.4532  0.4614 -0.0574
  112RES   C33947181   4.503   5.880   2.486  0.1769  0.3653 -1.6120
  112RES   C34047182   4.453   5.774   2.586 -0.2604 -0.9890  0.6394
  112RES   C34147183   4.458   5.808   2.728  0.1058  0.5932 -0.2264
  112RES   C34247184   4.395   5.715   2.832 -0.4209 -0.6077  0.0912
  112RES   C34347185   4.483   5.592   2.875  0.1238  0.1476  0.2929
  112RES   C34447186   4.613   5.630   2.957  0.0026  0.1093 -0.3840
  112RES   H34547187   4.578   5.920   2.296 -3.1022  0.6141 -2.4655
  112RES   H34647188   4.619   5.767   2.349 -1.8106 -1.2820  0.9283
  112RES   H34747189   4.607   5.903   2.510 -0.1429  0.8449 -0.6484
  112RES   H34847190   4.347   5.761   2.563 -0.1069 -0.8392 -0.1793
  112RES   H34947191   4.511   5.683   2.572 -1.0303 -1.3101 -0.5991
  112RES   H35047192   4.408   5.905   2.736  1.7897  1.8008 -3.3721
  112RES   H35147193   4.558   5.840   2.758  1.0216 -2.7826  0.5676
  112RES   H35247194   4.364   5.778   2.915 -1.0206 -1.3513  0.4466
  112RES   H35347195   4.294   5.688   2.802 -1.0819  0.3412  1.3896
  112RES   H35447196   4.421   5.530   2.940  1.7626  0.3066  2.0367
  112RES   H35547197   4.501   5.534   2.784 -0.3033  0.2764  0.1239
  112RES   H35647198   4.686   5.549   2.956  0.5215  0.5726 -0.1352
  112RES   H35747199   4.594   5.648   3.062 -0.5935  3.2028 -0.9803
  112RES   H35847200   4.664   5.721   2.927 -0.7295  0.0406 -1.9211
  112RES   C35947201   4.417   6.009   2.480 -0.4047  0.4175  0.3724
  112RES   C36047202   4.481   6.138   2.530 -0.2475  0.1026 -0.2393
  112RES   C36147203   4.574   6.195   2.435  0.0407 -0.5036  0.3750
  112RES   C36247204   4.504   6.231   2.295  0.2154 -0.6621  0.7139
  112RES   C36347205   4.599   6.307   2.202  0.3942  0.2156 -0.4256
  112RES   C36447206   4.715   6.221   2.138 -0.1543 -0.0442 -0.0836
  112RES   C36547207   4.818   6.302   2.064  0.5180 -0.1593 -0.4354
  112RES   H36647208   4.331   5.983   2.542 -0.4540  0.2371  0.2308
  112RES   H36747209   4.361   6.033   2.389 -0.1541  0.1575  0.1491
  112RES   H36847210   4.527   6.123   2.628  0.0844  1.3153 -0.1989
  112RES   H36947211   4.620   6.284   2.477  2.7022 -2.2418  1.3138
  112RES   H37047212   4.663   6.134   2.422 -0.4172 -0.6511 -2.5000
  112RES   H37147213   4.478   6.140   2.240  0.6372 -0.2870 -0.1193
  112RES   H37247214   4.421   6.303   2.297  0.1922 -0.5030 -2.9121
  112RES   H37347215   4.537   6.350   2.123  1.5277  0.3543 -1.2641
  112RES   H37447216   4.644   6.395   2.246 -1.8412  0.6579  1.0555
  112RES   H37547217   4.759   6.152   2.210 -3.8526 -2.2142  0.1844
  112RES   H37647218   4.666   6.156   2.065 -1.0392  0.2744  0.2240
  112RES   H37747219   4.774   6.356   1.980 -1.0686 -0.0173  0.4626
  112RES   H37847220   4.850   6.380   2.133 -1.7822  0.1991  0.2630
  112RES   H37947221   4.902   6.236   2.040 -0.4109 -1.5205  0.0199
  112RES   C38047222   4.369   6.242   2.559 -0.0892 -0.6082  1.0555
  112RES   C38147223   4.273   6.211   2.680  0.4309  0.0803 -0.3409
  112RES   C38247224   4.311   6.297   2.796  0.0210 -0.6655  0.0431
  112RES   C38347225   4.455   6.322   2.837  0.0359 -0.8521 -0.0824
  112RES   C38447226   4.459   6.392   2.980  0.0032  0.1789  0.3999
  112RES   C38547227   4.386   6.320   3.097  0.4457 -0.2398 -0.3243
  112RES   C38647228   4.381   6.414   3.218  0.8822  0.0722  0.6567
  112RES   H38747229   4.404   6.343   2.581  0.3654 -0.9976  2.1368
  112RES   H38847230   4.308   6.241   2.468 -0.1821 -2.6812  1.1252
  112RES   H38947231   4.295   6.106   2.696 -0.3974 -0.1149 -0.4591
  112RES   H39047232   4.251   6.263   2.881  0.0362 -1.4327 -0.2524
  112RES   H39147233   4.271   6.398   2.785 -0.9878 -1.2337 -1.7548
  112RES   H39247234   4.505   6.227   2.855  2.0660  0.8140  3.6571
  112RES   H39347235   4.510   6.383   2.766  2.0429 -1.1967  1.1217
  112RES   H39447236   4.565   6.387   3.006 -0.1195 -2.2835  0.5560
  112RES   H39547237   4.431   6.496   2.966  3.6584  0.8379 -2.9259
  112RES   H39647238   4.444   6.232   3.126 -0.3035 -0.7313 -0.3088
  112RES   H39747239   4.285   6.288   3.072  0.8885 -0.6847 -1.6214
  112RES   H39847240   4.476   6.457   3.247  1.0886 -0.9176  1.5071
  112RES   H39947241   4.331   6.376   3.307 -1.7276 -0.4812 -0.9832
  112RES   H40047242   4.325   6.504   3.192 -3.2192 -2.7983 -1.0917
  112RES   C40147243   4.128   6.218   2.644 -0.1335 -0.5001  0.4680
  112RES   C40247244   4.077   6.091   2.566  0.4367  0.2307  0.0624
  112RES   C40347245   3.926   6.111   2.538  0.0139  0.2675  0.4236
  112RES   C40447246   3.851   5.983   2.519 -0.3228  0.1153  0.4309
  112RES   C40547247   3.714   6.000   2.451 -0.3397  0.3198 -1.0953
  112RES   C40647248   3.630   5.873   2.425 -0.2788 -0.4904  0.1849
  112RES   C40747249   3.592   5.803   2.556  0.4326  0.6428 -0.0398
  112RES   H40847250   4.095   6.307   2.591  0.4702  0.4450  1.6447
  112RES   H40947251   4.067   6.217   2.735 -0.6136 -0.1759  0.1524
  112RES   H41047252   4.082   6.004   2.632 -0.8214 -0.7880 -1.1699
  112RES   H41147253   3.925   6.175   2.450  1.6171 -1.1524 -0.6655
  112RES   H41247254   3.873   6.176   2.607 -1.4255 -0.0244 -0.4022
  112RES   H41347255   3.853   5.928   2.613  0.9985  1.2448  1.0818
  112RES   H41447256   3.910   5.908   2.466 -2.0974 -0.3184 -0.9912
  112RES   H41547257   3.654   6.065   2.515  1.0230 -0.6759  1.2627
  112RES   H41647258   3.736   6.054   2.359  0.9124 -0.3007 -1.1694
  112RES   H41747259   3.538   5.905   2.376 -1.9496 -1.2914  2.6925
  112RES   H41847260   3.669   5.800   2.355  0.3583  1.7248 -1.8340
  112RES   H41947261   3.552   5.872   2.630 -0.8959  0.9668 -1.0447
  112RES   H42047262   3.689   5.760   2.581  0.8036  1.2961 -0.3401
  112RES   H42147263   3.526   5.721   2.529  1.6800 -0.1556 -0.7493
  112RES   H42247264   4.122   6.069   2.470  1.5927 -1.8284  1.0338
  113RES     C147265   7.606   3.252   0.427 -0.0121  0.2456 -0.0260
  113RES     C247266   7.471   3.282   0.360 -0.3308  0.6641  0.1631
  113RES     C347267   7.414   3.420   0.385 -0.0816 -0.3060 -0.4651
  113RES     C447268   7.516   3.544   0.373 -0.2961  0.3762 -0.2188
  113RES     C547269   7.463   3.685   0.397 -0.0240  0.0160 -0.1936
  113RES     C647270   7.569   3.793   0.395  0.1680  0.1717 -0.0910
  113RES     C747271   7.502   3.926   0.347  0.6040 -0.6314 -0.5760
  113RES     H847272   7.653   3.169   0.374  1.8120 -0.0172  1.9240
  113RES     H947273   7.590   3.237   0.534  1.1506  1.3902  0.3221
  113RES    H1047274   7.482   3.284   0.252 -3.1714  0.7938 -0.1358
  113RES    H1147275   7.340   3.427   0.306 -3.3752 -3.2792  2.1991
  113RES    H1247276   7.359   3.420   0.479  0.4002 -2.1255 -0.1552
  113RES    H1347277   7.600   3.532   0.442 -0.2207  1.7859 -0.0646
  113RES    H1447278   7.550   3.549   0.269 -1.2542  0.1693 -0.5455
  113RES    H1547279   7.417   3.705   0.494 -0.2941  1.8100 -0.6805
  113RES    H1647280   7.386   3.709   0.324  2.5280  0.5456 -2.7956
  113RES    H1747281   7.650   3.774   0.324 -0.1531  0.5189 -0.5480
  113RES    H1847282   7.616   3.805   0.492  1.0782  3.5073 -0.9079
  113RES    H1947283   7.581   3.999   0.364  0.5480 -1.2737  2.7539
  113RES    H2047284   7.414   3.959   0.401  1.2709  1.6123 -0.8222
  113RES    H2147285   7.477   3.923   0.241  2.7174 -0.6409 -1.1082
  113RES    H2247286   7.675   3.334   0.411 -0.0764  0.5017  0.9306
  113RES    C2347287   7.364   3.167   0.379 -0.8205  0.6095  0.2540
  113RES    C2447288   7.419   3.027   0.362 -0.5086 -0.1383  0.6643
  113RES    C2547289   7.487   3.003   0.222 -0.0585  0.2995  0.3695
  113RES    C2647290   7.378   3.020   0.106  0.0202  0.8244  0.6041
  113RES    C2747291   7.434   2.969   7.694  0.6810  0.5245 -0.6043
  113RES    C2847292   7.340   2.981   7.572 -0.3493  0.0999 -0.2097
  113RES    C2947293   7.403   2.912   7.453 -0.0395 -0.7049 -0.0110
  113RES    H3047294   7.321   3.174   0.478 -0.7258 -1.3050  0.4386
  113RES    H3147295   7.274   3.184   0.319 -0.4575  1.3572 -0.0888
  113RES    H3247296   7.498   3.017   0.436  0.0431  0.9818  0.2400
  113RES    H3347297   7.529   2.903   0.230 -0.1324  0.4636  3.2825
  113RES    H3447298   7.570   3.073   0.210 -0.9319  1.5266  1.3280
  113RES    H3547299   7.348   3.124   0.107  0.9547  1.1164 -1.0965
  113RES    H3647300   7.287   2.965   0.131  0.4048  0.0091  0.2260
  113RES    H3747301   7.473   2.867   7.702 -0.3104  0.2099  0.4358
  113RES    H3847302   7.524   3.026   7.674  0.3549  1.3851  0.3549
  113RES    H3947303   7.315   3.085   7.551  2.4497  1.1632  1.4802
  113RES    H4047304   7.245   2.934   7.598 -0.7451 -0.7231 -2.9912
  113RES    H4147305   7.399   2.803   7.466  0.3334 -1.1284 -3.0070
  113RES    H4247306   7.348   2.931   7.361  0.3901  0.3336 -0.0592
  113RES    H4347307   7.500   2.954   7.428 -0.5006  0.7025  0.5589
  113RES    C4447308   7.310   2.922   0.396 -0.4746  0.1454  0.2947
  113RES    C4547309   7.288   2.892   0.547  0.6266 -0.0659  0.0045
  113RES    C4647310   7.148   2.840   0.573  0.6979  0.2602  0.3717
  113RES    C4747311   7.118   2.705   0.501  0.3313 -0.4549  0.0516
  113RES    C4847312   6.972   2.678   0.457  0.3891  0.0835  0.8365
  113RES    C4947313   6.962   2.551   0.381 -0.4485  0.1196  0.6131
  113RES    C5047314   6.839   2.512   0.303  0.0326 -0.4654  0.1382
  113RES    H5147315   7.337   2.831   0.344 -1.3843 -0.4480  0.8371
  113RES    H5247316   7.220   2.960   0.348  0.1696  1.4939  0.1299
  113RES    H5347317   7.302   2.985   0.603  1.9165  0.1452 -0.6519
  113RES    H5447318   7.070   2.912   0.548 -2.0634 -2.7330  0.1109
  113RES    H5547319   7.133   2.830   0.681  1.2417 -1.0438  0.3291
  113RES    H5647320   7.186   2.681   0.419  0.1935 -2.8443  0.6019
  113RES    H5747321   7.150   2.630   0.573  2.6743  1.2303  0.8080
  113RES    H5847322   6.930   2.763   0.404 -1.3907 -1.9921 -1.2037
  113RES    H5947323   6.907   2.664   0.544 -1.7556  0.5131 -0.6471
  113RES    H6047324   6.979   2.475   0.457 -3.6164  0.4327  1.7056
  113RES    H6147325   7.049   2.552   0.315 -0.5180 -1.1756  0.5047
  113RES    H6247326   6.750   2.517   0.367 -0.6701  1.6124 -0.9652
  113RES    H6347327   6.842   2.408   0.270 -0.6669 -0.3981 -0.1440
  113RES    H6447328   6.827   2.581   0.219  0.5075  0.8894  1.1725
  113RES    C6547329   7.392   2.803   0.620  0.1212 -0.1194 -0.2061
  113RES    C6647330   7.408   2.823   0.772 -0.4644 -0.7235 -0.4823
  113RES    C6747331   7.489   2.954   0.821 -0.0799 -0.1382 -0.4967
  113RES    C6847332   7.646   2.961   0.803 -0.0546 -0.4399  0.7169
  113RES    C6947333   7.702   3.100   0.853  0.4322  0.2871 -0.3982
  113RES    C7047334   0.127   3.100   0.834 -0.4746  0.7206  0.5404
  113RES    C7147335   0.175   3.120   0.688 -0.2695 -0.5559  0.3678
  113RES    H7247336   7.371   2.699   0.595  0.1333  0.1018 -1.1500
  113RES    H7347337   7.485   2.831   0.570 -0.6142  0.2363 -1.4018
  113RES    H7447338   7.311   2.838   0.820 -0.6390 -2.4661 -0.2532
  113RES    H7547339   7.453   3.036   0.758  2.1381  0.5052 -0.9923
  113RES    H7647340   7.461   2.982   0.922  1.6770  0.3221 -0.1175
  113RES    H7747341   7.697   2.887   0.865 -0.4909 -1.0865  0.3087
  113RES    H7847342   7.684   2.933   0.704 -0.7229 -2.9815  1.1442
  113RES    H7947343   7.663   3.188   0.802  2.5152  1.8241  0.5535
  113RES    H8047344   7.676   3.126   0.956 -0.3641 -0.6885 -0.3495
  113RES    H8147345   0.174   3.007   0.864 -2.3814 -0.0267  1.2822
  113RES    H8247346   0.190   3.171   0.889  0.1029 -0.7653  1.8320
  113RES    H8347347   0.283   3.123   0.679 -0.3538 -1.3661 -1.0167
  113RES    H8447348   0.143   3.033   0.631 -0.2435  0.9520 -1.9839
  113RES    H8547349   0.131   3.210   0.645  0.7595  0.7613  1.9752
  113RES    C8647350   7.469   2.691   0.837  0.1523  0.1854 -0.5443
  113RES    C8747351   7.443   2.668   0.988  1.3082 -0.1515 -0.5443
  113RES    C8847352   7.293   2.613   0.991  0.2524  0.5929 -0.5253
  113RES    C8947353   7.265   2.475   0.938  0.1844  0.4954  0.0050
  113RES    C9047354   7.122   2.443   0.907 -0.3898  0.0058  0.1200
  113RES    C9147355   7.099   2.315   0.834  0.2531  0.2250  0.2153
  113RES    C9247356   6.948   2.297   0.813 -0.5683  0.3068  0.2554
  113RES    H9347357   7.440   2.602   0.781  2.3686 -0.8592 -0.1322
  113RES    H9447358   7.576   2.690   0.815 -0.1618 -0.2248 -2.0972
  113RES    H9547359   7.450   2.761   1.044  1.0287 -1.3456  1.5248
  113RES    H9647360   7.271   2.624   1.097  0.9933 -0.1094 -0.2888
  113RES    H9747361   7.229   2.681   0.936  0.3768  0.2833 -1.0517
  113RES    H9847362   7.318   2.471   0.843  0.6805 -1.5811  0.3580
  113RES    H9947363   7.312   2.398   0.998 -0.1853 -1.6384 -2.3426
  113RES   H10047364   7.072   2.522   0.850  2.9803  2.8170  0.8428
  113RES   H10147365   7.071   2.445   1.003 -0.1170 -1.6535  0.3126
  113RES   H10247366   7.154   2.309   0.740  0.5162  1.4618  0.2767
  113RES   H10347367   7.148   2.230   0.882 -1.3586  0.0023  1.4835
  113RES   H10447368   6.928   2.194   0.782  0.5666  0.3610 -0.6559
  113RES   H10547369   6.913   2.365   0.736  0.4248 -0.3710 -0.8153
  113RES   H10647370   6.888   2.309   0.904  2.6632 -0.8313  2.6461
  113RES   C10747371   7.534   2.571   1.060 -0.1124  0.3302 -0.7980
  113RES   C10847372   7.671   2.627   1.103 -0.1746  0.2286 -0.2772
  113RES   C10947373   7.681   2.682   1.246  0.1227  0.2123  0.1859
  113RES   C11047374   7.619   2.815   1.276  0.1734  0.0348  0.4981
  113RES   C11147375   7.617   2.833   1.431  0.3020 -0.4762 -0.1414
  113RES   C11247376   7.525   2.946   1.477 -0.3575  0.3899  0.2890
  113RES   C11347377   7.548   2.989   1.622 -0.2199  0.4502  0.2973
  113RES   H11447378   7.549   2.482   0.999  1.2185 -0.3175  0.4767
  113RES   H11547379   7.472   2.543   1.145 -0.1804  2.4855 -0.0971
  113RES   H11647380   7.696   2.709   1.035  0.0729 -0.9026 -1.5659
  113RES   H11747381   0.058   2.682   1.280 -0.3335  0.9482  1.5894
  113RES   H11847382   7.634   2.607   1.310 -2.2723  1.7771  0.3226
  113RES   H11947383   7.673   2.895   1.226  1.2832 -1.6211 -1.0157
  113RES   H12047384   7.515   2.802   1.246 -0.0460  1.9370  0.3480
  113RES   H12147385   7.716   2.838   1.476  0.1791 -0.0215  0.0823
  113RES   H12247386   7.581   2.737   1.468  0.1579 -1.0360 -1.6894
  113RES   H12347387   7.530   3.034   1.413  2.1376  0.5273  0.6318
  113RES   H12447388   7.420   2.915   1.473  0.6164 -3.4157  2.3994
  113RES   H12547389   7.547   2.906   1.692  0.1293 -0.2284 -0.4867
  113RES   H12647390   7.641   3.046   1.627  0.2261 -0.1386 -1.2226
  113RES   H12747391   7.464   3.046   1.662 -0.5842 -0.3679  0.6868
  113RES   C12847392   0.053   2.518   1.081 -0.0965  0.1620 -0.2587
  113RES   C12947393   0.202   2.565   1.068 -0.2770 -0.4874  0.5932
  113RES   C13047394   0.227   2.652   0.939  0.3188  0.0227  0.1066
  113RES   C13147395   0.187   2.589   0.800 -0.1671 -0.1237 -0.0792
  113RES   C13247396   0.195   2.678   0.675 -0.4603 -0.6050  0.2965
  113RES   C13347397   0.329   2.744   0.650 -0.4871  0.3234  0.5458
  113RES   C13447398   0.332   2.834   0.519  0.5520 -1.4401 -0.4256
  113RES   H13547399   0.040   2.458   1.171 -0.5479  0.1655 -0.3211
  113RES   H13647400   0.032   2.456   0.993 -0.1259 -0.4721  0.1921
  113RES   H13747401   0.236   2.625   1.152 -0.1477 -3.0375  2.4291
  113RES   H13847402   0.330   2.683   0.923 -0.3557  1.0518 -2.5160
  113RES   H13947403   0.162   2.739   0.949  0.4262  0.2293 -0.9124
  113RES   H14047404   0.095   2.532   0.794  1.8323 -3.3412 -1.7885
  113RES   H14147405   0.258   2.508   0.785  1.9449  1.5288  0.7516
  113RES   H14247406   0.121   2.755   0.696  0.8689  0.9074 -0.4731
  113RES   H14347407   0.176   2.633   0.578 -0.6569 -0.0554  0.0805
  113RES   H14447408   0.402   2.664   0.634 -1.1566  0.2304 -2.3287
  113RES   H14547409   0.358   2.794   0.742 -0.3003  0.4852  0.4005
  113RES   H14647410   0.370   2.774   0.437  0.0790 -3.4939  0.8054
  113RES   H14747411   0.405   2.914   0.527  0.7116 -1.5492 -0.7763
  113RES   H14847412   0.240   2.884   0.489  0.5371 -1.0212  0.2990
  113RES   C14947413   0.297   2.442   1.069  0.1849 -0.0592 -0.4061
  113RES   C15047414   0.366   2.407   1.206 -0.2620 -0.0543  0.0422
  113RES   C15147415   0.480   2.307   1.179 -0.0239 -0.0433 -0.0302
  113RES   C15247416   0.439   2.162   1.154 -0.9474 -0.1314 -0.5055
  113RES   C15347417   0.539   2.078   1.073 -0.4900 -1.1498  0.3303
  113RES   C15447418   0.688   2.100   1.100  0.1264 -1.3901  0.1403
  113RES   C15547419   0.772   2.000   1.015  0.8440 -0.9636  0.2564
  113RES   H15647420   0.244   2.367   1.011 -0.2082 -0.0000 -0.1268
  113RES   H15747421   0.377   2.473   1.002  1.5097 -2.3009  0.0790
  113RES   H15847422   0.410   2.502   1.233  0.5667 -0.4623  0.1502
  113RES   H15947423   0.534   2.357   1.098 -1.1726 -1.5333 -1.7407
  113RES   H16047424   0.551   2.302   1.262  0.8817 -0.7858 -0.8352
  113RES   H16147425   0.348   2.153   1.095 -0.1202 -0.2365 -1.7715
  113RES   H16247426   0.410   2.111   1.246  0.1572  0.0596 -0.0392
  113RES   H16347427   0.526   2.096   0.966  1.0116  2.0765  0.6116
  113RES   H16447428   0.507   1.974   1.079 -2.7393 -0.6980 -3.0061
  113RES   H16547429   0.698   2.082   1.207  0.3417  2.8794  0.9501
  113RES   H16647430   0.717   2.204   1.087 -2.1242 -1.1346 -3.3739
  113RES   H16747431   0.762   2.033   0.912 -0.1578 -2.2141 -0.0516
  113RES   H16847432   0.737   1.898   1.032 -1.9059 -0.0088  0.6152
  113RES   H16947433   0.880   2.018   1.017  0.6255  1.1318 -3.0373
  113RES   C17047434   0.267   2.356   1.315  0.0637 -0.5910 -0.3364
  113RES   C17147435   0.318   2.356   1.463  0.1165  0.2874 -0.1573
  113RES   C17247436   0.362   2.497   1.508 -0.1632 -0.4239 -0.3281
  113RES   C17347437   0.244   2.592   1.534 -0.1690  0.3710 -0.2219
  113RES   C17447438   0.276   2.723   1.617  0.4306 -0.3175 -0.6145
  113RES   C17547439   0.386   2.810   1.553 -0.2814 -0.2387  0.1958
  113RES   C17647440   0.521   2.784   1.616 -0.2594 -0.6233 -0.1376
  113RES   H17747441   0.215   2.263   1.293 -1.7833  0.4376 -0.4245
  113RES   H17847442   0.189   2.432   1.320  1.0543  0.4113  0.3194
  113RES   H17947443   0.411   2.300   1.450  1.4152  1.3351  3.6738
  113RES   H18047444   0.428   2.538   1.432  1.5457  0.0352  1.3698
  113RES   H18147445   0.420   2.467   1.595 -1.1862 -0.0285  0.5064
  113RES   H18247446   0.171   2.534   1.589  1.3256 -2.4262 -1.0927
  113RES   H18347447   0.195   2.623   1.441  0.8798 -0.5026 -1.0718
  113RES   H18447448   0.308   2.690   1.716 -1.1469 -3.2516 -1.0190
  113RES   H18547449   0.182   2.779   1.613  0.7396  0.3428  1.1576
  113RES   H18647450   0.352   2.911   1.578  2.5236  0.5069  1.1396
  113RES   H18747451   0.393   2.793   1.446  1.0532  0.9096  0.0831
  113RES   H18847452   0.507   2.791   1.724 -0.0882  1.2646 -0.2355
  113RES   H18947453   0.593   2.860   1.586 -0.2050 -1.4802 -2.2900
  113RES   H19047454   0.573   2.694   1.581  0.3492  0.8248 -3.0817
  113RES   C19147455   0.231   2.285   1.574  0.0320  0.1999 -0.3132
  113RES   C19247456   0.233   2.129   1.578 -0.0029 -0.2091  0.1275
  113RES   C19347457   0.142   2.056   1.474 -0.4580  0.4471  0.2149
  113RES   C19447458   0.083   1.923   1.519 -0.9199 -0.2489  0.0422
  113RES   C19547459   7.656   1.925   1.527 -0.2198  0.4183  0.1081
  113RES   C19647460   7.617   1.781   1.576  0.0166 -0.5829  0.1649
  113RES   C19747461   7.642   1.760   1.728  0.0983  0.2319 -0.0746
  113RES   H19847462   0.127   2.310   1.555  0.2903  2.8015  1.4417
  113RES   H19947463   0.244   2.322   1.676  0.3306  0.5111 -0.4635
  113RES   H20047464   0.187   2.099   1.673 -0.1555  1.2003  0.5000
  113RES   H20147465   0.219   2.039   1.398  0.9509  0.9374  1.4924
  113RES   H20247466   0.062   2.105   1.420 -1.4923  0.7978  2.0251
  113RES   H20347467   0.131   1.890   1.611 -0.8274 -1.7001 -0.5143
  113RES   H20447468   0.108   1.857   1.437  2.1459  1.7661 -0.7261
  113RES   H20547469   7.608   1.996   1.593 -1.0452  0.1358 -0.1756
  113RES   H20647470   7.607   1.930   1.430 -1.7321 -1.5462  0.7302
  113RES   H20747471   7.681   1.717   1.515 -0.7732  0.7351 -2.1245
  113RES   H20847472   7.512   1.755   1.562  0.1823 -2.9777  2.9928
  113RES   H20947473   7.562   1.794   1.794  0.4945  0.1413  0.4513
  113RES   H21047474   0.009   1.803   1.763 -1.4102  1.9927  1.9231
  113RES   H21147475   7.649   1.651   1.733  1.2679  0.1633 -2.3992
  113RES   C21247476   0.378   2.066   1.585 -0.0909 -0.4529 -1.0044
  113RES   C21347477   0.454   2.060   1.720  0.1377  0.4745 -0.0022
  113RES   C21447478   0.509   2.195   1.769 -0.7305 -0.3102 -0.0143
  113RES   C21547479   0.619   2.253   1.673 -0.1419 -0.3707  0.8540
  113RES   C21647480   0.674   2.385   1.725 -0.6358  0.4875 -0.0806
  113RES   C21747481   0.791   2.459   1.646  0.1415 -0.2517 -0.9976
  113RES   C21847482   0.763   2.483   1.504  0.4176  0.2831 -0.5257
  113RES   H21947483   0.452   2.103   1.515 -3.1121  3.5946 -2.1755
  113RES   H22047484   0.360   1.962   1.558  0.0320 -0.8557  0.3818
  113RES   H22147485   0.547   2.008   1.695  1.0093  2.4703 -1.0113
  113RES   H22247486   0.427   2.267   1.773  0.8379  1.4712  0.7294
  113RES   H22347487   0.544   2.196   1.872  1.3838 -0.1314 -0.7112
  113RES   H22447488   0.584   2.257   1.570 -0.9666  0.0174  1.1452
  113RES   H22547489   0.691   2.171   1.676 -1.6536 -1.8643 -1.8550
  113RES   H22647490   0.589   2.447   1.753 -0.3864  2.3744 -3.3483
  113RES   H22747491   0.719   2.352   1.819  0.7319  0.5149 -0.7102
  113RES   H22847492   0.812   2.558   1.687 -2.3256  0.1531 -0.6812
  113RES   H22947493   0.886   2.406   1.651  0.5830  0.6475  0.4209
  113RES   H23047494   0.739   2.397   1.442  1.3247  0.5690 -1.2946
  113RES   H23147495   0.836   2.541   1.447  1.2539 -1.3919 -1.2091
  113RES   H23247496   0.667   2.533   1.497  0.9886  1.2603 -1.7867
  113RES   C23347497   0.371   1.973   1.824  0.1377  0.9081 -1.0991
  113RES   C23447498   0.448   1.914   1.937  0.4829  0.0103 -0.6020
  113RES   C23547499   0.353   1.870   2.053  0.2927 -0.1035  0.0131
  113RES   C23647500   0.227   1.785   2.017 -0.2933 -0.0744 -0.1164
  113RES   C23747501   0.147   1.749   2.140 -0.2522 -0.0715  0.1870
  113RES   C23847502   0.040   1.632   2.130  0.1532 -0.2173 -0.2955
  113RES   C23947503   7.693   1.615   2.266  0.6083  0.0083 -0.3990
  113RES   H24047504   0.329   1.881   1.783  1.0416 -1.2278  2.5643
  113RES   H24147505   0.287   2.027   1.868  0.8759  1.4216 -0.3380
  113RES   H24247506   0.502   1.995   1.984 -0.3534  0.8773 -1.1138
  113RES   H24347507   0.314   1.964   2.093 -0.8956 -0.9283  0.8191
  113RES   H24447508   0.407   1.829   2.139 -0.9496 -1.8883 -0.0206
  113RES   H24547509   0.268   1.689   1.985  1.2634  1.3983 -2.7690
  113RES   H24647510   0.159   1.833   1.947 -3.7313 -0.6429  2.6970
  113RES   H24747511   0.097   1.837   2.180 -2.2087 -0.0045 -2.2973
  113RES   H24847512   0.224   1.722   2.213 -0.1554 -0.9327 -0.2303
  113RES   H24947513   7.691   1.655   2.055 -2.1211  0.1412  2.0517
  113RES   H25047514   0.083   1.538   2.094 -0.6186 -0.2070 -1.2637
  113RES   H25147515   7.638   1.703   2.300 -1.8785 -1.1435 -1.2905
  113RES   H25247516   7.607   1.549   2.256  2.0976 -1.8734 -1.1213
  113RES   H25347517   0.031   1.593   2.351  1.9396  0.5619 -1.2528
  113RES   C25447518   0.538   1.803   1.887 -0.1673  0.1733  0.1556
  113RES   C25547519   0.635   1.753   1.990  0.1104 -0.0461  0.3804
  113RES   C25647520   0.744   1.857   2.024  0.2604 -0.1234 -0.4771
  113RES   C25747521   0.808   1.818   2.157 -0.7137  0.2653  0.3130
  113RES   C25847522   0.929   1.906   2.186 -0.0302 -0.5494 -0.5033
  113RES   C25947523   1.025   1.834   2.274  0.1929 -0.0090  0.1965
  113RES   C26047524   1.128   1.931   2.311  0.4752  0.0080  0.0783
  113RES   H26147525   0.587   1.835   1.795 -0.5227 -2.0096 -0.8198
  113RES   H26247526   0.476   1.721   1.852  0.3227  0.2220 -0.8532
  113RES   H26347527   0.591   1.713   2.081 -2.3252 -1.4126 -1.3617
  113RES   H26447528   0.713   1.961   2.033  1.0651  0.1542 -0.8686
  113RES   H26547529   0.813   1.865   1.940  1.1614  2.9145  0.4956
  113RES   H26647530   0.737   1.837   2.237 -0.5395  1.6419  0.1625
  113RES   H26747531   0.818   1.710   2.159 -1.9779  0.1384 -0.0823
  113RES   H26847532   0.895   2.000   2.231  2.5025  1.1433 -1.9707
  113RES   H26947533   0.985   1.937   2.098 -0.6248  1.9857 -0.0291
  113RES   H27047534   0.977   1.784   2.358 -0.2393  0.9602  0.5381
  113RES   H27147535   1.065   1.753   2.213  0.0201 -0.0287  0.1093
  113RES   H27247536   1.092   2.020   2.362  0.3020  0.2653 -0.4801
  113RES   H27347537   1.190   1.871   2.377 -0.7028  0.5319  1.6804
  113RES   H27447538   1.180   1.961   2.220  1.6482  2.8524  1.6155
  113RES   C27547539   0.691   1.615   1.946  0.1983  0.0484  0.3129
  113RES   C27647540   0.611   1.492   1.978 -0.7925 -0.0210 -0.4578
  113RES   C27747541   0.608   1.445   2.127  0.0864 -0.5810 -0.4473
  113RES   C27847542   0.512   1.327   2.149 -0.0614 -0.6064  0.2782
  113RES   C27947543   0.433   1.345   2.281 -0.3338 -0.3418 -0.0091
  113RES   C28047544   0.323   1.239   2.311 -0.3836 -0.0486 -0.0476
  113RES   C28147545   0.203   1.243   2.211  0.3011 -0.8257  0.1701
  113RES   H28247546   0.793   1.600   1.978  0.1887  2.0009  1.3598
  113RES   H28347547   0.707   1.617   1.838 -1.9462  1.3271 -0.0263
  113RES   H28447548   0.504   1.514   1.971 -1.2327 -2.2947 -1.1743
  113RES   H28547549   0.711   1.423   2.153  0.1041  1.7091  1.6055
  113RES   H28647550   0.585   1.528   2.194  1.2466  0.0672 -0.8334
  113RES   H28747551   0.559   1.230   2.146 -1.8269 -1.5240  1.1486
  113RES   H28847552   0.436   1.327   2.071 -0.5251  1.7643  0.6779
  113RES   H28947553   0.389   1.445   2.278  0.0270 -0.2025 -0.8199
  113RES   H29047554   0.501   1.348   2.366  0.1066 -0.0719 -0.3690
  113RES   H29147555   0.381   1.149   2.331  0.1738  0.5351  1.0203
  113RES   H29247556   0.284   1.250   2.412  2.0649  0.3749  0.8914
  113RES   H29347557   0.228   1.236   2.105  0.1741  0.8953  0.0178
  113RES   H29447558   0.153   1.340   2.215 -0.8336 -1.2165 -3.0676
  113RES   H29547559   0.131   1.165   2.235  0.4124 -1.8742 -2.6936
  113RES   C29647560   0.664   1.372   1.891 -0.4360  0.1512 -0.4968
  113RES   C29747561   0.621   1.387   1.741  0.3036  0.1234 -0.5003
  113RES   C29847562   0.465   1.374   1.723  0.2800  0.0240 -0.1191
  113RES   C29947563   0.404   1.234   1.737 -0.5582 -0.3019  0.1418
  113RES   C30047564   0.257   1.227   1.700  0.1093 -0.2915 -0.6797
  113RES   C30147565   0.168   1.320   1.780 -0.2206  0.1040  0.1505
  113RES   C30247566   0.026   1.290   1.741  0.2625  0.5472 -0.6296
  113RES   H30347567   0.772   1.359   1.899 -0.5909 -1.2398 -0.6355
  113RES   H30447568   0.623   1.278   1.926 -0.1847  0.6100  1.1019
  113RES   H30547569   0.639   1.488   1.705  0.1078 -0.1077 -1.2526
  113RES   H30647570   0.407   1.430   1.796 -1.1418 -0.3373 -0.9427
  113RES   H30747571   0.427   1.420   1.632 -0.0748  2.3249  1.1521
  113RES   H30847572   0.412   1.207   1.843 -0.2577 -3.0789 -0.5376
  113RES   H30947573   0.463   1.159   1.685  0.6225  0.6571  0.0829
  113RES   H31047574   0.225   1.125   1.717  1.7551 -0.6019  0.7338
  113RES   H31147575   0.237   1.250   1.595  0.0975  1.4851 -0.3096
  113RES   H31247576   0.182   1.307   1.888  0.8659 -1.9258 -0.2159
  113RES   H31347577   0.187   1.425   1.757 -1.0397  0.2124 -0.0406
  113RES   H31447578   0.011   1.188   1.777 -0.9462  0.8296 -0.2977
  113RES   H31547579   7.676   1.346   1.795  0.8414  0.2085  0.5615
  113RES   H31647580   0.009   1.272   1.635 -0.9663 -2.0741 -0.0486
  113RES   C31747581   0.690   1.283   1.658  0.1824  0.1064  0.3033
  113RES   C31847582   0.834   1.300   1.622 -0.5282 -0.1055 -1.0107
  113RES   C31947583   0.892   1.173   1.554 -0.5989  0.5283  0.5797
  113RES   C32047584   0.930   1.052   1.641  0.1304  0.2973 -0.1753
  113RES   C32147585   0.988   0.940   1.556 -0.0832  0.1940 -0.4619
  113RES   C32247586   1.057   0.842   1.652 -0.4175  0.0293  0.3664
  113RES   C32347587   1.127   0.719   1.579  0.2838 -0.0322  0.6177
  113RES   H32447588   0.644   1.277   1.559 -0.1617 -3.1827  0.6025
  113RES   H32547589   0.664   1.182   1.688  1.3837 -0.1174  0.5904
  113RES   H32647590   0.887   1.301   1.717 -0.9334 -1.8057 -0.7655
  113RES   H32747591   0.987   1.198   1.506 -1.2899 -0.0252 -1.1289
  113RES   H32847592   0.828   1.135   1.474 -1.0705  0.4465  0.9902
  113RES   H32947593   0.834   1.025   1.684  0.7741 -1.0269  0.4677
  113RES   H33047594   0.992   1.074   1.728  0.9050 -1.2522 -0.3159
  113RES   H33147595   1.059   0.983   1.485 -0.6052  0.3369 -0.9011
  113RES   H33247596   0.911   0.891   1.497  0.7483  0.3671 -1.7029
  113RES   H33347597   0.990   0.825   1.736 -3.2277  2.9530 -1.1578
  113RES   H33447598   1.139   0.896   1.701  0.8000 -1.0219 -0.4874
  113RES   H33547599   1.181   0.759   1.493 -0.5518  1.0575  0.5808
  113RES   H33647600   1.039   0.660   1.553  0.0864 -0.2123  1.6494
  113RES   H33747601   1.183   0.664   1.654  1.4837  1.7861  1.0738
  113RES   C33847602   0.872   1.432   1.537 -0.4477  0.0869 -0.1710
  113RES   C33947603   1.006   1.489   1.576  0.2960  0.0670 -0.2007
  113RES   C34047604   0.998   1.574   1.708  0.3700  0.1945 -0.1785
  113RES   C34147605   1.129   1.577   1.793 -0.4683  0.1536  0.6579
  113RES   C34247606   1.116   1.631   1.938  0.3248  0.0706 -0.6767
  113RES   C34347607   1.247   1.617   2.017  0.9324  0.1837 -0.1408
  113RES   C34447608   1.340   1.723   1.965 -0.7778 -0.4757 -0.1119
  113RES   H34547609   0.797   1.507   1.561  0.4808  1.4906 -1.5824
  113RES   H34647610   0.875   1.408   1.430 -0.3522  2.6555 -0.7682
  113RES   H34747611   1.077   1.409   1.600 -0.2695  0.1967  2.0133
  113RES   H34847612   0.960   1.672   1.680 -0.5078 -0.1241 -0.1130
  113RES   H34947613   0.923   1.533   1.775  1.0287  0.3234  0.6431
  113RES   H35047614   1.197   1.637   1.733 -2.0440  0.7623 -0.5457
  113RES   H35147615   1.158   1.472   1.792  0.2588  0.3493 -1.9080
  113RES   H35247616   1.077   1.732   1.951  0.5800  0.0722  0.1492
  113RES   H35347617   1.033   1.581   1.988 -1.1689  3.5829  0.5492
  113RES   H35447618   1.218   1.642   2.119 -0.2179  0.6278 -0.5697
  113RES   H35547619   1.292   1.518   2.023  0.7860  0.1625  0.6735
  113RES   H35647620   1.373   1.696   1.865  3.9929 -0.1580  1.2644
  113RES   H35747621   1.422   1.719   2.036 -2.1057 -0.1627  1.4996
  113RES   H35847622   1.286   1.818   1.975  1.2232  0.8847 -2.0024
  113RES   C35947623   1.059   1.573   1.463 -0.3945  0.1867  0.4339
  113RES   C36047624   1.123   1.498   1.343  0.1104 -0.5053  0.5615
  113RES   C36147625   1.222   1.382   1.375 -0.2525  0.2957 -0.0256
  113RES   C36247626   1.341   1.437   1.463  0.3625  0.4404 -0.3328
  113RES   C36347627   1.441   1.332   1.520  0.2148  0.2723  0.3239
  113RES   C36447628   1.534   1.408   1.620 -0.7682  0.0410 -0.5047
  113RES   C36547629   1.602   1.315   1.716  0.3624  1.4126  0.2874
  113RES   H36647630   1.144   1.629   1.501 -0.1243  0.9848 -1.3059
  113RES   H36747631   0.991   1.651   1.429  1.0814  2.0296  1.6600
  113RES   H36847632   1.191   1.572   1.300 -0.7885  1.4544  2.3899
  113RES   H36947633   1.170   1.299   1.424 -0.1822 -0.2940 -0.9294
  113RES   H37047634   1.263   1.332   1.287 -1.0075 -0.0299 -0.1965
  113RES   H37147635   1.403   1.504   1.403  0.7881  0.4139  0.0731
  113RES   H37247636   1.298   1.492   1.547 -0.8358  0.3928 -0.9046
  113RES   H37347637   1.378   1.257   1.567  0.5900  0.7031  1.5342
  113RES   H37447638   1.494   1.288   1.435 -1.8087  0.2444 -0.9608
  113RES   H37547639   1.591   1.485   1.566 -0.9029 -0.7572 -1.8035
  113RES   H37647640   1.475   1.471   1.686  0.9545 -1.3229  2.4297
  113RES   H37747641   1.675   1.364   1.780 -1.4460  1.1605  2.6254
  113RES   H37847642   1.531   1.258   1.776  1.3210  0.0325  0.1281
  113RES   H37947643   1.645   1.225   1.672 -0.9499  0.3239  1.1723
  113RES   C38047644   1.032   1.464   1.232 -1.2956 -0.2074  0.4189
  113RES   C38147645   0.941   1.577   1.166 -0.1373 -0.1849 -0.3384
  113RES   C38247646   1.019   1.709   1.142 -0.7307  0.0226  0.0497
  113RES   C38347647   1.137   1.691   1.034 -0.1636 -0.0959 -0.4189
  113RES   C38447648   1.219   1.823   1.024  0.1067  0.6014 -0.0581
  113RES   C38547649   1.352   1.800   0.947 -0.3410  0.6652 -0.5946
  113RES   C38647650   1.440   1.920   0.951  0.3934  0.3801  0.4068
  113RES   H38747651   1.088   1.435   1.143 -0.1044 -0.5245  1.2559
  113RES   H38847652   0.971   1.375   1.252  0.9772 -1.9754 -0.2311
  113RES   H38947653   0.862   1.608   1.234 -0.9083  0.1500 -1.3809
  113RES   H39047654   1.070   1.754   1.227 -0.7066  3.3007 -1.6135
  113RES   H39147655   0.946   1.769   1.088 -1.7056 -2.3050 -1.2809
  113RES   H39247656   1.206   1.613   1.066  0.5493 -0.6148 -3.0908
  113RES   H39347657   1.111   1.640   0.941  1.2627  0.3649 -1.0864
  113RES   H39447658   1.164   1.900   0.968 -1.3341 -0.4469 -0.1119
  113RES   H39547659   1.239   1.860   1.125 -1.1480 -0.0377  0.4429
  113RES   H39647660   1.340   1.772   0.842  0.5377  0.4061 -0.6323
  113RES   H39747661   1.412   1.723   0.994 -0.5741  1.3096  0.7872
  113RES   H39847662   1.446   1.974   1.045  1.0477  1.0780 -0.0267
  113RES   H39947663   1.414   2.003   0.885 -2.7409  1.4593  2.8948
  113RES   H40047664   1.541   1.897   0.919 -0.7407 -1.3710 -2.1024
  113RES   C40147665   0.865   1.518   1.043  0.4088  0.0644 -0.5439
  113RES   C40247666   0.784   1.611   0.947  0.0865 -0.4964  0.4950
  113RES   C40347667   0.849   1.655   0.818 -0.4311 -0.1556 -0.1853
  113RES   C40447668   0.761   1.750   0.747 -0.4383 -0.2115 -0.3463
  113RES   C40547669   0.830   1.839   0.642 -0.1777 -0.9309 -0.2598
  113RES   C40647670   0.731   1.934   0.568  0.1785 -0.9457  0.3103
  113RES   C40747671   0.668   1.865   0.446 -0.9044  0.2574  0.6376
  113RES   H40847672   0.793   1.443   1.076 -0.6607  1.4463  0.2611
  113RES   H40947673   0.936   1.469   0.976  0.1608  0.2867 -0.9717
  113RES   H41047674   0.735   1.694   0.997 -3.2299 -1.9672 -0.1559
  113RES   H41147675   0.861   1.572   0.749 -0.8394  0.3044 -0.8199
  113RES   H41247676   0.947   1.695   0.845  0.2089 -1.7126 -0.1612
  113RES   H41347677   0.705   1.811   0.818 -0.6920 -0.2711 -0.4934
  113RES   H41447678   0.685   1.710   0.680  0.2584  1.4460 -2.2065
  113RES   H41547679   0.897   1.902   0.701  1.0237 -3.2064  0.8649
  113RES   H41647680   0.896   1.786   0.574  0.3695 -0.7523  0.1261
  113RES   H41747681   0.660   1.976   0.638 -0.5431 -1.0188 -0.3716
  113RES   H41847682   0.792   2.015   0.527 -0.6921 -0.3493  0.1780
  113RES   H41947683   0.621   1.938   0.380 -0.1827 -0.2435 -0.4372
  113RES   H42047684   0.600   1.784   0.474  1.4834 -2.5157 -1.2614
  113RES   H42147685   0.754   1.824   0.392  0.8064  1.5521  2.3173
  113RES   H42247686   0.703   1.545   0.917 -0.6266 -0.2092  1.7737
  114RES     C147687   2.107   7.524   3.545  0.6546 -0.1619 -0.5304
  114RES     C247688   2.171   7.529   3.682  0.2233 -0.2236 -0.4815
  114RES     C347689   2.235   7.669   3.705 -0.0541  0.3956 -0.2360
  114RES     C447690   2.341   7.714   3.605  0.2793 -1.0230  0.1928
  114RES     C547691   2.418   0.111   3.653 -0.5859  0.0908  1.1599
  114RES     C647692   2.486   0.188   3.534 -0.3640  0.0982 -0.1146
  114RES     C747693   2.564   0.318   3.577 -0.5618 -0.3234  0.1902
  114RES     H847694   2.176   7.517   3.461  0.9142 -1.1117 -0.2456
  114RES     H947695   2.049   7.613   3.521  1.4379  1.2111  2.3800
  114RES    H1047696   2.083   7.527   3.747 -1.1464  1.9012 -2.1580
  114RES    H1147697   2.160   0.021   3.706 -0.3876  0.0693  1.2393
  114RES    H1247698   2.269   7.661   3.808  1.8231  0.4904 -0.8231
  114RES    H1347699   2.415   7.634   3.592  0.1134 -0.8395 -2.0228
  114RES    H1447700   2.302   0.004   3.505  0.0534 -0.7373  0.3310
  114RES    H1547701   2.492   0.095   3.731 -0.3333 -0.0277  0.8933
  114RES    H1647702   2.343   0.184   3.685 -0.9397  1.2107 -1.9953
  114RES    H1747703   2.414   0.214   3.456  0.3033 -0.2417 -0.8454
  114RES    H1847704   2.559   0.121   3.489 -0.8700 -0.1779 -0.5388
  114RES    H1947705   2.487   0.386   3.613  1.8699  3.3215 -1.2678
  114RES    H2047706   2.629   0.350   3.496 -2.0137  0.4656 -0.6987
  114RES    H2147707   2.624   0.289   3.663 -2.4518 -0.1391  1.6260
  114RES    H2247708   2.049   7.432   3.540  1.5458 -0.7108 -0.9668
  114RES    C2347709   2.260   7.412   3.730 -0.3486 -0.0144  0.2455
  114RES    C2447710   2.189   7.275   3.746  0.2206  0.6401 -0.4755
  114RES    C2547711   2.068   7.276   3.848  0.3480  0.2846  0.5970
  114RES    C2647712   2.100   7.331   3.988 -0.6290  0.4191 -0.2274
  114RES    C2747713   1.985   7.326   4.094 -0.5561  0.5347 -0.4241
  114RES    C2847714   1.874   7.431   4.061 -0.0812 -0.0710 -0.3854
  114RES    C2947715   1.743   7.405   4.139 -0.7991  0.3597 -0.4499
  114RES    H3047716   2.345   7.402   3.663  0.9404 -1.1124  2.0151
  114RES    H3147717   2.300   7.430   3.830  0.5308 -0.1189 -0.0845
  114RES    H3247718   2.145   7.248   3.650  1.0829  0.2952 -0.7761
  114RES    H3347719   2.028   7.175   3.853  0.5312  0.2573  1.5142
  114RES    H3447720   1.989   7.340   3.809  0.7837  1.2890  1.3335
  114RES    H3547721   2.136   7.433   3.979  0.2904  0.0842 -0.3776
  114RES    H3647722   2.184   7.274   4.027  0.8527  2.6732 -0.0276
  114RES    H3747723   2.022   7.365   4.189 -3.3417  1.9251  0.1473
  114RES    H3847724   1.955   7.223   4.112  1.3367  0.4125  2.3117
  114RES    H3947725   1.852   7.436   3.954  1.3812 -1.8228 -0.8042
  114RES    H4047726   1.909   7.533   4.076  2.0085 -0.8395  0.0993
  114RES    H4147727   1.783   7.397   4.240  0.1169 -1.0300 -0.9043
  114RES    H4247728   1.674   7.489   4.136 -0.4699  0.6240 -0.7385
  114RES    H4347729   1.704   7.308   4.107  0.9232 -0.5244  0.0827
  114RES    C4447730   2.296   7.163   3.770  0.2355 -0.3586  0.2632
  114RES    C4547731   2.260   7.010   3.728  0.0535  0.0315  0.5107
  114RES    C4647732   2.252   6.984   3.571  0.4945 -0.2371  0.1253
  114RES    C4747733   2.382   6.990   3.492  0.6543  0.3270  0.1595
  114RES    C4847734   2.369   6.984   3.336  0.1336 -0.5322  0.4448
  114RES    C4947735   2.486   7.054   3.263  0.3003  0.7956 -0.6539
  114RES    C5047736   2.506   7.007   3.122 -0.3830 -0.4693 -0.1151
  114RES    H5147737   2.321   7.168   3.876 -1.0532  0.2151  0.5606
  114RES    H5247738   2.388   7.188   3.718 -0.0214  1.8447  0.7992
  114RES    H5347739   2.160   6.994   3.769 -0.9018  1.1578 -1.3261
  114RES    H5447740   2.185   7.059   3.528 -0.0147  1.4027  3.6533
  114RES    H5547741   2.209   6.886   3.552 -0.5407  0.4902 -1.4294
  114RES    H5647742   2.441   7.073   3.530 -0.6676  1.8802 -1.1112
  114RES    H5747743   2.445   6.905   3.519 -1.1171 -2.4688 -4.0763
  114RES    H5847744   2.279   7.031   3.297 -0.4661 -1.9213  0.1508
  114RES    H5947745   2.353   6.880   3.310 -0.0624 -0.7268  1.3170
  114RES    H6047746   2.577   7.036   3.320 -0.3259  2.0359  0.7625
  114RES    H6147747   2.473   7.162   3.263 -1.2688  0.6445  2.2315
  114RES    H6247748   2.426   7.047   3.061  0.6903  0.9776 -0.6090
  114RES    H6347749   2.507   6.899   3.109 -0.6471 -0.3694 -1.0183
  114RES    H6447750   2.607   7.041   3.099  0.0072  1.6834  4.2382
  114RES    C6547751   2.362   6.909   3.782 -0.5403  0.6024 -0.1714
  114RES    C6647752   2.353   6.874   3.934  0.4548 -0.0448  0.2825
  114RES    C6747753   2.489   6.812   3.978 -0.4748 -0.9276 -0.1869
  114RES    C6847754   2.534   6.682   3.908 -0.8227  0.3800  0.0005
  114RES    C6947755   2.657   6.605   3.977 -0.8068 -0.1123  0.3369
  114RES    C7047756   2.661   6.461   3.934  0.2392  0.1902  0.5434
  114RES    C7147757   2.665   6.432   3.782 -0.0121 -0.5983  0.9065
  114RES    H7247758   2.350   6.816   3.727 -1.7295  0.0553  0.9747
  114RES    H7347759   2.458   6.955   3.759  0.1607 -0.9144 -0.3250
  114RES    H7447760   2.344   6.972   3.982  0.4721 -0.2565  0.7169
  114RES    H7547761   2.567   6.888   3.973 -1.5579  0.2482  0.4287
  114RES    H7647762   2.475   6.788   4.083 -0.4179  0.3655  0.1226
  114RES    H7747763   2.452   6.611   3.907 -2.1486  1.8817 -1.4232
  114RES    H7847764   2.570   6.701   3.807  0.3687 -0.8196  0.1783
  114RES    H7947765   2.748   6.662   3.955 -0.6319 -0.6046 -0.2272
  114RES    H8047766   2.644   6.616   4.085  0.1236 -0.8417  0.5313
  114RES    H8147767   2.589   6.397   3.986  0.3565 -1.8676 -1.7366
  114RES    H8247768   2.754   6.432   3.983 -0.0239  0.4439  1.2032
  114RES    H8347769   2.683   6.328   3.758  1.1927 -0.0436 -0.7302
  114RES    H8447770   2.575   6.460   3.726  1.1777 -0.2118 -0.8538
  114RES    H8547771   2.754   6.480   3.742 -0.4989 -0.0059  0.5145
  114RES    C8647772   2.229   6.785   3.968  0.2733 -0.3334 -0.3928
  114RES    C8747773   2.197   6.751   4.119  0.7116  0.3224  0.1179
  114RES    C8847774   2.109   6.866   4.182 -0.0360  0.6064 -0.5251
  114RES    C8947775   2.107   6.877   4.336  0.5788 -0.2907 -0.1208
  114RES    C9047776   2.003   6.979   4.382 -0.1225 -0.2163  0.3449
  114RES    C9147777   1.853   6.974   4.332  0.1089 -0.1301 -0.1748
  114RES    C9247778   1.774   7.096   4.368 -0.0624  0.3650  0.0747
  114RES    H9347779   2.140   6.827   3.921  1.9465  2.0352 -1.5554
  114RES    H9447780   2.230   6.689   3.916 -0.8155  0.9501 -2.8633
  114RES    H9547781   2.288   6.754   4.179  0.9200  0.9879 -0.2224
  114RES    H9647782   2.140   6.966   4.152 -2.3333  1.8821  1.1430
  114RES    H9747783   2.011   6.854   4.135  0.2087 -1.2446 -0.5977
  114RES    H9847784   2.085   6.783   4.386  2.5066 -1.0962 -0.7318
  114RES    H9947785   2.201   6.901   4.387  0.2778  2.2064 -0.6766
  114RES   H10047786   2.042   7.079   4.365 -2.1333  0.3112 -1.3163
  114RES   H10147787   2.005   6.970   4.491  1.3896  3.1618  0.6578
  114RES   H10247788   1.866   6.969   4.224  0.0468 -1.3721 -0.1329
  114RES   H10347789   1.809   6.883   4.374 -0.7958  0.1290 -0.5394
  114RES   H10447790   1.814   7.184   4.317  1.1474  0.2061  0.7327
  114RES   H10547791   1.774   7.117   4.475 -0.3261 -0.8594  0.3119
  114RES   H10647792   1.674   7.091   4.325 -0.0097  3.0139 -0.4406
  114RES   C10747793   2.121   6.608   4.141 -0.2633  0.2469 -1.0759
  114RES   C10847794   2.218   6.487   4.145  0.0623 -0.2900  0.5153
  114RES   C10947795   2.278   6.474   4.285  0.2991  0.1150  0.2583
  114RES   C11047796   2.190   6.428   4.408  0.0488 -0.1720  0.5334
  114RES   C11147797   2.270   6.379   4.517 -0.2330  0.0753  0.2051
  114RES   C11247798   2.171   6.332   4.628 -0.0740 -0.1712 -0.7628
  114RES   C11347799   2.255   6.297   4.752 -0.2239 -0.3157 -0.5270
  114RES   H11447800   2.055   6.577   4.059 -1.6975  0.7733 -0.1369
  114RES   H11547801   2.064   6.601   4.234  1.1542 -0.2676 -0.2386
  114RES   H11647802   2.294   6.516   4.072 -0.3281 -1.2935 -0.3030
  114RES   H11747803   2.325   6.569   4.311  2.1800 -0.3945 -1.1641
  114RES   H11847804   2.366   6.410   4.283 -2.7896 -4.3276  1.4533
  114RES   H11947805   2.127   6.514   4.432 -0.4942 -0.8376  1.5244
  114RES   H12047806   2.124   6.349   4.373  0.5409 -0.8266  1.0656
  114RES   H12147807   2.328   6.462   4.558 -0.5713  1.4438 -2.0094
  114RES   H12247808   2.336   6.296   4.491  0.4413  0.5586  0.3408
  114RES   H12347809   2.102   6.412   4.652 -0.6679 -0.6146 -0.9851
  114RES   H12447810   2.111   6.245   4.601 -1.0610  0.7010 -1.3914
  114RES   H12547811   2.321   6.377   4.784 -0.2786  0.1409 -1.5539
  114RES   H12647812   2.186   6.276   4.834  0.0898 -2.1322 -0.7117
  114RES   H12747813   2.313   6.205   4.743 -2.3320 -1.6821 -0.5294
  114RES   C12847814   2.166   6.351   4.100 -0.0926 -0.2325 -0.5049
  114RES   C12947815   2.140   6.327   3.947 -0.6305  0.3309  0.4639
  114RES   C13047816   2.037   6.217   3.933 -0.0865  0.4255 -0.1457
  114RES   C13147817   2.084   6.073   3.958 -0.7756  0.2195 -0.2556
  114RES   C13247818   1.978   5.981   4.020 -0.2349  0.3826 -0.4316
  114RES   C13347819   2.042   5.841   4.038  0.0246  0.3030  0.1742
  114RES   C13447820   1.965   5.751   4.125  0.3398  0.0517 -0.4904
  114RES   H13547821   2.237   6.278   4.140 -0.4808  0.5178  1.6260
  114RES   H13647822   2.078   6.327   4.159  1.8076 -0.2747  2.4582
  114RES   H13747823   2.087   6.413   3.907 -0.1451  0.2517 -0.3663
  114RES   H13847824   1.996   6.219   3.831  0.6803  3.6839 -0.4462
  114RES   H13947825   1.949   6.242   3.992 -0.0287 -1.1019  0.5834
  114RES   H14047826   2.174   6.076   4.019  0.1122  1.2713 -1.5744
  114RES   H14147827   2.111   6.022   3.866 -2.5666 -1.6064  0.1975
  114RES   H14247828   1.884   5.968   3.966 -0.9001  1.3820  0.4686
  114RES   H14347829   1.953   6.021   4.119  0.8395  1.3126 -0.5190
  114RES   H14447830   2.140   5.844   4.086  0.3176  1.0868 -0.4499
  114RES   H14547831   2.059   5.784   3.947 -2.8346  2.5416 -1.8798
  114RES   H14647832   1.951   5.791   4.226 -0.1903  1.4863 -1.1200
  114RES   H14747833   2.017   5.655   4.130 -2.9165 -1.6911  2.3590
  114RES   H14847834   1.863   5.730   4.091  0.4101 -3.3574  1.1311
  114RES   C14947835   2.269   6.294   3.874  0.1590  0.0776  0.3371
  114RES   C15047836   2.254   6.286   3.723  0.3155  0.4336 -0.0716
  114RES   C15147837   2.328   6.157   3.667 -0.4755 -0.1664  0.5278
  114RES   C15247838   2.296   6.132   3.515  0.1946 -0.0526  0.1467
  114RES   C15347839   2.353   5.998   3.457  0.3910  0.0769  0.8655
  114RES   C15447840   2.506   5.992   3.437  0.7501  0.0647  0.5487
  114RES   C15547841   2.562   6.048   3.305  0.6464  0.8417 -0.5911
  114RES   H15647842   2.345   6.368   3.898 -0.2492  0.0200  1.8432
  114RES   H15747843   2.318   6.203   3.909 -0.4913 -0.4555 -0.1209
  114RES   H15847844   2.150   6.273   3.695  0.3079  2.4643 -1.1387
  114RES   H15947845   2.436   6.169   3.676 -0.1460  0.7100 -3.6643
  114RES   H16047846   2.296   6.073   3.728  0.7836  0.0531  1.5043
  114RES   H16147847   2.334   6.214   3.453 -1.6739  0.8612  0.1844
  114RES   H16247848   2.188   6.133   3.500  0.0707 -0.9401  0.9607
  114RES   H16347849   2.299   5.989   3.363  3.1524  0.0216 -0.7788
  114RES   H16447850   2.317   5.918   3.522 -3.6643  0.4097 -0.8057
  114RES   H16547851   2.523   5.884   3.442 -0.5474 -0.1513  0.4174
  114RES   H16647852   2.557   6.041   3.519  1.5290 -1.1218  0.7871
  114RES   H16747853   2.670   6.038   3.299  0.5166 -0.3266 -1.1161
  114RES   H16847854   2.526   6.151   3.300 -2.5797 -0.2302 -0.5461
  114RES   H16947855   2.517   6.003   3.217  3.6572  0.1557 -1.8486
  114RES   C17047856   2.308   6.418   3.658  0.0248  0.4399 -0.1262
  114RES   C17147857   2.224   6.481   3.542 -0.0530  0.0728  0.2094
  114RES   C17247858   2.112   6.570   3.597 -0.4644  0.5024  0.0980
  114RES   C17347859   2.000   6.608   3.503 -0.0609  0.1408 -0.0320
  114RES   C17447860   1.867   6.618   3.576  0.3602  0.2741  0.1049
  114RES   C17547861   1.752   6.629   3.478 -0.4761  0.1568  0.5720
  114RES   C17647862   1.726   6.776   3.427 -0.1692  0.3074 -0.3349
  114RES   H17747863   2.411   6.399   3.629  0.8997  1.5873  2.0978
  114RES   H17847864   2.317   6.500   3.730 -2.0565 -0.7033  1.4920
  114RES   H17947865   2.173   6.395   3.499 -2.5979  1.1378  1.0215
  114RES   H18047866   2.150   6.661   3.643  0.0648  0.2341  0.1948
  114RES   H18147867   2.066   6.507   3.672  1.0476  0.1513  0.7396
  114RES   H18247868   1.999   6.536   3.421 -0.9920  0.5311 -0.3627
  114RES   H18347869   2.022   6.702   3.453  2.0731 -0.0051  0.5795
  114RES   H18447870   1.870   6.706   3.640 -1.6620 -0.3541  1.1135
  114RES   H18547871   1.854   6.534   3.645  1.2086  1.3422  1.5867
  114RES   H18647872   1.664   6.590   3.530 -1.2041  0.0235 -0.7215
  114RES   H18747873   1.765   6.557   3.398 -0.1890  1.3649 -0.4832
  114RES   H18847874   1.817   6.820   3.386  0.3310 -0.1054  0.3248
  114RES   H18947875   1.681   6.843   3.501 -1.7168 -0.6804 -0.3710
  114RES   H19047876   1.648   6.761   3.353  0.4758  2.5645 -1.5295
  114RES   C19147877   2.307   6.559   3.426 -0.2679  0.0472 -0.5366
  114RES   C19247878   2.381   6.469   3.326  0.6371  0.6110  0.1401
  114RES   C19347879   2.279   6.419   3.224 -0.1068 -0.0262 -0.1699
  114RES   C19447880   2.326   6.289   3.157  0.4773 -0.0655 -0.4411
  114RES   C19547881   2.276   6.263   3.013 -0.1971 -0.0613  0.3756
  114RES   C19647882   2.308   6.117   2.966  0.2086 -0.6111  0.1497
  114RES   C19747883   2.308   6.099   2.815 -0.2402  0.4531 -0.0783
  114RES   H19847884   2.361   6.635   3.481 -1.1384 -1.9184  3.1900
  114RES   H19947885   2.244   6.622   3.364 -1.8703 -0.3147  0.7016
  114RES   H20047886   2.420   6.386   3.386 -0.4235 -0.9155 -1.2355
  114RES   H20147887   2.271   6.496   3.148 -0.8899 -2.0149 -2.1705
  114RES   H20247888   2.178   6.412   3.264 -0.3276  1.5984 -0.4098
  114RES   H20347889   2.295   6.204   3.218 -1.0041  1.3499  0.8183
  114RES   H20447890   2.433   6.283   3.137  0.1387  1.2344 -2.7429
  114RES   H20547891   2.167   6.261   3.020 -0.2059 -0.8854  0.1211
  114RES   H20647892   2.309   6.341   2.944  1.6795  0.5414  1.9221
  114RES   H20747893   2.244   6.037   3.003 -0.3450  0.7355  2.2161
  114RES   H20847894   2.409   6.085   2.988  0.6831  0.8588  0.1869
  114RES   H20947895   2.210   6.125   2.776 -0.5983  0.3611  0.7689
  114RES   H21047896   2.344   6.001   2.783  0.1359 -0.1439  2.1416
  114RES   H21147897   2.375   6.178   2.781  0.6035  0.4892  1.6466
  114RES   C21247898   2.503   6.531   3.253 -1.1334  0.2699  0.2375
  114RES   C21347899   2.619   6.565   3.351  0.1682 -0.0395 -0.8344
  114RES   C21447900   2.686   6.435   3.413 -1.2304 -0.4247  0.3907
  114RES   C21547901   2.766   6.349   3.314 -0.2160 -1.0323 -0.0386
  114RES   C21647902   2.857   6.248   3.376 -0.3018  0.3627  0.3065
  114RES   C21747903   2.941   6.174   3.267  0.1761  0.0516  0.2813
  114RES   C21847904   2.992   6.035   3.317  0.2226  0.1339 -0.2702
  114RES   H21947905   2.477   6.612   3.185 -3.2882  0.5417  1.3264
  114RES   H22047906   2.533   6.460   3.176 -1.3706  1.1417 -0.6635
  114RES   H22147907   2.570   6.614   3.435  2.0711 -0.0830  0.3297
  114RES   H22247908   2.754   6.469   3.491  1.5267 -0.4435 -1.9240
  114RES   H22347909   2.612   6.376   3.468 -0.3338 -2.8927 -0.9984
  114RES   H22447910   2.823   6.423   3.257 -0.5836 -1.0595 -0.4400
  114RES   H22547911   2.695   6.297   3.250 -1.1880 -0.2592  0.3922
  114RES   H22647912   2.920   6.296   3.451  2.4432  0.7792 -2.1647
  114RES   H22747913   2.804   6.171   3.431  1.6781 -0.2213  1.4538
  114RES   H22847914   2.893   6.159   3.171 -2.3738 -0.4443  1.5888
  114RES   H22947915   3.033   6.228   3.241  1.4508 -1.8131  0.7927
  114RES   H23047916   2.912   5.970   3.353 -0.1671  0.6696 -0.1643
  114RES   H23147917   3.071   6.046   3.391 -0.5147  1.6774  0.3043
  114RES   H23247918   3.022   5.975   3.230  1.3092 -0.0125  0.2076
  114RES   C23347919   2.719   6.675   3.299  0.5492 -0.1459 -0.7860
  114RES   C23447920   2.838   6.718   3.392 -0.0137 -0.0047  0.3746
  114RES   C23547921   2.952   6.784   3.297  0.5719  0.6643  0.4525
  114RES   C23647922   2.932   6.918   3.239  0.2394 -0.7045  0.5521
  114RES   C23747923   3.052   6.969   3.165  0.0721 -0.2401 -0.7537
  114RES   C23847924   3.032   7.106   3.097  0.5599 -0.3410 -0.6009
  114RES   C23947925   3.156   7.180   3.047  0.9662  0.1223  0.3815
  114RES   H24047926   2.650   6.755   3.273  0.1641 -0.0796  0.4143
  114RES   H24147927   2.752   6.650   3.198  2.4600  1.8190 -0.6741
  114RES   H24247928   2.888   6.630   3.430  0.7163  1.0743  1.9712
  114RES   H24347929   2.971   6.709   3.220 -1.7950  2.0314 -1.5595
  114RES   H24447930   3.040   6.788   3.360  1.3232  4.1937 -0.7454
  114RES   H24547931   2.900   6.990   3.315 -0.1054  0.6961 -0.8976
  114RES   H24647932   2.848   6.920   3.170 -0.2378 -1.5615  1.0923
  114RES   H24747933   3.096   6.891   3.102 -0.5302  0.5261 -2.1527
  114RES   H24847934   3.131   6.992   3.236 -1.7344 -0.2808  1.3298
  114RES   H24947935   2.958   7.103   3.017 -0.0229  1.3398 -0.1468
  114RES   H25047936   2.994   7.176   3.173 -0.5901 -3.2256  1.5970
  114RES   H25147937   3.238   7.193   3.117  1.6217  0.6252 -0.4858
  114RES   H25247938   3.180   7.139   2.949  1.5436  0.5680  0.3401
  114RES   H25347939   3.137   7.283   3.017 -0.2964 -0.0461  0.5567
  114RES   C25447940   2.798   6.802   3.509 -0.0603  0.2303 -0.3791
  114RES   C25547941   2.917   6.842   3.602 -0.1305 -0.1900 -0.6376
  114RES   C25647942   2.944   6.718   3.696 -0.0057 -0.0575  0.5634
  114RES   C25747943   3.069   6.729   3.796 -0.7074 -0.3285 -0.7836
  114RES   C25847944   3.084   6.598   3.871 -0.0266  0.8168  0.1432
  114RES   C25947945   3.174   6.623   3.992  0.9341 -0.4650  0.3673
  114RES   C26047946   3.190   6.505   4.091  0.8306  0.0077 -0.3839
  114RES   H26147947   2.723   6.741   3.560 -0.2588  0.5849 -0.2462
  114RES   H26247948   2.755   6.894   3.470 -0.3078  0.1348 -0.3342
  114RES   H26347949   3.013   6.863   3.554  0.5053 -1.3328  0.1201
  114RES   H26447950   2.954   6.623   3.643 -3.8275 -0.8767  1.1989
  114RES   H26547951   2.852   6.712   3.754  0.3117  2.7580  1.4675
  114RES   H26647952   3.163   6.748   3.743 -1.8497  2.6864 -1.8214
  114RES   H26747953   3.052   6.810   3.867  0.9497  0.0663 -0.8175
  114RES   H26847954   3.125   6.534   3.793 -1.6145  1.8944 -1.6068
  114RES   H26947955   2.985   6.565   3.902 -0.0491 -1.4060 -2.1910
  114RES   H27047956   3.276   6.633   3.957  1.0748 -1.8913  0.3296
  114RES   H27147957   3.144   6.713   4.046  0.5922 -0.5675  0.3548
  114RES   H27247958   3.217   6.421   4.027  2.5453  0.2951 -0.0652
  114RES   H27347959   3.272   6.525   4.160  1.4483  1.8449 -1.6312
  114RES   H27447960   3.105   6.480   4.155  2.2414  2.4966  2.5591
  114RES   C27547961   2.878   6.972   3.686  0.1559 -0.0653  0.2437
  114RES   C27647962   2.904   7.109   3.617  0.5602  0.3667  0.0965
  114RES   C27747963   3.040   7.170   3.656 -0.1164  0.8718 -0.0421
  114RES   C27847964   3.160   7.081   3.625  0.8545  0.3735 -0.3441
  114RES   C27947965   3.292   7.156   3.632  0.4244  0.0013  0.2608
  114RES   C28047966   3.416   7.061   3.607 -0.2565 -0.4729  0.5031
  114RES   C28147967   3.548   7.130   3.570  0.3767  0.6062  0.1766
  114RES   H28247968   2.927   6.962   3.783 -1.6969  0.6367  1.2703
  114RES   H28347969   2.772   6.955   3.703 -0.2416  1.5678 -0.5345
  114RES   H28447970   2.905   7.096   3.508  0.3110  1.5373 -0.0570
  114RES   H28547971   3.054   7.266   3.607  1.0971  0.3784 -0.6958
  114RES   H28647972   3.036   7.183   3.764 -0.3377 -1.0136  0.1864
  114RES   H28747973   3.151   7.051   3.521 -4.2354 -0.2813  0.1764
  114RES   H28847974   3.157   6.996   3.693 -0.1360 -0.1758 -1.0588
  114RES   H28947975   3.287   7.201   3.731 -1.7477  0.3679  0.0154
  114RES   H29047976   3.295   7.238   3.560  1.2923  0.6600  1.0269
  114RES   H29147977   3.422   6.979   3.679  0.8868  1.3169  2.4955
  114RES   H29247978   3.394   7.010   3.513 -1.5648 -1.0230  1.1067
  114RES   H29347979   3.620   7.056   3.538 -1.6432 -1.5892  0.5913
  114RES   H29447980   3.598   7.201   3.636  1.1303  1.8440 -1.7103
  114RES   H29547981   3.529   7.190   3.481  1.1237  1.6756  0.7188
  114RES   C29647982   2.784   7.214   3.647 -0.2457  0.6409  0.3379
  114RES   C29747983   2.769   7.347   3.569 -0.3805 -0.1143  0.1819
  114RES   C29847984   2.652   7.442   3.602 -0.6710  0.6431  0.0299
  114RES   C29947985   2.664   7.505   3.746  0.6249  0.1950  0.3863
  114RES   C30047986   2.757   7.626   3.759 -0.1701  0.2149  0.2038
  114RES   C30147987   2.782   7.674   3.907 -0.5406 -0.1406  0.5370
  114RES   C30247988   2.865   0.087   3.915  0.4711  0.0304 -0.4270
  114RES   H30347989   2.694   7.154   3.633  0.0304 -0.7751  4.0693
  114RES   H30447990   2.789   7.231   3.754 -0.7853  0.9538  0.3143
  114RES   H30547991   2.858   7.402   3.598 -1.7455  1.2989  1.8574
  114RES   H30647992   2.637   7.531   3.541 -0.4642 -0.0916 -1.1085
  114RES   H30747993   2.565   7.376   3.594 -0.3554  0.2183  0.0978
  114RES   H30847994   2.682   7.422   3.813  2.8112 -0.6510 -1.2013
  114RES   H30947995   2.562   7.539   3.762  0.0232 -1.6370  0.5278
  114RES   H31047996   2.718   7.704   3.694 -1.6733 -0.5178  0.1875
  114RES   H31147997   2.851   7.585   3.725 -1.0218 -2.4640  0.9683
  114RES   H31247998   2.685   7.700   3.948 -0.1291  1.3732  0.6022
  114RES   H31347999   2.830   7.589   3.955 -0.9400 -0.5797  0.1621
  114RES   H31448000   2.814   0.173   3.870  0.8887  2.0841  2.8759
  114RES   H31548001   2.892   0.118   4.015  1.2905  1.6189 -1.1182
  114RES   H31648002   2.954   0.079   3.853 -0.1796 -3.6573 -0.9709
  114RES   C31748003   2.762   7.312   3.416  0.2205 -1.2454  0.1560
  114RES   C31848004   2.755   7.433   3.315  0.3318 -0.2535 -0.2745
  114RES   C31948005   2.878   7.531   3.344 -0.2578 -0.7201 -0.5456
  114RES   C32048006   3.011   7.457   3.349  0.3920 -0.7404  0.2693
  114RES   C32148007   3.133   7.553   3.338 -0.6533 -0.4933 -0.1439
  114RES   C32248008   3.266   7.485   3.349 -0.2987  0.0304 -0.2293
  114RES   C32348009   3.376   7.590   3.345  0.4316  1.0471  0.6875
  114RES   H32448010   2.674   7.248   3.411 -0.7601  0.1772 -1.2685
  114RES   H32548011   2.847   7.253   3.379 -0.7293 -1.6702 -1.4131
  114RES   H32648012   2.663   7.491   3.327  0.2185 -0.8198  1.8523
  114RES   H32748013   2.867   7.577   3.443  1.1579  1.0058 -1.1740
  114RES   H32848014   2.881   7.613   3.272 -0.0134  0.2327  0.5211
  114RES   H32948015   3.036   7.382   3.274  0.1793 -1.4295  0.8820
  114RES   H33048016   3.025   7.412   3.448 -1.8558  0.3907  1.1281
  114RES   H33148017   3.117   7.634   3.410 -0.1248  1.3678 -2.0510
  114RES   H33248018   3.130   7.599   3.239 -2.7377  0.1994  0.2074
  114RES   H33348019   3.289   7.428   3.258  0.5873  0.1262 -0.0736
  114RES   H33448020   3.275   7.428   3.441  2.5504  0.9136  0.0792
  114RES   H33548021   3.373   7.651   3.255  1.4083 -2.2193 -1.6435
  114RES   H33648022   3.476   7.550   3.359  0.8103  2.1088  1.0271
  114RES   H33748023   3.365   7.653   3.433  1.5710  0.7733  1.0366
  114RES   C33848024   2.756   7.375   3.176  0.8734 -0.0616 -0.5936
  114RES   C33948025   2.720   7.475   3.064  0.0081 -0.5280  0.1507
  114RES   C34048026   2.576   7.532   3.079  0.0129 -0.1413 -0.0415
  114RES   C34148027   2.470   7.426   3.110 -0.4953 -0.5474 -0.4923
  114RES   C34248028   2.339   7.476   3.051 -0.3432 -0.0101 -0.1668
  114RES   C34348029   2.237   7.367   3.087 -0.0517 -0.1623 -0.7377
  114RES   C34448030   2.161   7.380   3.217 -0.3082 -0.5482 -0.5859
  114RES   H34548031   2.691   7.287   3.173  0.0192  0.5881 -1.7810
  114RES   H34648032   2.854   7.331   3.157 -0.2452 -2.2571 -1.4353
  114RES   H34748033   2.788   7.559   3.071 -0.3174 -0.1942 -0.6160
  114RES   H34848034   2.566   7.603   3.161  2.6081 -2.0778  2.0418
  114RES   H34948035   2.533   7.590   2.998 -0.2766  0.1085  0.2907
  114RES   H35048036   2.446   7.423   3.217 -1.4339  3.0668 -0.5377
  114RES   H35148037   2.508   7.329   3.081  1.5749 -0.6438  2.3064
  114RES   H35248038   2.310   7.576   3.083 -0.7860 -0.0006 -0.6087
  114RES   H35348039   2.356   7.469   2.944  1.0869  1.8514 -0.0819
  114RES   H35448040   2.163   7.376   3.007 -1.1189  0.6754  0.3115
  114RES   H35548041   2.280   7.267   3.082  1.6820  0.5749 -0.9093
  114RES   H35648042   2.114   7.478   3.224  1.2837  0.2150 -0.5478
  114RES   H35748043   2.231   7.379   3.300 -2.6370  0.5768  1.4575
  114RES   H35848044   2.082   7.305   3.227  2.2537 -3.2545 -0.0588
  114RES   C35948045   2.737   7.414   2.922 -0.3178 -0.2144  0.3838
  114RES   C36048046   2.748   7.498   2.796  0.3183 -0.0563  0.5406
  114RES   C36148047   2.622   7.574   2.753  0.1173  0.7477  0.4601
  114RES   C36248048   2.509   7.478   2.711 -0.5538  0.4407 -0.3006
  114RES   C36348049   2.377   7.549   2.666 -0.0081  0.0772 -0.1751
  114RES   C36448050   2.267   7.445   2.638 -0.2959 -0.0853 -0.6803
  114RES   C36548051   2.138   7.505   2.616 -0.3000  0.1385 -0.0157
  114RES   H36648052   2.668   7.332   2.904 -2.8894  1.8964  0.2086
  114RES   H36748053   2.829   7.358   2.933  0.3318  0.6253 -0.6794
  114RES   H36848054   2.769   7.422   2.721 -0.1447 -0.6100  0.9754
  114RES   H36948055   2.593   7.661   2.811 -2.2310  2.5684 -3.2784
  114RES   H37048056   2.643   7.633   2.663 -0.5762 -1.2404 -1.0492
  114RES   H37148057   2.536   7.401   2.639  0.3932 -0.0804  0.6058
  114RES   H37248058   2.485   7.418   2.799 -0.3806  0.0166 -0.5454
  114RES   H37348059   2.355   7.616   2.749  1.6751 -0.6227  0.8695
  114RES   H37448060   2.389   7.605   2.574 -2.2507  0.5430 -0.2113
  114RES   H37548061   2.291   7.384   2.551 -1.7437 -0.6253 -0.7159
  114RES   H37648062   2.268   7.377   2.723  0.0664 -1.4961 -1.7966
  114RES   H37748063   2.069   7.422   2.629 -0.6320  0.4568  0.2841
  114RES   H37848064   2.107   7.580   2.689  0.4731 -1.9410  2.5249
  114RES   H37948065   2.128   7.552   2.518  0.1920 -1.0766 -0.6675
  114RES   C38048066   2.872   7.591   2.808  0.4892 -0.0736 -0.8995
  114RES   C38148067   2.926   7.636   2.666 -0.0271  0.2746  0.1106
  114RES   C38248068   3.015   0.044   2.656 -0.0079  0.2795 -0.9042
  114RES   C38348069   3.117   0.065   2.773 -0.3278  0.2296  0.2364
  114RES   C38448070   3.207   0.190   2.739  0.2494 -0.1913  0.0849
  114RES   C38548071   3.308   0.214   2.854  0.0748 -0.2116 -0.2018
  114RES   C38648072   3.250   0.262   2.981  0.3553 -0.2008  0.4984
  114RES   H38748073   2.836   7.683   2.854  0.5551  0.3248 -1.6400
  114RES   H38848074   2.951   7.546   2.868 -0.7104 -1.6161 -0.4513
  114RES   H38948075   2.851   7.627   2.588  0.1856 -1.1229  0.0691
  114RES   H39048076   2.948   0.130   2.654  1.6263  1.7416  2.8246
  114RES   H39148077   3.060   0.041   2.557  1.1557  1.0749 -0.4183
  114RES   H39248078   3.062   0.086   2.864  1.9985 -2.6454  2.4020
  114RES   H39348079   3.186   7.707   2.772  0.2631  0.6921 -1.7737
  114RES   H39448080   3.256   0.172   2.643  0.1398 -1.1167  0.1944
  114RES   H39548081   3.154   0.281   2.712  1.0441  0.5041  0.8735
  114RES   H39648082   3.375   0.293   2.820  0.5094 -0.8952 -0.9742
  114RES   H39748083   3.354   0.116   2.871 -0.6638 -0.4722  0.2968
  114RES   H39848084   3.204   0.184   3.042  0.1892 -0.0676  0.5436
  114RES   H39948085   3.172   0.337   2.967  0.4882 -0.0125  0.7580
  114RES   H40048086   3.323   0.306   3.049 -0.2509 -0.2339  1.1835
  114RES   C40148087   3.016   7.515   2.617 -0.1073  0.4871 -0.3958
  114RES   C40248088   3.024   7.506   2.460 -0.5364 -0.3309 -0.3746
  114RES   C40348089   3.149   7.434   2.408 -0.2140 -0.3269  0.2670
  114RES   C40448090   3.151   7.429   2.254 -1.2476  0.5898 -0.0374
  114RES   C40548091   3.290   7.396   2.195  0.7323  0.3212 -0.6268
  114RES   C40648092   3.388   7.510   2.197  0.1687  0.1767  0.5936
  114RES   C40748093   3.523   7.458   2.149 -0.3367 -0.0738  0.4070
  114RES   H40848094   2.973   7.421   2.651  0.0171  0.9448  1.0690
  114RES   H40948095   3.118   7.513   2.657 -1.1014  0.4514  2.2170
  114RES   H41048096   3.019   7.611   2.430 -1.6920 -0.2316  0.1294
  114RES   H41148097   3.158   7.330   2.439 -1.4910 -1.1951 -2.1716
  114RES   H41248098   3.235   7.494   2.438  1.0236 -2.5241  1.2608
  114RES   H41348099   3.115   7.522   2.210  0.4000  1.9532  1.4212
  114RES   H41448100   3.086   7.346   2.227  1.6605 -1.0808 -2.3279
  114RES   H41548101   3.345   7.327   2.259 -0.2039 -1.6369 -1.8937
  114RES   H41648102   3.260   7.353   2.099 -1.6507  2.4522 -0.9029
  114RES   H41748103   3.365   7.586   2.123 -0.0397  1.4159  1.9072
  114RES   H41848104   3.405   7.553   2.296 -0.7314  0.1003  0.7801
  114RES   H41948105   3.553   7.373   2.212 -0.1730 -0.7174 -0.5228
  114RES   H42048106   3.603   7.532   2.148  1.2181 -1.6600 -3.3960
  114RES   H42148107   3.519   7.417   2.048 -1.6883  2.3444 -0.5567
  114RES   H42248108   2.932   7.464   2.419 -0.9931 -0.2258  0.5347
  115RES     C148109   6.130   3.142   2.941 -0.6432  0.0068 -0.1662
  115RES     C248110   6.218   3.150   2.818  0.7754 -0.3982 -0.5269
  115RES     C348111   6.365   3.161   2.853  0.0499 -0.8777  0.0855
  115RES     C448112   6.429   3.034   2.885 -0.1009 -0.0977 -0.5283
  115RES     C548113   6.558   3.038   2.957 -0.2875 -0.0205  0.0190
  115RES     C648114   6.620   2.904   2.962  1.3518  0.1033  0.0531
  115RES     C748115   6.758   2.910   3.012 -0.3441 -0.1278  0.2263
  115RES     H848116   6.080   3.046   2.952  4.6181 -2.5627  2.7122
  115RES     H948117   6.052   3.219   2.948 -0.7686  0.0649 -1.9444
  115RES    H1048118   6.194   3.060   2.762  0.7141 -1.0074  0.4696
  115RES    H1148119   6.412   3.199   2.762 -0.0830  0.0534  0.4026
  115RES    H1248120   6.364   3.237   2.930 -0.8188 -2.2104  1.4164
  115RES    H1348121   6.364   2.989   2.960  2.3155  0.6924  2.1738
  115RES    H1448122   6.442   2.967   2.800 -0.7190 -1.1109  0.1709
  115RES    H1548123   6.532   3.070   3.058  1.7265 -0.7707  0.7989
  115RES    H1648124   6.628   3.112   2.919 -0.5291 -0.0141 -0.4145
  115RES    H1748125   6.612   2.859   2.864  0.1469  0.4117  0.0047
  115RES    H1848126   6.563   2.836   3.025  1.5759  0.6335  0.8401
  115RES    H1948127   6.823   2.962   2.941  1.3657 -0.3107  1.6158
  115RES    H2048128   6.801   2.810   3.018  3.3212  1.4965  2.7916
  115RES    H2148129   6.769   2.962   3.108  1.3397  2.0068 -1.0690
  115RES    H2248130   6.182   3.157   3.036 -0.5390  2.4655 -0.5797
  115RES    C2348131   6.177   3.269   2.723  0.0223  0.7514  0.5814
  115RES    C2448132   6.047   3.248   2.627 -0.7250  0.3893 -0.3278
  115RES    C2548133   5.920   3.237   2.721 -0.0065  0.8757  0.1737
  115RES    C2648134   5.794   3.282   2.644 -0.2555 -0.0412 -0.3348
  115RES    C2748135   5.667   3.303   2.728  0.1709  0.4672  0.6370
  115RES    C2848136   5.548   3.343   2.643  0.3783 -0.0911  0.3853
  115RES    C2948137   5.569   3.477   2.573 -0.0583  0.2219  0.0640
  115RES    H3048138   6.171   3.364   2.776 -0.0259  0.5237  0.9878
  115RES    H3148139   6.257   3.290   2.652 -1.2008 -0.8169 -1.3146
  115RES    H3248140   6.041   3.337   2.564  3.0916 -0.1928 -1.6215
  115RES    H3348141   5.939   3.302   2.807  2.2529 -0.0872  0.4254
  115RES    H3448142   5.912   3.137   2.764  0.3387  1.3481  1.3681
  115RES    H3548143   5.775   3.209   2.566 -1.4254  0.4803 -0.5468
  115RES    H3648144   5.815   3.381   2.603 -1.4058  0.5787  0.5568
  115RES    H3748145   5.677   3.371   2.812  1.0904  2.3250 -0.9362
  115RES    H3848146   5.634   3.217   2.785  1.8945 -1.7722 -1.6601
  115RES    H3948147   5.455   3.331   2.697  0.5289  0.5561  0.7901
  115RES    H4048148   5.530   3.273   2.561  2.7478  0.2947 -0.4973
  115RES    H4148149   5.619   3.550   2.635  1.3237 -0.3437 -0.3671
  115RES    H4248150   5.619   3.464   2.477 -1.0667  0.6679 -0.5288
  115RES    H4348151   5.477   3.525   2.540  0.5193 -0.2838 -2.4160
  115RES    C4448152   6.053   3.131   2.529  0.7100  0.1053 -0.1263
  115RES    C4548153   6.065   3.165   2.379 -0.3053 -0.2179  0.8017
  115RES    C4648154   6.197   3.247   2.346  0.0896  0.3778  0.5897
  115RES    C4748155   6.221   3.253   2.193 -0.2588 -0.2528 -0.4902
  115RES    C4848156   6.346   3.335   2.157  0.7102 -0.6033 -0.0031
  115RES    C4948157   6.355   3.375   2.008 -0.1929  0.4321  0.2412
  115RES    C5048158   6.236   3.462   1.959 -0.1397  0.0938 -0.1753
  115RES    H5148159   5.960   3.074   2.533  0.8431  0.0052  2.6551
  115RES    H5248160   6.122   3.049   2.550  1.2341  0.9642  1.5435
  115RES    H5348161   5.977   3.226   2.357  0.0134  0.3985  1.2244
  115RES    H5448162   6.285   3.203   2.393  1.1873  2.7019  0.8157
  115RES    H5548163   6.180   3.348   2.384  2.2600  0.9196  0.1591
  115RES    H5648164   6.254   3.156   2.154 -2.1734 -0.5524 -1.4453
  115RES    H5748165   6.131   3.287   2.143  0.7780  0.7954 -1.6577
  115RES    H5848166   6.438   3.287   2.190 -0.3035 -0.4679  3.1452
  115RES    H5948167   6.347   3.435   2.202 -1.2310 -0.7279  0.3577
  115RES    H6048168   6.352   3.279   1.957  1.4479 -0.1433  1.1880
  115RES    H6148169   6.452   3.424   2.003 -0.2374  0.6166  1.0902
  115RES    H6248170   6.231   3.488   1.853 -1.4581 -1.3708 -0.4913
  115RES    H6348171   6.238   3.560   2.008  1.4052  0.1821 -0.3823
  115RES    H6448172   6.136   3.422   1.975 -0.3148  0.0614 -1.2868
  115RES    C6548173   6.044   3.029   2.293  0.5237  0.1522 -0.1953
  115RES    C6648174   5.938   3.040   2.184  0.1003 -0.8721 -0.6307
  115RES    C6748175   5.790   3.051   2.230  1.0248  0.0978 -0.9133
  115RES    C6848176   5.672   3.081   2.128 -0.3062  0.2530  0.8778
  115RES    C6948177   5.542   3.131   2.189 -0.1518  0.1736  0.2614
  115RES    C7048178   5.461   3.016   2.255 -0.1900  0.4612  0.5016
  115RES    C7148179   5.341   3.075   2.343  1.0536 -0.3076 -0.9088
  115RES    H7248180   6.140   2.992   2.259  0.3290  0.8951 -1.5800
  115RES    H7348181   6.005   2.947   2.353  2.2223  0.9094  2.0178
  115RES    H7448182   5.957   3.138   2.140  2.3529 -1.2770 -0.6170
  115RES    H7548183   5.762   2.956   2.275  1.4606  0.1705 -0.4888
  115RES    H7648184   5.788   3.123   2.311 -1.7133  0.2860 -1.0892
  115RES    H7748185   5.705   3.167   2.068  1.5600 -0.9180  0.1610
  115RES    H7848186   5.649   2.998   2.062 -0.5227 -0.6855  2.1333
  115RES    H7948187   5.554   3.210   2.263 -2.3099  0.5925  0.1918
  115RES    H8048188   5.478   3.171   2.110 -0.4299  0.5884  0.6972
  115RES    H8148189   5.526   2.949   2.311 -0.0047  0.0251 -0.2327
  115RES    H8248190   5.423   2.962   2.168 -0.2094 -0.4858  1.0980
  115RES    H8348191   5.388   3.135   2.421  1.3963 -2.2992  0.4648
  115RES    H8448192   5.277   3.131   2.275 -0.5770 -0.8554  0.1431
  115RES    H8548193   5.273   2.999   2.381  2.0090  0.1901  1.9029
  115RES    C8648194   5.960   2.931   2.070 -0.4330  0.4921 -0.1615
  115RES    C8748195   5.929   2.963   1.919 -1.0955  0.4722 -0.3679
  115RES    C8848196   5.991   3.101   1.878 -0.6053 -0.5743 -0.2318
  115RES    C8948197   5.969   3.146   1.734  0.2831  1.6074 -0.5213
  115RES    C9048198   6.060   3.262   1.700 -0.2818  0.0892 -1.0837
  115RES    C9148199   6.059   3.303   1.557  0.4025  0.0792  0.0902
  115RES    C9248200   6.085   3.202   1.455  0.0018  0.3658  0.1537
  115RES    H9348201   6.066   2.907   2.075 -0.5509  0.2291  1.4245
  115RES    H9448202   5.897   2.845   2.094 -0.7621  1.3475  2.2544
  115RES    H9548203   5.824   2.962   1.892 -1.1381  1.5388 -0.2487
  115RES    H9648204   5.941   3.180   1.935  0.5397 -0.8682  1.1956
  115RES    H9748205   6.097   3.097   1.904  0.3945 -0.1582 -3.9484
  115RES    H9848206   5.976   3.062   1.665  1.0087  1.3239 -0.1110
  115RES    H9948207   5.863   3.167   1.724 -0.0635  0.0761 -0.2130
  115RES   H10048208   6.161   3.233   1.727  0.0567 -0.4260 -2.8274
  115RES   H10148209   6.034   3.350   1.758  3.0127 -0.3619  1.1781
  115RES   H10248210   5.977   3.370   1.532  1.0766  0.4992 -1.0184
  115RES   H10348211   6.143   3.373   1.549  1.1294 -0.7064  0.6663
  115RES   H10448212   6.088   3.241   1.353 -0.1901 -1.8192 -0.7230
  115RES   H10548213   6.008   3.125   1.468 -0.7514  1.3416  1.5894
  115RES   H10648214   6.179   3.148   1.464  0.1870  0.9304  1.6319
  115RES   C10748215   5.997   2.860   1.833 -0.0664 -0.9477  0.4561
  115RES   C10848216   5.897   2.784   1.731 -0.2614 -0.3933  0.0947
  115RES   C10948217   5.978   2.713   1.623 -0.1006 -0.3455  0.4494
  115RES   C11048218   6.071   2.601   1.663 -0.2695 -0.2619 -0.1263
  115RES   C11148219   6.014   2.464   1.691  0.2822  0.6606  0.3499
  115RES   C11248220   6.120   2.351   1.691 -0.4833 -0.0365 -0.7474
  115RES   C11348221   6.152   2.303   1.547 -0.1574  0.5736  0.2281
  115RES   H11448222   6.035   2.778   1.893 -0.2333 -1.9050 -0.7168
  115RES   H11548223   6.094   2.882   1.787 -1.6195  1.5153 -1.8140
  115RES   H11648224   5.855   2.860   1.665  1.9490  2.0506  1.3710
  115RES   H11748225   6.027   2.798   1.576 -0.8716  1.0455  2.0907
  115RES   H11848226   5.916   2.666   1.547  1.4073 -1.3901 -0.1563
  115RES   H11948227   6.149   2.614   1.588  0.1724  4.0568  0.9855
  115RES   H12048228   6.128   2.635   1.749 -2.2533  1.1307  0.6731
  115RES   H12148229   5.949   2.442   1.606 -1.3562 -0.8500  1.9288
  115RES   H12248230   5.937   2.452   1.767 -0.2499 -1.0901 -0.4232
  115RES   H12348231   6.211   2.398   1.729  1.2146 -1.5040 -2.8610
  115RES   H12448232   6.098   2.272   1.762 -0.2887 -1.7480 -2.5547
  115RES   H12548233   6.203   2.207   1.550 -0.8276  0.2249  0.5982
  115RES   H12648234   6.056   2.295   1.495 -1.1007 -0.0989  2.0221
  115RES   H12748235   6.214   2.373   1.491  0.2846  0.1604  0.1959
  115RES   C12848236   5.784   2.705   1.799 -0.5351 -0.9957 -0.0751
  115RES   C12948237   5.677   2.648   1.701  0.0987 -0.0181  0.0980
  115RES   C13048238   5.599   2.762   1.631 -0.1323 -0.0881 -0.2410
  115RES   C13148239   5.548   2.876   1.731  0.2220 -0.2096  0.4141
  115RES   C13248240   5.469   2.988   1.656  0.2611  0.2398 -0.7964
  115RES   C13348241   5.427   3.099   1.746 -0.8342  0.1872  0.1075
  115RES   C13448242   5.535   3.203   1.763 -1.0617  0.9589 -0.7805
  115RES   H13548243   5.839   2.623   1.846  2.4242 -0.1218 -1.8355
  115RES   H13648244   5.735   2.767   1.873  1.6165  0.3928  0.2468
  115RES   H13748245   5.727   2.588   1.625  1.4828  3.3751 -1.7923
  115RES   H13848246   5.510   2.728   1.579 -0.3388  1.1390 -0.7075
  115RES   H13948247   5.664   2.818   1.563 -1.2061 -1.5652 -2.5474
  115RES   H14048248   5.639   2.918   1.772  0.4753  1.1551 -1.4722
  115RES   H14148249   5.495   2.829   1.814  0.4886 -1.5106 -0.1459
  115RES   H14248250   5.379   2.944   1.612  0.8581 -0.6396 -1.1620
  115RES   H14348251   5.523   3.033   1.573  1.0826  1.3487  0.3336
  115RES   H14448252   5.414   3.060   1.847 -0.0671  0.8395  0.4563
  115RES   H14548253   5.340   3.151   1.706 -0.1437 -0.1280 -1.8730
  115RES   H14648254   5.497   3.280   1.830 -0.0568  0.9137 -0.1389
  115RES   H14748255   5.564   3.249   1.668 -0.5394 -0.5235 -1.3607
  115RES   H14848256   5.631   3.172   1.804 -1.7883 -0.4123 -0.0695
  115RES   C14948257   5.577   2.555   1.767 -0.2106 -0.3224 -0.1510
  115RES   C15048258   5.618   2.404   1.808 -0.7507 -0.2838  0.1972
  115RES   C15148259   5.621   2.297   1.688  0.6419 -0.3895 -0.9462
  115RES   C15248260   5.487   2.301   1.611  0.1652  0.8843 -0.2476
  115RES   C15348261   5.467   2.189   1.516  0.4819 -0.0202 -0.1048
  115RES   C15448262   5.459   2.057   1.587  0.8421  0.5472  0.1222
  115RES   C15548263   5.441   1.939   1.492  0.6511  0.3314  0.4477
  115RES   H15648264   5.536   2.602   1.856 -0.2254 -1.2147  0.3183
  115RES   H15748265   5.490   2.554   1.700  1.4242 -0.7481 -2.3315
  115RES   H15848266   5.725   2.412   1.828 -0.8073  2.5475 -0.4703
  115RES   H15948267   5.697   2.328   1.617  1.7741  0.4628  0.6196
  115RES   H16048268   5.648   2.194   1.713 -2.1411 -0.8088  0.6039
  115RES   H16148269   5.476   2.400   1.567  0.8196  1.1262  0.1183
  115RES   H16248270   5.407   2.296   1.684 -0.5444 -0.2331 -1.0969
  115RES   H16348271   5.548   2.201   1.445  0.1239  1.4995 -0.2846
  115RES   H16448272   5.372   2.205   1.464  0.3342 -1.4213 -0.2628
  115RES   H16548273   5.374   2.063   1.655  0.2700 -1.2013 -0.4063
  115RES   H16648274   5.542   2.031   1.653  0.5321 -0.9073 -0.0422
  115RES   H16748275   5.537   1.927   1.442  0.1065 -0.4500 -0.4200
  115RES   H16848276   5.376   1.959   1.407  2.5312  1.3140 -0.7946
  115RES   H16948277   5.418   1.844   1.540  1.4726  0.0099  0.1982
  115RES   C17048278   5.539   2.341   1.929  0.1061  0.5698 -0.3871
  115RES   C17148279   5.584   2.391   2.070 -0.0660  0.1381  0.5816
  115RES   C17248280   5.730   2.369   2.103 -0.5478  0.8743 -0.5024
  115RES   C17348281   5.782   2.225   2.077  0.0568 -0.0432  0.0478
  115RES   C17448282   5.921   2.206   2.141  0.0030  0.3531  0.7288
  115RES   C17548283   5.987   2.077   2.114 -0.4422 -0.3170 -0.3135
  115RES   C17648284   6.128   2.066   2.176 -0.4916 -0.0373 -0.1261
  115RES   H17748285   5.546   2.232   1.919  1.3510  0.5892  0.1875
  115RES   H17848286   5.435   2.372   1.920 -0.3651 -0.4783  1.2301
  115RES   H17948287   5.525   2.326   2.135 -0.4479 -0.3356 -0.2394
  115RES   H18048288   5.747   2.395   2.208 -0.4068 -2.9615  0.5320
  115RES   H18148289   5.792   2.433   2.041 -1.2656  1.9279 -0.1347
  115RES   H18248290   5.784   2.213   1.968  0.7284 -0.6361  0.1265
  115RES   H18348291   5.715   2.144   2.103  1.4203 -1.4381 -0.7239
  115RES   H18448292   5.910   2.217   2.249  1.0151  4.9330  0.4568
  115RES   H18548293   6.002   2.273   2.113  0.1362 -1.0634 -2.4832
  115RES   H18648294   5.994   2.049   2.008 -0.6138 -0.4202 -0.2980
  115RES   H18748295   5.929   1.999   2.164  0.0057 -1.8493 -2.0866
  115RES   H18848296   6.121   2.090   2.282  1.8496 -0.3047  0.1239
  115RES   H18948297   6.206   2.129   2.132 -0.5424  0.4824  0.5229
  115RES   H19048298   6.156   1.961   2.171  1.5923  0.3744  1.8017
  115RES   C19148299   5.535   2.537   2.106  0.2019 -0.1573  0.0740
  115RES   C19248300   5.522   2.568   2.258  0.9163  0.2459 -0.1145
  115RES   C19348301   5.655   2.652   2.287  0.4543  0.2997  0.0126
  115RES   C19448302   5.689   2.679   2.436 -0.0765 -0.4053  0.5657
  115RES   C19548303   5.836   2.730   2.466 -0.0586  0.4189 -0.1407
  115RES   C19648304   5.856   2.754   2.616 -0.5644 -0.4067 -0.4656
  115RES   C19748305   5.741   2.837   2.674 -1.3107  0.4693 -0.4635
  115RES   H19848306   5.433   2.546   2.068 -0.3910  1.5271  1.9699
  115RES   H19948307   5.595   2.615   2.059 -3.5620  1.3524 -2.5171
  115RES   H20048308   5.521   2.473   2.313  0.3501  0.1464 -0.2955
  115RES   H20148309   5.646   2.744   2.230 -1.7440  1.1334  1.6440
  115RES   H20248310   5.744   2.597   2.254  0.6033 -0.5895  1.8048
  115RES   H20348311   5.687   2.582   2.486  2.6097 -1.5799 -1.5019
  115RES   H20448312   5.613   2.749   2.472  0.5585  0.0538  1.0149
  115RES   H20548313   5.900   2.650   2.429  0.1180 -0.1069  1.2552
  115RES   H20648314   5.842   2.814   2.397 -2.2666 -1.1117 -2.2753
  115RES   H20748315   5.945   2.817   2.624  0.1835 -1.4889 -0.0721
  115RES   H20848316   5.878   2.662   2.672  1.8143  0.3142 -0.1462
  115RES   H20948317   5.764   2.881   2.771 -0.1858 -0.6888 -0.2038
  115RES   H21048318   5.651   2.778   2.689 -1.0978  0.2441 -0.0682
  115RES   H21148319   5.704   2.913   2.604  2.5191  2.7002 -0.2116
  115RES   C21248320   5.400   2.647   2.305  0.6940  0.4220  0.1906
  115RES   C21348321   5.272   2.571   2.336 -0.9146 -0.3906  0.4936
  115RES   C21448322   5.278   2.491   2.462  0.0794  0.5054 -0.7426
  115RES   C21548323   5.188   2.368   2.466  0.5251 -0.3585 -0.0005
  115RES   C21648324   5.267   2.245   2.431 -0.4064 -0.1903  0.4658
  115RES   C21748325   5.388   2.213   2.523 -0.3099  0.4632  0.2333
  115RES   C21848326   5.360   2.229   2.669 -0.0356 -0.3170  0.0837
  115RES   H21948327   5.379   2.727   2.234 -3.7868 -0.4340  0.3700
  115RES   H22048328   5.422   2.713   2.389 -0.2335 -1.1949  1.7363
  115RES   H22148329   5.261   2.496   2.258  1.1229  1.1947 -1.3774
  115RES   H22248330   5.381   2.468   2.491  0.0067  0.7161 -0.3092
  115RES   H22348331   5.249   2.549   2.550  0.0058 -4.0890  2.4329
  115RES   H22448332   5.111   2.388   2.391  0.7046  0.3617  0.0002
  115RES   H22548333   5.131   2.359   2.558  1.0573  0.6631  0.4396
  115RES   H22648334   5.199   2.160   2.447  1.0804 -2.1193 -3.0309
  115RES   H22748335   5.298   2.245   2.327 -1.4239 -0.5044  0.1555
  115RES   H22848336   5.404   2.108   2.499  0.5148  0.7850 -0.6531
  115RES   H22948337   5.481   2.265   2.500 -0.6964  2.1590  2.2733
  115RES   H23048338   5.277   2.168   2.705 -0.6510  0.0508 -0.6897
  115RES   H23148339   5.351   2.332   2.704 -1.6723 -0.1093 -0.8890
  115RES   H23248340   5.445   2.191   2.726 -1.1793 -2.2207  0.5626
  115RES   C23348341   5.145   2.661   2.328 -0.5495 -0.6774 -0.8626
  115RES   C23448342   5.104   2.718   2.185  0.2273  0.0945  0.0275
  115RES   C23548343   5.079   2.606   2.083  0.2387  0.2191  0.5427
  115RES   C23648344   5.147   2.616   1.950 -0.1379  0.0404 -0.0633
  115RES   C23748345   5.095   2.520   1.844  0.1236 -0.6075 -0.5059
  115RES   C23848346   5.167   2.519   1.709 -0.4108  0.0285 -0.3907
  115RES   C23948347   5.112   2.423   1.615  0.3252  0.5204  0.6826
  115RES   H24048348   5.154   2.747   2.394  0.3299 -0.5736 -1.1099
  115RES   H24148349   5.058   2.611   2.373  1.1689 -1.2281  1.9919
  115RES   H24248350   5.186   2.784   2.156 -0.4571  1.2944  0.7336
  115RES   H24348351   4.971   2.595   2.082  0.2526  0.0999  0.2529
  115RES   H24448352   5.107   2.509   2.125 -1.9142  0.5697  2.8859
  115RES   H24548353   5.254   2.598   1.959 -0.7046 -3.2894  0.4364
  115RES   H24648354   5.134   2.719   1.917  0.7905  0.8602  1.9765
  115RES   H24748355   4.987   2.530   1.835  0.0944  0.6892  0.9860
  115RES   H24848356   5.111   2.419   1.881  1.4005  0.2361  1.3418
  115RES   H24948357   5.156   2.619   1.666 -0.0766 -0.1892 -0.9902
  115RES   H25048358   5.274   2.501   1.724 -0.8204 -2.5203 -0.3232
  115RES   H25148359   5.003   2.433   1.618  0.4166  1.9473 -0.2076
  115RES   H25248360   5.131   2.443   1.510 -0.0042 -2.2948  0.0461
  115RES   H25348361   5.142   2.322   1.641 -2.0611 -0.5950 -0.6592
  115RES   C25448362   4.990   2.827   2.201 -0.5910 -0.0552 -0.1515
  115RES   C25548363   4.952   2.918   2.081  0.3359 -0.0540  0.4260
  115RES   C25648364   5.065   3.019   2.055 -0.2837 -0.2174 -0.3258
  115RES   C25748365   5.061   3.092   1.920  0.6234 -0.1949 -0.1208
  115RES   C25848366   5.092   2.996   1.802  0.4513  0.5360  0.2246
  115RES   C25948367   5.061   3.044   1.661  0.5278  0.1977 -0.1993
  115RES   C26048368   5.045   2.929   1.559 -0.4619  0.2796  0.0452
  115RES   H26148369   5.018   2.895   2.282  0.0180  0.6666 -0.9548
  115RES   H26248370   4.900   2.771   2.227 -0.7792  0.7377  0.9371
  115RES   H26348371   4.956   2.847   1.998  0.6284 -0.6574  0.9480
  115RES   H26448372   5.158   2.964   2.069 -0.9185 -1.7619 -1.9566
  115RES   H26548373   5.057   3.087   2.140 -4.9781 -2.7884  1.5354
  115RES   H26648374   4.957   3.124   1.915 -0.0510 -1.7987  2.6670
  115RES   H26748375   5.121   3.183   1.912  0.3489  0.0347  0.3704
  115RES   H26848376   5.045   2.898   1.811 -1.8228  1.6764  1.2338
  115RES   H26948377   5.199   2.977   1.809  0.0262 -2.2747 -0.3646
  115RES   H27048378   4.967   3.100   1.671  0.3674 -0.1319  0.1352
  115RES   H27148379   5.132   3.117   1.621  3.1560 -1.3987  1.4296
  115RES   H27248380   4.948   2.879   1.567  0.5354 -1.5166  1.0570
  115RES   H27348381   5.049   2.965   1.456 -1.9252  0.0888 -0.0923
  115RES   H27448382   5.122   2.855   1.581 -1.0279 -0.1293  0.6587
  115RES   C27548383   4.809   2.981   2.082 -0.3398 -0.4465  0.0099
  115RES   C27648384   4.689   2.887   2.087 -0.0986 -0.3464  0.8186
  115RES   C27748385   4.673   2.795   1.956  0.7194 -0.0402 -0.1574
  115RES   C27848386   4.658   2.870   1.826  0.2093  0.1333 -0.5511
  115RES   C27948387   4.641   2.769   1.712 -0.1136 -0.0403  0.4002
  115RES   C28048388   4.525   2.666   1.719 -0.2941  0.0110  0.2459
  115RES   C28148389   4.492   2.602   1.583 -0.0745  0.3076  1.7428
  115RES   H28248390   4.795   3.046   1.996 -0.3341  1.5254  1.4432
  115RES   H28348391   4.823   3.056   2.161  1.9404  1.7070 -2.3602
  115RES   H28448392   4.708   2.818   2.169 -2.0136  1.3902  2.7685
  115RES   H28548393   4.758   2.729   1.945  0.0699 -0.4115 -3.4759
  115RES   H28648394   4.583   2.733   1.966 -0.2623  1.1054 -1.6905
  115RES   H28748395   4.721   2.957   1.806 -0.1826  0.3944 -0.6770
  115RES   H28848396   4.562   2.921   1.829  0.7440  1.1491 -0.4591
  115RES   H28948397   4.736   2.720   1.694 -0.6125 -2.0300  2.8683
  115RES   H29048398   4.629   2.839   1.629  4.6370  1.9561  1.2388
  115RES   H29148399   4.552   2.590   1.792  1.4283  1.3211  1.0228
  115RES   H29248400   4.443   2.709   1.777 -1.5152 -0.6181 -0.9946
  115RES   H29348401   4.572   2.544   1.535 -1.8128 -0.7710  0.0726
  115RES   H29448402   4.448   2.675   1.515  1.0886  1.0944  1.8077
  115RES   H29548403   4.413   2.528   1.593  0.3092 -0.3143  0.3922
  115RES   C29648404   4.547   2.952   2.112  0.2974 -0.2080  0.1705
  115RES   C29748405   4.473   2.926   2.251  0.1390 -0.1807  0.3978
  115RES   C29848406   4.548   3.001   2.361  0.1429  0.4709  0.2699
  115RES   C29948407   4.566   3.144   2.333  0.0379 -0.1419  0.3902
  115RES   C30048408   4.584   3.221   2.453 -0.3081 -0.4260 -0.4476
  115RES   C30148409   4.460   3.227   2.549  0.6650 -0.5484 -0.4983
  115RES   C30248410   4.482   3.162   2.683 -0.5259  0.5748  0.6837
  115RES   H30348411   4.559   3.058   2.090  0.4891 -0.1118  0.7424
  115RES   H30448412   4.475   2.914   2.039 -1.0073 -1.0089  1.8312
  115RES   H30548413   4.374   2.970   2.244 -0.5059 -1.5827  0.5451
  115RES   H30648414   4.506   2.991   2.461 -0.1436 -2.1161 -0.0962
  115RES   H30748415   4.643   2.949   2.370  1.2456  2.3117 -0.3490
  115RES   H30848416   4.488   3.185   2.268  0.0953 -0.5169  0.0868
  115RES   H30948417   4.660   3.152   2.278  0.2444 -1.2394  0.5818
  115RES   H31048418   4.617   3.322   2.431 -1.6683  0.6368  2.1202
  115RES   H31148419   4.668   3.170   2.500 -1.7962 -1.2145  1.4290
  115RES   H31248420   4.442   3.333   2.563  2.8966 -0.0862 -0.9254
  115RES   H31348421   4.368   3.186   2.507 -0.0885  0.2690  0.3523
  115RES   H31448422   4.559   3.212   2.742  0.9396  1.1245 -1.6021
  115RES   H31548423   4.382   3.159   2.727 -1.9697  1.1232 -2.4037
  115RES   H31648424   4.513   3.059   2.668  0.0204  0.8767 -0.2794
  115RES   C31748425   4.455   2.774   2.273 -0.4038 -0.1177  0.5754
  115RES   C31848426   4.329   2.723   2.346 -0.1480 -0.4603  0.5102
  115RES   C31948427   4.306   2.774   2.489 -0.4665  1.3426  0.3696
  115RES   C32048428   4.422   2.733   2.584 -0.3514  0.0402 -0.0785
  115RES   C32148429   4.398   2.798   2.719 -0.2867  0.5191 -0.2748
  115RES   C32248430   4.512   2.777   2.823  0.0972  0.3160 -0.5954
  115RES   C32348431   4.511   2.866   2.950 -0.1728  0.1640 -0.2162
  115RES   H32448432   4.545   2.734   2.321 -0.5850 -2.4732 -0.9203
  115RES   H32548433   4.451   2.728   2.174 -4.7362  0.9520  0.1576
  115RES   H32648434   4.343   2.616   2.367  0.5497 -0.0633  2.1670
  115RES   H32748435   4.210   2.734   2.521 -1.0048  1.1804 -1.3964
  115RES   H32848436   4.298   2.883   2.492  2.0396  1.6342 -1.5246
  115RES   H32948437   4.514   2.777   2.544 -0.0811 -0.6306 -0.2040
  115RES   H33048438   4.444   2.627   2.595  1.8650  0.6192  1.4547
  115RES   H33148439   4.305   2.760   2.763  0.0669 -2.6690 -2.0960
  115RES   H33248440   4.380   2.905   2.711  0.4127  0.4761 -2.9458
  115RES   H33348441   4.602   2.792   2.764 -0.4032 -0.9498 -1.7000
  115RES   H33448442   4.513   2.670   2.844 -2.6058  0.6165  1.3654
  115RES   H33548443   4.419   2.862   3.009 -1.4599  0.9729 -2.1228
  115RES   H33648444   4.513   2.970   2.918  1.5392  0.9766  2.3712
  115RES   H33748445   4.597   2.844   3.014 -1.8969 -0.6198  1.8980
  115RES   C33848446   4.207   2.744   2.262 -0.5580  0.2345  0.3525
  115RES   C33948447   4.097   2.636   2.247  0.7478 -0.2650 -0.5301
  115RES   C34048448   4.025   2.595   2.376 -0.2585  0.7300 -0.4325
  115RES   C34148449   3.895   2.509   2.367  0.3395 -0.1058 -0.2904
  115RES   C34248450   3.842   2.491   2.512  0.2830 -0.4697 -0.2635
  115RES   C34348451   3.704   2.427   2.516 -0.0472  0.5053 -0.4749
  115RES   C34448452   3.638   2.427   2.655 -0.1984 -0.1384  0.0125
  115RES   H34548453   4.237   2.770   2.161  0.4864  0.3273  0.6792
  115RES   H34648454   4.159   2.837   2.293 -0.3831  1.3360 -2.5550
  115RES   H34748455   4.022   2.678   2.180  0.7222 -0.3740 -0.5687
  115RES   H34848456   4.088   2.545   2.450 -0.4239  0.4222 -0.5000
  115RES   H34948457   3.999   2.688   2.426 -0.8408  0.7372 -0.7494
  115RES   H35048458   3.911   2.411   2.322 -1.3205 -0.5660  0.0859
  115RES   H35148459   3.828   2.557   2.296  0.7523  0.9745  0.0427
  115RES   H35248460   3.905   2.423   2.570 -1.1237 -2.1172 -0.6090
  115RES   H35348461   3.835   2.581   2.573  3.1891  0.4884 -1.2631
  115RES   H35448462   3.633   2.477   2.450 -0.1214 -0.1298 -0.8777
  115RES   H35548463   3.717   2.323   2.487 -2.1079 -0.5450  2.1391
  115RES   H35648464   3.537   2.387   2.651  1.6650 -5.5156  1.9864
  115RES   H35748465   3.624   2.528   2.694  0.6299  0.5337 -1.3916
  115RES   H35848466   3.694   2.371   2.730  1.3418  0.9873 -0.2693
  115RES   C35948467   4.148   2.509   2.171 -0.5831 -0.3118  0.1482
  115RES   C36048468   4.099   2.500   2.023  0.2889  0.3221 -0.2198
  115RES   C36148469   4.156   2.612   1.928 -0.1229  0.3628  0.2920
  115RES   C36248470   4.091   2.613   1.788 -0.2717 -0.7852  0.7500
  115RES   C36348471   4.133   2.721   1.684 -0.2989  0.1055 -0.0942
  115RES   C36448472   4.159   2.861   1.743  0.0557 -0.0190 -0.9751
  115RES   C36548473   4.167   2.977   1.639 -0.1275 -0.0494 -0.0804
  115RES   H36648474   4.123   2.414   2.218  0.4846  0.5702  2.5970
  115RES   H36748475   4.257   2.507   2.176 -0.5746 -1.6767 -0.3686
  115RES   H36848476   3.991   2.513   2.022  0.2184 -0.3558 -2.5885
  115RES   H36948477   4.153   2.714   1.967 -0.4058 -0.1292  1.6081
  115RES   H37048478   4.262   2.593   1.913 -0.1683  0.6610 -0.3902
  115RES   H37148479   4.078   2.511   1.751 -1.2982 -0.8376  1.2146
  115RES   H37248480   3.986   2.637   1.809 -1.2027 -2.9292 -1.2032
  115RES   H37348481   4.234   2.696   1.651 -0.0160  1.8005 -0.5549
  115RES   H37448482   4.067   2.711   1.598  1.2623  1.8103 -1.5301
  115RES   H37548483   4.073   2.877   1.808  0.6732 -1.1120  0.1453
  115RES   H37648484   4.255   2.859   1.795 -0.4733  1.9821  0.1067
  115RES   H37748485   4.079   2.975   1.574  0.2835  0.7305 -0.6750
  115RES   H37848486   4.167   3.079   1.677 -3.3367  0.3592 -0.9731
  115RES   H37948487   4.260   2.970   1.582  0.3598  1.0911  0.5526
  115RES   C38048488   4.115   2.357   1.966 -0.3794  0.4520 -0.0010
  115RES   C38148489   4.261   2.308   1.918 -0.0355 -0.0677 -0.0040
  115RES   C38248490   4.346   2.292   2.043 -0.5522  0.7642 -0.1827
  115RES   C38348491   4.471   2.387   2.038 -0.2220 -0.0792  0.2295
  115RES   C38448492   4.577   2.354   2.148 -0.1835  0.0658 -0.2659
  115RES   C38548493   4.704   2.427   2.142  0.2061 -0.2643  0.5219
  115RES   C38648494   4.787   2.403   2.267 -0.2137 -0.6090  0.4841
  115RES   H38748495   4.088   2.280   2.039  0.1669 -0.0338 -0.3026
  115RES   H38848496   4.040   2.352   1.888 -2.0089 -0.3908  1.5853
  115RES   H38948497   4.306   2.378   1.848  1.7003 -2.6933 -1.5962
  115RES   H39048498   4.391   2.192   2.043 -0.4795  0.7927  0.2893
  115RES   H39148499   4.304   2.299   2.143  1.0412 -1.8734  0.7358
  115RES   H39248500   4.518   2.383   1.940  0.6631 -0.4635  0.6565
  115RES   H39348501   4.444   2.493   2.043  0.4101  0.1216 -0.5260
  115RES   H39448502   4.531   2.359   2.247  0.7692  0.3241  0.1774
  115RES   H39548503   4.600   2.248   2.148  1.0563  0.3199  0.6750
  115RES   H39648504   4.682   2.534   2.131 -0.3396 -0.2062  2.1580
  115RES   H39748505   4.764   2.397   2.055  1.3023  1.2071  0.7521
  115RES   H39848506   4.816   2.301   2.291  0.5935 -0.3818  0.4784
  115RES   H39948507   4.725   2.425   2.355 -1.1461 -2.7553  0.4130
  115RES   H40048508   4.874   2.468   2.275 -0.6841  0.3753 -1.9158
  115RES   C40148509   4.260   2.182   1.829  0.4032 -0.1085 -0.1232
  115RES   C40248510   4.177   2.182   1.694 -0.2804  0.4228 -1.3365
  115RES   C40348511   4.215   2.297   1.596 -0.4183  0.5311  0.3651
  115RES   C40448512   4.129   2.295   1.472 -0.2251 -0.1398 -0.0666
  115RES   C40548513   3.995   2.361   1.489 -0.1946 -0.5596  0.2376
  115RES   C40648514   3.933   2.384   1.351 -0.6584 -0.2904 -0.2732
  115RES   C40748515   3.794   2.437   1.345  0.5070 -0.7321 -0.6741
  115RES   H40848516   4.216   2.108   1.897  0.5530  0.0659  0.1629
  115RES   H40948517   4.360   2.147   1.805  0.1400 -0.2298 -1.0758
  115RES   H41048518   4.070   2.192   1.708 -0.4898 -1.4251 -1.4728
  115RES   H41148519   4.319   2.290   1.565 -0.3534 -1.1810  0.8976
  115RES   H41248520   4.217   2.397   1.639  0.3947  0.0379  1.4863
  115RES   H41348521   4.128   2.191   1.438 -0.6263  0.0664 -0.6955
  115RES   H41448522   4.183   2.345   1.392  0.1199  0.2146  0.3858
  115RES   H41548523   3.930   2.306   1.558 -2.4247  1.4214 -0.2334
  115RES   H41648524   3.998   2.457   1.541 -0.5299 -1.0809  1.2442
  115RES   H41748525   3.986   2.460   1.294 -0.4355 -1.5265 -1.7423
  115RES   H41848526   3.927   2.284   1.306  2.0589 -0.6080 -0.0153
  115RES   H41948527   3.771   2.455   1.240  1.8030 -2.6650 -1.3242
  115RES   H42048528   3.815   2.532   1.394 -2.2168 -0.4213 -0.0329
  115RES   H42148529   3.719   2.374   1.392 -0.0088  1.1205  1.0382
  115RES   H42248530   4.187   2.085   1.645 -0.0894 -1.3811  2.1313
  116RES     C148531   6.435   1.515   2.362  0.1234  0.2439  0.1881
  116RES     C248532   6.322   1.521   2.258 -0.0873  0.1082  0.2141
  116RES     C348533   6.184   1.555   2.320  0.4641  0.1329  0.9030
  116RES     C448534   6.184   1.687   2.381  0.0725 -0.2074 -0.2587
  116RES     C548535   6.050   1.737   2.426 -0.1906 -0.1435 -0.2376
  116RES     C648536   6.064   1.878   2.486  0.2575 -0.0470  0.2159
  116RES     C748537   5.929   1.927   2.541  0.8878 -0.2742 -0.4742
  116RES     H848538   6.534   1.494   2.323  0.6197  1.3326  0.8460
  116RES     H948539   6.418   1.435   2.434  0.2831 -1.0524 -1.1989
  116RES    H1048540   6.352   1.595   2.184  0.5440 -0.8873 -0.5374
  116RES    H1148541   6.109   1.552   2.241 -0.1455 -1.4643  1.5165
  116RES    H1248542   6.162   1.483   2.399 -3.7465  1.0408  0.6342
  116RES    H1348543   6.245   1.693   2.471 -0.3994 -0.1571  0.0626
  116RES    H1448544   6.221   1.751   2.301 -0.4827  1.1668  0.5662
  116RES    H1548545   6.000   1.680   2.505  1.8940 -0.1473  1.1233
  116RES    H1648546   5.989   1.742   2.336 -0.4123 -1.4073 -0.1615
  116RES    H1748547   6.104   1.945   2.409 -1.2208 -0.0022 -0.5477
  116RES    H1848548   6.134   1.889   2.568  2.9164  1.1808 -2.1176
  116RES    H1948549   5.936   2.015   2.605  0.5258  0.7854 -1.8518
  116RES    H2048550   5.895   1.845   2.603  0.1760 -0.6816 -1.3852
  116RES    H2148551   5.873   1.954   2.451 -0.9975  2.2429  1.3761
  116RES    H2248552   6.455   1.606   2.419 -0.0949  0.2141  0.3134
  116RES    C2348553   6.322   1.383   2.184  0.8721  0.4136  0.1734
  116RES    C2448554   6.214   1.349   2.082 -0.0576 -0.4601  0.0225
  116RES    C2548555   6.198   1.197   2.056 -0.6347  1.2241  0.4219
  116RES    C2648556   6.320   1.119   2.004 -0.4136  0.2382 -0.3172
  116RES    C2748557   6.285   0.975   1.982 -0.2166 -0.6191 -0.1098
  116RES    C2848558   6.403   0.880   1.960  0.6276 -0.0082 -0.0244
  116RES    C2948559   6.463   0.887   1.819  0.1599 -0.0527 -0.7782
  116RES    H3048560   6.425   1.369   2.151  1.1601  1.4452  0.6078
  116RES    H3148561   6.305   1.312   2.265 -0.2081 -1.1394 -1.3714
  116RES    H3248562   6.120   1.377   2.130  0.2359 -0.8547  0.8314
  116RES    H3348563   6.118   1.178   1.985  1.3975 -1.7955 -1.1554
  116RES    H3448564   6.161   1.141   2.142  0.2808  0.8543  0.5833
  116RES    H3548565   6.400   1.121   2.079  0.9947 -1.0527 -1.7287
  116RES    H3648566   6.360   1.162   1.912  1.8625  0.0373  0.5372
  116RES    H3748567   6.213   0.970   1.900  0.4071 -0.1279 -0.6840
  116RES    H3848568   6.229   0.939   2.069  1.2268  0.9979  1.5283
  116RES    H3948569   6.368   0.781   1.988  1.9711 -1.0952 -2.0424
  116RES    H4048570   6.485   0.894   2.030  2.2288 -1.9180 -1.4475
  116RES    H4148571   6.561   0.838   1.823 -0.1235 -0.7059 -1.5458
  116RES    H4248572   6.405   0.816   1.759  0.1228 -2.2172  1.7486
  116RES    H4348573   6.472   0.984   1.771 -1.0528 -0.0178 -0.9532
  116RES    C4448574   6.221   1.430   1.953  0.0565 -0.1377  0.5102
  116RES    C4548575   6.093   1.423   1.868 -0.2316 -0.2445 -0.1242
  116RES    C4648576   5.967   1.466   1.940  0.1512 -0.0935  0.2821
  116RES    C4748577   5.953   1.624   1.965 -0.7583  0.3873  0.1806
  116RES    C4848578   5.806   1.672   1.952  0.1987 -0.3400 -0.9726
  116RES    C4948579   5.760   1.702   1.812 -0.5315  0.5338 -1.2713
  116RES    C5048580   5.608   1.737   1.819  0.3448 -0.5079 -1.1568
  116RES    H5148581   6.301   1.386   1.893 -2.0900  0.1775 -2.7336
  116RES    H5248582   6.240   1.536   1.968  0.7687  0.1544 -2.1789
  116RES    H5348583   6.079   1.318   1.843  0.9781 -0.8381  1.6406
  116RES    H5448584   5.942   1.435   2.042 -2.4089 -0.6590 -0.4765
  116RES    H5548585   5.886   1.436   1.873 -0.3401 -0.9887  1.2504
  116RES    H5648586   5.983   1.647   2.067 -1.0555  1.2311  0.0754
  116RES    H5748587   6.023   1.684   1.908 -1.9179  1.1040 -0.4947
  116RES    H5848588   5.798   1.752   2.025 -0.4379 -2.0469  0.9006
  116RES    H5948589   5.740   1.600   2.001  0.6759  0.9091  1.5876
  116RES    H6048590   5.780   1.619   1.744 -0.3667 -0.5780  0.1065
  116RES    H6148591   5.816   1.789   1.780 -1.6143  1.3518 -0.9764
  116RES    H6248592   5.585   1.815   1.892  2.6180 -0.5072 -0.3947
  116RES    H6348593   5.551   1.649   1.850  1.9134 -0.7469  1.1258
  116RES    H6448594   5.564   1.771   1.725 -0.9971  0.0287 -0.3545
  116RES    C6548595   6.117   1.507   1.738  0.7027  0.1510  0.1298
  116RES    C6648596   6.211   1.439   1.635  0.1828 -0.8733  0.1755
  116RES    C6748597   6.333   1.534   1.633  0.9016 -0.1791  0.4979
  116RES    C6848598   6.449   1.480   1.550  0.6332  0.2598  0.6752
  116RES    C6948599   6.567   1.582   1.554 -0.8075  0.6593  0.0501
  116RES    C7048600   6.670   1.560   1.442 -0.3325 -0.2261  0.7437
  116RES    C7148601   6.780   1.668   1.440  0.6235 -0.1751  0.3234
  116RES    H7248602   6.019   1.520   1.692  1.6687 -0.7893 -2.2576
  116RES    H7348603   6.152   1.608   1.760  2.3902 -0.3210 -0.3429
  116RES    H7448604   6.245   1.339   1.663  2.8156 -0.1912 -0.4593
  116RES    H7548605   6.298   1.631   1.596  3.4902  0.1417 -1.2809
  116RES    H7648606   6.356   1.560   1.736  2.0133  0.5829  0.0637
  116RES    H7748607   6.484   1.380   1.574  2.7724  1.1415  1.3074
  116RES    H7848608   6.424   1.473   1.444 -1.7564  1.0297  1.1360
  116RES    H7948609   6.537   1.687   1.545  0.3316  1.0368  0.5282
  116RES    H8048610   6.615   1.585   1.652  0.6202 -0.3424 -0.6018
  116RES    H8148611   6.611   1.558   1.350 -1.2237  0.2312  1.2943
  116RES    H8248612   6.724   1.466   1.457  1.0201  0.6290  1.2314
  116RES    H8348613   6.746   1.771   1.449 -0.1715 -0.4263  0.3222
  116RES    H8448614   6.850   1.650   1.521  0.5556 -1.0804  0.1926
  116RES    H8548615   6.822   1.665   1.340  0.6923  1.4246  0.2972
  116RES    C8648616   6.150   1.420   1.499  0.6103 -0.8618 -0.4656
  116RES    C8748617   6.045   1.311   1.490 -0.1558 -0.1609  0.3011
  116RES    C8848618   5.914   1.357   1.413 -0.2843  0.1222  0.5701
  116RES    C8948619   5.819   1.449   1.485  0.1138 -0.0787 -0.5021
  116RES    C9048620   5.689   1.485   1.403 -0.2393 -0.1705 -0.3832
  116RES    C9148621   5.719   1.573   1.278 -0.4202 -0.7823 -0.1845
  116RES    C9248622   5.597   1.633   1.215  0.6327  0.0710  0.0647
  116RES    H9348623   6.115   1.522   1.481 -1.3256 -1.2167  1.1674
  116RES    H9448624   6.232   1.404   1.428  0.4482  0.5265 -0.9979
  116RES    H9548625   6.023   1.280   1.592  1.1378  1.9433  1.2538
  116RES    H9648626   5.931   1.404   1.316 -1.1396 -1.8740 -0.5570
  116RES    H9748627   5.849   1.273   1.388 -1.0679  0.3848  1.6790
  116RES    H9848628   5.788   1.400   1.578 -1.1488 -3.2084 -2.4945
  116RES    H9948629   5.883   1.530   1.521  0.1640 -1.1072  1.7911
  116RES   H10048630   5.626   1.538   1.474 -0.6703 -0.7438 -0.3263
  116RES   H10148631   5.630   1.397   1.374  1.2674 -1.6469  0.9549
  116RES   H10248632   5.779   1.656   1.316  0.5703 -2.4054  1.9312
  116RES   H10348633   5.774   1.508   1.210 -2.2635  1.4241 -3.9114
  116RES   H10448634   5.543   1.573   1.142 -0.0501  1.1213 -0.3218
  116RES   H10548635   5.631   1.716   1.152 -4.4515  0.7017 -2.1331
  116RES   H10648636   5.536   1.681   1.292 -0.7947 -0.6751 -0.5613
  116RES   C10748637   6.094   1.186   1.412 -0.2325  0.1480  0.0005
  116RES   C10848638   6.211   1.117   1.484 -0.1253  0.8188  0.1482
  116RES   C10948639   6.170   1.049   1.622 -0.1189 -0.1656 -0.9689
  116RES   C11048640   6.042   0.958   1.625 -0.4513  0.5033 -0.3174
  116RES   C11148641   6.005   0.904   1.763 -0.0863 -0.3253  1.1553
  116RES   C11248642   5.875   0.821   1.749 -0.0995  0.0569  0.3829
  116RES   C11348643   5.823   0.783   1.889 -0.0810 -0.5286 -0.6982
  116RES   H11448644   6.115   1.229   1.314 -1.7030 -0.8228 -0.7594
  116RES   H11548645   6.010   1.118   1.404 -0.8059  0.7465  0.8977
  116RES   H11648646   6.280   1.199   1.505 -1.1562  1.5717  0.6433
  116RES   H11748647   6.166   1.121   1.704 -2.4734 -3.2801  1.7841
  116RES   H11848648   6.243   0.979   1.662  1.6468  2.7716  1.1289
  116RES   H11948649   5.965   1.028   1.594 -1.0833 -0.7525 -1.6547
  116RES   H12048650   6.053   0.883   1.547 -0.5695 -1.6203  1.6545
  116RES   H12148651   5.985   0.986   1.833  0.2581 -1.0201  2.0733
  116RES   H12248652   6.079   0.843   1.814  0.4460  0.9050  1.8937
  116RES   H12348653   5.786   0.872   1.712  0.6200  0.7579 -0.3936
  116RES   H12448654   5.886   0.728   1.694 -0.6852  0.3338 -0.2116
  116RES   H12548655   5.763   0.864   1.932  1.1732 -0.0980  0.2876
  116RES   H12648656   5.772   0.688   1.879  1.1407 -1.2191 -0.5046
  116RES   H12748657   5.901   0.765   1.963  0.3551  3.2337 -0.0981
  116RES   C12848658   6.301   1.018   1.402  0.7236  0.0715  0.2476
  116RES   C12948659   6.362   1.067   1.262  1.0588  0.4939  0.0936
  116RES   C13048660   6.385   0.945   1.171 -0.5324  0.1720  0.2599
  116RES   C13148661   6.258   0.882   1.105 -0.0471  0.1936 -0.1415
  116RES   C13248662   6.267   0.739   1.047 -0.0332 -0.0396 -0.1453
  116RES   C13348663   6.362   0.727   0.930  0.1333  0.7479  0.1258
  116RES   C13448664   6.380   0.577   0.878  0.2681  0.2640  0.3094
  116RES   H13548665   6.377   1.003   1.479  1.4641  0.8865 -0.3103
  116RES   H13648666   6.244   0.925   1.401 -1.9732  1.6848  1.2664
  116RES   H13748667   6.287   1.129   1.211 -0.2642 -0.9154  0.2837
  116RES   H13848668   6.428   0.864   1.231 -0.6230  0.2880  0.4815
  116RES   H13948669   6.447   0.970   1.085 -1.1871  1.7977  0.2414
  116RES   H14048670   6.218   0.954   1.034  2.1381  2.0327  0.3917
  116RES   H14148671   6.177   0.879   1.177  2.2472 -0.6218  2.5136
  116RES   H14248672   6.168   0.725   1.004  0.8441 -1.0563 -1.8459
  116RES   H14348673   6.299   0.669   1.124 -1.1730 -1.7673 -1.2167
  116RES   H14448674   6.461   0.766   0.950 -0.8595  1.0986  4.8270
  116RES   H14548675   6.324   0.788   0.848  0.2351  0.8449  0.1517
  116RES   H14648676   6.434   0.531   0.961 -0.0226 -0.0893  0.3032
  116RES   H14748677   6.435   0.568   0.785 -0.2651 -0.1704  0.0336
  116RES   H14848678   6.289   0.519   0.868  1.1947 -0.9402 -1.2631
  116RES   C14948679   6.481   1.160   1.271 -0.2057  0.0516 -0.2821
  116RES   C15048680   6.514   1.246   1.149  0.9291 -0.1196 -0.2960
  116RES   C15148681   6.666   1.261   1.151  0.6433  0.4049 -0.0057
  116RES   C15248682   6.728   1.133   1.093 -0.8965  0.0556 -1.1851
  116RES   C15348683   6.707   1.120   0.940  0.1540  0.5023 -0.0334
  116RES   C15448684   6.797   1.011   0.887  0.4295  0.3159 -0.1895
  116RES   C15548685   6.778   0.870   0.950  0.0046  0.4043 -0.0056
  116RES   H15648686   6.470   1.225   1.357 -3.1296  0.4319 -0.9225
  116RES   H15748687   6.569   1.106   1.308 -0.0869  0.4412  0.0085
  116RES   H15848688   6.474   1.185   1.068 -3.3653 -0.7126  2.1113
  116RES   H15948689   6.680   1.337   1.074 -0.9553  2.0640  1.2840
  116RES   H16048690   6.704   1.292   1.248  1.2887 -3.2404  0.9663
  116RES   H16148691   6.685   1.044   1.137  0.5846 -0.3387 -0.5031
  116RES   H16248692   6.834   1.131   1.119 -1.1603 -0.3989 -0.1339
  116RES   H16348693   6.723   1.211   0.881 -3.4715  1.6089  0.5829
  116RES   H16448694   6.602   1.097   0.924 -0.0860  0.5979  1.4075
  116RES   H16548695   6.903   1.032   0.902  0.6441 -2.1034  1.9951
  116RES   H16648696   6.796   1.010   0.778  0.1634  0.5184 -0.1886
  116RES   H16748697   6.693   0.823   0.901  1.3601  1.5726 -3.7263
  116RES   H16848698   6.760   0.877   1.057  3.3888  0.9201  0.5904
  116RES   H16948699   6.862   0.803   0.929 -0.7239  0.1951 -2.5253
  116RES   C17048700   6.439   1.381   1.147 -0.0682  0.5348 -0.4362
  116RES   C17148701   6.340   1.384   1.030 -0.2262  0.1729 -0.4023
  116RES   C17248702   6.216   1.464   1.071 -0.2696 -0.0706  0.3288
  116RES   C17348703   6.254   1.614   1.093 -0.3362 -0.8445  0.4029
  116RES   C17448704   6.144   1.702   1.156 -0.4145 -0.4413  0.2535
  116RES   C17548705   6.193   1.849   1.167 -0.4185  0.3974 -0.3506
  116RES   C17648706   6.237   1.884   1.311 -0.4025 -0.0186 -0.0438
  116RES   H17748707   6.503   1.469   1.146 -0.6273  0.9478 -1.9023
  116RES   H17848708   6.387   1.399   1.241  1.6653  2.5290  0.1911
  116RES   H17948709   6.304   1.284   1.004 -1.3176  0.9459 -1.8837
  116RES   H18048710   6.167   1.417   1.157 -1.2229  1.3816  0.5887
  116RES   H18148711   6.145   1.454   0.989  0.3175 -1.5656 -0.0151
  116RES   H18248712   6.275   1.669   1.002  0.3284  0.1616  1.1472
  116RES   H18348713   6.345   1.618   1.153 -1.0971 -0.7635  1.5783
  116RES   H18448714   6.119   1.673   1.258 -2.9324 -0.2693 -0.2893
  116RES   H18548715   6.060   1.683   1.090  1.2570 -3.3909 -1.1144
  116RES   H18648716   6.113   1.921   1.147 -0.8600  0.0488  0.1442
  116RES   H18748717   6.274   1.876   1.099 -1.3718  0.2215 -1.5790
  116RES   H18848718   6.155   1.881   1.384 -1.2213  0.0480 -0.9531
  116RES   H18948719   6.268   1.988   1.313 -2.6630  0.7141 -1.2441
  116RES   H19048720   6.316   1.821   1.352 -1.8187 -1.5668  0.3713
  116RES   C19148721   6.408   1.439   0.896  0.1744  0.6215 -0.1192
  116RES   C19248722   6.327   1.391   0.770 -0.1736 -0.5340  0.4256
  116RES   C19348723   6.309   1.515   0.675 -0.2795  0.0396 -0.3103
  116RES   C19448724   6.186   1.603   0.705 -0.1884 -0.3374 -0.3768
  116RES   C19548725   6.178   1.748   0.644  0.3595  0.3871  0.1502
  116RES   C19648726   6.261   1.850   0.727  0.2218  0.8830  0.4095
  116RES   C19748727   6.249   1.989   0.671  0.4776 -0.4542 -0.0994
  116RES   H19848728   6.500   1.381   0.898 -0.3911 -0.2900 -0.0117
  116RES   H19948729   6.431   1.546   0.898 -0.0672  0.6636  0.4548
  116RES   H20048730   6.228   1.361   0.803 -0.6652  3.3312  2.8033
  116RES   H20148731   6.296   1.477   0.574  2.2122 -1.3219 -0.1612
  116RES   H20248732   6.400   1.574   0.671  0.6999 -1.5981 -2.9565
  116RES   H20348733   6.172   1.612   0.813  1.0299 -3.1021  0.0746
  116RES   H20448734   6.101   1.546   0.669 -1.2505  0.6631  0.4886
  116RES   H20548735   6.203   1.747   0.538  0.7650 -1.5754  0.2330
  116RES   H20648736   6.072   1.769   0.653 -0.1896 -2.3035  0.4291
  116RES   H20748737   6.366   1.826   0.738  0.5676  1.3810 -1.5848
  116RES   H20848738   6.227   1.853   0.830 -2.1545 -0.0755 -0.2853
  116RES   H20948739   6.146   2.021   0.682  1.2098  1.5968  1.0311
  116RES   H21048740   6.266   1.998   0.563  2.3751  0.2421  0.2258
  116RES   H21148741   6.320   2.058   0.717  0.4328 -0.3804 -0.1407
  116RES   C21248742   6.401   1.274   0.700 -0.3173 -0.0256  0.3199
  116RES   C21348743   6.315   1.179   0.616 -0.5067  0.1318 -0.5239
  116RES   C21448744   6.399   1.093   0.519 -0.0002 -0.4755 -0.5116
  116RES   C21548745   6.501   0.994   0.587  0.3998 -0.6084  0.5483
  116RES   C21648746   6.565   0.898   0.480 -0.7441 -0.1993 -0.3547
  116RES   C21748747   6.695   0.821   0.515  0.1154  0.1493 -0.1792
  116RES   C21848748   6.663   0.717   0.631 -0.6006  0.2117  0.2102
  116RES   H21948749   6.452   1.216   0.777  0.3993 -1.1292 -0.9712
  116RES   H22048750   6.473   1.328   0.640 -0.9059 -0.9458 -1.2499
  116RES   H22148751   6.251   1.243   0.556 -1.9513  1.5742  2.4286
  116RES   H22248752   6.337   1.043   0.444 -0.7178  0.0024 -0.2477
  116RES   H22348753   6.465   1.168   0.473 -0.7636  0.0761 -0.7207
  116RES   H22448754   6.452   0.943   0.670 -0.4965 -0.6738 -0.0189
  116RES   H22548755   6.585   1.048   0.630  0.8397 -2.0736  1.5571
  116RES   H22648756   6.483   0.837   0.443 -1.3175  0.2750  0.1313
  116RES   H22748757   6.594   0.966   0.400 -1.1931  0.5095  0.0800
  116RES   H22848758   6.733   0.781   0.421  1.3669  1.6764 -0.3524
  116RES   H22948759   6.763   0.897   0.553 -1.1588  0.9880  0.4665
  116RES   H23048760   6.750   0.675   0.681 -1.4182  0.2356  1.7063
  116RES   H23148761   6.608   0.644   0.571 -1.2152 -0.0484  1.0689
  116RES   H23248762   6.586   0.744   0.703 -0.5464  0.3432  0.2183
  116RES   C23348763   6.229   1.086   0.707 -0.0323 -0.4203  0.2768
  116RES   C23448764   6.124   0.999   0.626 -0.0505 -0.3983  0.7051
  116RES   C23548765   6.161   0.848   0.625 -0.4647  0.8669  0.6206
  116RES   C23648766   6.086   0.764   0.522  0.6934  0.0956 -0.1085
  116RES   C23748767   6.109   0.616   0.542 -0.0447  0.6615 -0.4982
  116RES   C23848768   6.251   0.569   0.500 -0.2793  0.2292  0.4409
  116RES   C23948769   6.272   0.419   0.530  0.9552  0.0740  0.3550
  116RES   H24048770   6.180   1.158   0.773  2.2445  1.1331  0.3502
  116RES   H24148771   6.281   1.023   0.779 -0.5027 -3.1186 -1.6799
  116RES   H24248772   6.135   1.042   0.526  0.5080 -1.3125  0.3656
  116RES   H24348773   6.128   0.813   0.723 -2.3024 -1.1140 -0.6654
  116RES   H24448774   6.268   0.836   0.606 -0.5444 -1.5328  1.5727
  116RES   H24548775   6.112   0.790   0.419  1.4314  0.5573  0.1932
  116RES   H24648776   5.981   0.792   0.528  0.1120 -1.5141 -1.9790
  116RES   H24748777   6.038   0.571   0.474 -0.8071  1.3203 -0.1494
  116RES   H24848778   6.081   0.586   0.643  0.4270  1.7076 -0.0466
  116RES   H24948779   6.275   0.585   0.395  1.2047 -1.0898  0.5595
  116RES   H25048780   6.329   0.619   0.556  2.0862 -5.0389  2.2010
  116RES   H25148781   6.282   0.403   0.637 -0.6202  0.5618  0.5891
  116RES   H25248782   6.188   0.360   0.494  0.7579  1.4032 -1.4576
  116RES   H25348783   6.359   0.378   0.477  1.8659  1.1497  1.0059
  116RES   C25448784   5.976   1.039   0.678 -0.3988  0.1000  0.2277
  116RES   C25548785   5.937   1.183   0.643 -0.3800  0.6627  0.1785
  116RES   C25648786   5.827   1.227   0.739  0.1957 -0.3274 -0.4718
  116RES   C25748787   5.869   1.241   0.891 -0.5283 -0.2573  0.5624
  116RES   C25848788   5.761   1.295   0.988  0.0736 -0.0808  0.8382
  116RES   C25948789   5.647   1.188   1.002 -0.0759  0.0110  0.1009
  116RES   C26048790   5.545   1.225   1.110  0.4378  0.4589  0.0432
  116RES   H26148791   5.978   1.023   0.786  0.5897 -1.2372  0.0216
  116RES   H26248792   5.904   0.963   0.649  1.6539 -1.8430  0.0556
  116RES   H26348793   6.026   1.244   0.658 -1.4693  2.1877  0.6609
  116RES   H26448794   5.749   1.152   0.737  1.0295 -1.2394  0.4727
  116RES   H26548795   5.788   1.322   0.704  1.0174 -1.2235 -3.9574
  116RES   H26648796   5.907   1.147   0.932  1.0256  0.1737  0.1681
  116RES   H26748797   5.957   1.306   0.889  0.7101 -1.7601  3.4196
  116RES   H26848798   5.719   1.391   0.960  0.9401 -0.6949 -2.7346
  116RES   H26948799   5.807   1.302   1.087 -1.5053  0.6307  1.5322
  116RES   H27048800   5.588   1.166   0.913 -0.6089 -1.0697  0.7131
  116RES   H27148801   5.687   1.089   1.020 -0.5218 -0.1967 -0.0328
  116RES   H27248802   5.519   1.330   1.111 -1.3189  0.1120 -2.6983
  116RES   H27348803   5.455   1.164   1.103  0.0506  1.0761 -0.4277
  116RES   H27448804   5.589   1.196   1.205 -0.0181 -0.3133  0.0251
  116RES   C27548805   5.883   1.207   0.499  0.1069  0.3231 -0.1428
  116RES   C27648806   5.756   1.132   0.455 -0.2957  0.5305 -0.1078
  116RES   C27748807   5.796   1.008   0.365 -0.1020  0.0188  0.1866
  116RES   C27848808   5.705   0.877   0.392  0.6121 -0.4438 -0.1767
  116RES   C27948809   5.734   0.747   0.314 -0.2354 -0.3690 -0.4000
  116RES   C28048810   5.666   0.743   0.174 -0.7149  0.3192 -0.5199
  116RES   C28148811   5.700   0.616   0.096 -0.6100  0.1761 -0.1768
  116RES   H28248812   5.968   1.184   0.434 -0.3536 -1.0106 -0.2797
  116RES   H28348813   5.861   1.313   0.485 -0.6962 -0.0027 -1.3634
  116RES   H28448814   5.715   1.086   0.545  2.2075 -0.1133  0.7377
  116RES   H28548815   5.792   1.032   0.258 -1.9291 -0.2205  0.1863
  116RES   H28648816   5.897   0.969   0.375 -0.6069 -1.5294 -0.5315
  116RES   H28748817   5.603   0.910   0.377  0.1966 -1.9249 -0.6914
  116RES   H28848818   5.725   0.857   0.497 -0.3755  1.4223  0.3897
  116RES   H28948819   5.698   0.666   0.377  1.5665  1.0037  2.4904
  116RES   H29048820   5.841   0.731   0.301 -0.3924 -2.3025  0.4745
  116RES   H29148821   5.561   0.766   0.190 -0.6949 -0.6159  1.0797
  116RES   H29248822   5.706   0.825   0.114  2.8581 -1.6157 -0.9273
  116RES   H29348823   5.679   0.526   0.153 -2.1059  0.7911  0.2672
  116RES   H29448824   5.799   0.613   0.051 -1.4040 -2.4586 -1.8677
  116RES   H29548825   5.642   0.599   0.005 -1.0754  0.8651 -0.0114
  116RES   C29648826   5.645   1.225   0.386  0.2881 -0.1592  0.2597
  116RES   C29748827   5.578   1.322   0.481 -0.2594 -0.9564  0.0069
  116RES   C29848828   5.487   1.241   0.577 -0.2470  0.0204  0.0913
  116RES   C29948829   5.418   1.316   0.691  0.3026  0.2393  0.1115
  116RES   C30048830   5.323   1.222   0.762  0.6049  0.2410 -0.1642
  116RES   C30148831   5.237   1.305   0.855  0.1325  0.5187 -0.9087
  116RES   C30248832   5.147   1.228   0.939 -0.0276  0.6299  0.9667
  116RES   H30348833   5.685   1.289   0.308  0.8224  0.1863  0.8146
  116RES   H30448834   5.571   1.163   0.335 -1.3321  1.1097  1.0111
  116RES   H30548835   5.641   1.387   0.543  0.4938 -1.8708  0.2167
  116RES   H30648836   5.419   1.173   0.525  0.6312 -0.2826 -0.6735
  116RES   H30748837   5.553   1.168   0.624  0.8061 -0.7010 -2.4246
  116RES   H30848838   5.370   1.405   0.652  0.9762  1.2055  1.4612
  116RES   H30948839   5.493   1.355   0.760 -0.7137 -2.3663  2.7706
  116RES   H31048840   5.386   1.145   0.806  1.4180  1.4865  0.8702
  116RES   H31148841   5.268   1.177   0.679 -0.0364  2.0284 -0.7286
  116RES   H31248842   5.286   1.371   0.926 -0.9736 -1.8807  2.1932
  116RES   H31348843   5.164   1.364   0.798 -0.0369 -0.4593 -1.7169
  116RES   H31448844   5.072   1.179   0.877  0.4463  2.1543 -0.8572
  116RES   H31548845   5.192   1.163   1.014  1.8629 -1.1963 -1.6835
  116RES   H31648846   5.095   1.304   0.997 -0.6996  0.0587  1.1270
  116RES   C31748847   5.478   1.420   0.405  0.7137 -0.1718 -0.6922
  116RES   C31848848   5.533   1.530   0.309 -0.3637 -0.0703  0.4287
  116RES   C31948849   5.414   1.605   0.245 -0.2256 -0.0126  0.1782
  116RES   C32048850   5.308   1.531   0.156  0.0717 -0.2645  0.3720
  116RES   C32148851   5.203   1.627   0.089  0.1130  0.8736  0.0664
  116RES   C32248852   5.116   1.565   7.704 -0.4833 -0.2092 -0.1226
  116RES   C32348853   5.013   1.460   0.029 -0.2239  0.7011  0.1553
  116RES   H32448854   5.416   1.474   0.475  2.9493 -0.3254  1.4641
  116RES   H32548855   5.401   1.354   0.365  0.0822  0.8116 -1.1205
  116RES   H32648856   5.593   1.488   0.228  0.4713  3.5461 -0.9556
  116RES   H32748857   5.449   1.685   0.180  2.8625  0.8930  2.7974
  116RES   H32848858   5.359   1.654   0.326 -1.4052 -3.4597  1.5954
  116RES   H32948859   5.257   1.457   0.218  0.5571 -1.8480 -1.0566
  116RES   H33048860   5.360   1.472   0.080  2.6077  0.7308  1.2698
  116RES   H33148861   5.257   1.710   0.044  0.6164  0.2918 -0.4180
  116RES   H33248862   5.139   1.681   0.158  2.0188  1.7322  1.1932
  116RES   H33348863   5.186   1.513   7.639  0.8903 -1.4847  2.3018
  116RES   H33448864   5.063   1.638   7.642  0.5956  0.6970  0.0214
  116RES   H33548865   4.972   1.399   7.675  0.0267  3.6881 -2.2915
  116RES   H33648866   4.932   1.506   0.086  0.0206  1.2364  0.0711
  116RES   H33748867   5.058   1.386   0.095 -0.5771  1.4999  1.2958
  116RES   C33848868   5.619   1.640   0.388  0.4428  0.1016  0.1075
  116RES   C33948869   5.718   1.719   0.306  0.3847 -0.0227 -0.7665
  116RES   C34048870   5.847   1.647   0.276 -0.1087  0.3696  0.0191
  116RES   C34148871   5.946   1.711   0.179  0.4830 -0.2268 -0.0013
  116RES   C34248872   6.058   1.621   0.120  0.6443 -0.5530  0.0511
  116RES   C34348873   6.151   1.698   0.029 -0.7571 -0.1221 -0.2505
  116RES   C34448874   6.084   1.712   7.618  0.3036  0.4658  0.3511
  116RES   H34548875   5.681   1.593   0.464  0.7373  1.3265  0.6273
  116RES   H34648876   5.540   1.698   0.435 -0.0743 -1.0851  0.7344
  116RES   H34748877   5.663   1.741   0.214 -2.2151 -3.0785 -0.0015
  116RES   H34848878   5.896   1.630   0.372  0.1146 -0.2157 -0.1955
  116RES   H34948879   5.830   1.544   0.242 -0.4028 -0.5704  2.8817
  116RES   H35048880   6.007   1.783   0.233  0.1637 -1.2847  1.8252
  116RES   H35148881   5.888   1.759   0.100  1.4392 -0.0247 -0.5924
  116RES   H35248882   6.121   1.582   0.200  0.6932 -2.3976 -0.8809
  116RES   H35348883   6.028   1.531   0.067  1.7503 -0.0207 -1.5248
  116RES   H35448884   6.162   1.801   0.060 -0.3779 -0.3065  0.2201
  116RES   H35548885   6.254   1.665   0.020 -0.2992  0.9319  1.1164
  116RES   H35648886   6.147   1.779   7.558  1.7360 -1.5516 -0.4365
  116RES   H35748887   5.979   1.742   7.621  0.1006  0.4930 -3.6594
  116RES   H35848888   6.082   1.614   7.570  0.7189  1.8033 -2.5263
  116RES   C35948889   5.746   1.855   0.370 -0.0926 -0.4562 -0.1316
  116RES   C36048890   5.638   1.958   0.413  0.3920  0.4289  0.0227
  116RES   C36148891   5.709   2.070   0.490  0.3627  0.3087  0.0567
  116RES   C36248892   5.813   2.153   0.410  0.7961  0.5912 -0.0494
  116RES   C36348893   5.841   2.285   0.484  0.0268 -0.3108  0.0461
  116RES   C36448894   5.935   2.378   0.415 -0.6059  0.0904  0.3856
  116RES   C36548895   6.079   2.338   0.399  0.2362  0.1270 -0.3546
  116RES   H36648896   5.808   1.906   0.297  0.1864 -0.1233  0.3296
  116RES   H36748897   5.823   1.844   0.447  0.2625  0.9685 -0.2680
  116RES   H36848898   5.566   1.916   0.483  1.7448  1.7540  2.2839
  116RES   H36948899   5.635   2.139   0.531 -1.0073 -0.3440 -1.2625
  116RES   H37048900   5.749   2.028   0.582 -1.9075 -1.1899  0.4059
  116RES   H37148901   5.899   2.092   0.382  1.9373  1.5860  1.2178
  116RES   H37248902   5.763   2.171   0.315 -1.6271 -2.7474  0.4802
  116RES   H37348903   5.745   2.337   0.493 -0.0881 -0.6863  0.9750
  116RES   H37448904   5.868   2.280   0.589 -0.2510  2.8982  0.3374
  116RES   H37548905   5.888   2.403   0.320  1.3706 -0.1593 -0.6803
  116RES   H37648906   5.923   2.475   0.464  2.6240  1.2515 -0.9844
  116RES   H37748907   6.120   2.309   0.495 -0.8938 -1.5397 -0.3540
  116RES   H37848908   6.091   2.250   0.336 -1.1716 -1.4366  1.5072
  116RES   H37948909   6.132   2.425   0.360  0.2097  0.1868 -0.2570
  116RES   C38048910   5.549   1.999   0.293 -0.7613  0.3322 -0.0937
  116RES   C38148911   5.437   2.104   0.317  0.2624  0.3239  0.9429
  116RES   C38248912   5.368   2.158   0.184  0.6029  0.6296 -0.6921
  116RES   C38348913   5.443   2.268   0.108 -0.0407  0.6786 -0.4037
  116RES   C38448914   5.369   2.305   7.699  0.9445 -0.3164  0.0755
  116RES   C38548915   5.455   2.390   7.610 -0.5390  0.0982 -0.1723
  116RES   C38648916   5.374   2.437   7.487 -0.2690 -0.0938  0.4774
  116RES   H38748917   5.612   2.042   0.216  0.0769  1.8321  1.3895
  116RES   H38848918   5.504   1.910   0.249 -0.8859 -1.3464  3.2312
  116RES   H38948919   5.485   2.193   0.357  0.0375  0.9543 -0.1837
  116RES   H39048920   5.267   2.197   0.201  1.5759  2.5226  1.0448
  116RES   H39148921   5.348   2.076   0.116  0.4244  0.6979 -0.7229
  116RES   H39248922   5.458   2.355   0.172 -1.1199  2.4375 -2.4691
  116RES   H39348923   5.546   2.232   0.104 -0.9748 -2.0707 -1.5243
  116RES   H39448924   5.341   2.213   7.649 -1.6774  0.0063  0.9081
  116RES   H39548925   5.284   2.364   0.006  0.2658 -1.4138  0.2921
  116RES   H39648926   5.539   2.326   7.585 -1.2094 -1.6758  1.9129
  116RES   H39748927   5.504   2.478   7.653  0.7436 -1.1176  0.9000
  116RES   H39848928   5.281   2.468   7.534  0.0104  0.8714  0.4137
  116RES   H39948929   5.366   2.357   7.413  0.9567 -0.7140  1.0038
  116RES   H40048930   5.416   2.522   7.433 -1.9494  0.5794  0.1798
  116RES   C40148931   5.333   2.066   0.427 -0.4051 -0.6530 -0.1768
  116RES   C40248932   5.277   1.931   0.394 -0.2620 -0.0509  0.7008
  116RES   C40348933   5.164   1.898   0.481  0.1206 -0.2037 -0.2741
  116RES   C40448934   5.122   1.751   0.472  0.5208  0.2462  0.3641
  116RES   C40548935   4.983   1.733   0.541 -0.1991 -0.6105  0.0644
  116RES   C40648936   4.993   1.699   0.690 -0.1873  0.4187  0.0078
  116RES   C40748937   4.878   1.616   0.743  0.2810 -0.0863 -0.1286
  116RES   H40848938   5.261   2.148   0.424  0.0847 -0.1520  1.1352
  116RES   H40948939   5.375   2.075   0.527  0.6182 -0.8400 -0.5889
  116RES   H41048940   5.364   1.869   0.415  1.5458  2.0879 -0.2908
  116RES   H41148941   5.083   1.970   0.470  0.1735 -0.0786  0.1539
  116RES   H41248942   5.183   1.918   0.587 -0.2018 -1.8339  0.1110
  116RES   H41348943   5.196   1.677   0.502 -1.2312 -1.7071 -0.0431
  116RES   H41448944   5.106   1.732   0.366 -0.4826  1.6526  0.2488
  116RES   H41548945   4.921   1.821   0.526  2.0504  0.9580 -0.3142
  116RES   H41648946   4.922   1.655   0.496 -1.3847  0.5713 -0.4132
  116RES   H41748947   5.072   1.624   0.695 -0.3281  0.1057 -2.0536
  116RES   H41848948   5.007   1.792   0.744 -1.0309  1.0132 -0.7871
  116RES   H41948949   4.891   1.601   0.850  0.1272 -3.0829 -0.4941
  116RES   H42048950   4.873   1.525   0.684  2.1223  0.2884 -0.8876
  116RES   H42148951   4.779   1.662   0.741  0.5302  0.5112  0.9664
  116RES   H42248952   5.251   1.913   0.290  0.5377 -0.1880  0.5258
  117RES     C148953   7.004   6.155   3.731 -0.3403 -0.4429 -0.3937
  117RES     C248954   6.860   6.143   3.682  0.0925 -0.5615  0.3512
  117RES     C348955   6.831   6.000   3.632 -0.0007  0.4562 -0.0487
  117RES     C448956   6.812   5.898   3.746 -0.6111 -0.9462 -0.1363
  117RES     C548957   6.817   5.747   3.714 -1.2960 -0.2503  0.6846
  117RES     C648958   6.694   5.668   3.654  0.1677 -0.0012  0.6691
  117RES     C748959   6.714   5.513   3.657 -0.2572 -0.3210  1.0683
  117RES     H848960   7.072   6.125   3.651 -0.7744 -0.5570 -0.7219
  117RES     H948961   7.020   6.110   3.829 -2.2428 -2.2856 -0.8724
  117RES    H1048962   6.792   6.160   3.765 -1.0636 -1.5913 -0.3833
  117RES    H1148963   6.741   5.994   3.571  0.8670 -1.1192 -1.1937
  117RES    H1248964   6.916   5.976   3.569 -0.6972 -1.1262 -0.4072
  117RES    H1348965   6.895   5.912   3.815 -1.0130  1.0981 -0.0489
  117RES    H1448966   6.727   5.916   3.811  1.3387 -0.2286  2.2723
  117RES    H1548967   6.856   5.692   3.799 -0.9952 -2.3966 -0.7877
  117RES    H1648968   6.898   5.732   3.642  0.6520  3.8480  1.9160
  117RES    H1748969   6.681   5.683   3.546 -0.5972  0.9339  0.8813
  117RES    H1848970   6.601   5.692   3.706  0.2737  0.4807  0.6441
  117RES    H1948971   6.727   5.464   3.754 -0.8905  1.4279  2.0746
  117RES    H2048972   6.807   5.477   3.612  0.0572  0.7904  0.8188
  117RES    H2148973   6.638   5.455   3.606  0.8497 -1.5789  0.8232
  117RES    H2248974   7.028   6.260   3.741 -1.9782  0.1586 -2.4333
  117RES    C2348975   6.847   6.250   3.572 -0.0597  0.3021 -0.4728
  117RES    C2448976   6.832   6.393   3.617  0.5766 -0.2897  0.5307
  117RES    C2548977   6.707   6.414   3.701  0.3203 -0.7030 -0.2608
  117RES    C2648978   6.565   6.388   3.640  1.2471 -0.5638  0.4646
  117RES    C2748979   6.453   6.425   3.738 -0.2682  0.1012 -0.2037
  117RES    C2848980   6.310   6.397   3.681 -0.0400 -0.6537 -0.3576
  117RES    C2948981   6.203   6.441   3.771 -0.6178  0.0933  0.0113
  117RES    H3048982   6.926   6.237   3.498  0.0661  2.5547 -0.7680
  117RES    H3148983   6.757   6.223   3.516 -0.3286  0.3547 -0.0683
  117RES    H3248984   6.914   6.427   3.680  2.7901 -0.5418 -2.1332
  117RES    H3348985   6.712   6.517   3.736 -1.7231 -0.4133 -0.7499
  117RES    H3448986   6.717   6.364   3.797 -1.0941 -1.7083 -0.6332
  117RES    H3548987   6.554   6.285   3.605 -2.4992  0.4151 -1.4191
  117RES    H3648988   6.548   6.448   3.550 -0.0708  2.2506  2.5317
  117RES    H3748989   6.458   6.530   3.765  1.2233 -0.0517  0.1686
  117RES    H3848990   6.461   6.370   3.832 -0.8580  0.9385  0.3481
  117RES    H3948991   6.303   6.290   3.660  0.8607 -0.9522  0.8198
  117RES    H4048992   6.287   6.449   3.588  1.1317  0.0837 -0.2434
  117RES    H4148993   6.181   6.363   3.843  0.9047  0.6185  1.0550
  117RES    H4248994   6.218   6.539   3.816 -3.8768 -0.8804  3.5525
  117RES    H4348995   6.105   6.459   3.725 -0.2224 -0.6179 -1.1397
  117RES    C4448996   6.853   6.493   3.501 -0.8610 -0.3565 -0.1018
  117RES    C4548997   6.993   6.558   3.467 -0.2801  0.1187 -0.0828
  117RES    C4648998   7.101   6.449   3.457 -0.4132 -0.1925  0.3021
  117RES    C4748999   7.237   6.504   3.407  0.2537 -0.2318  0.1737
  117RES    C4849000   7.345   6.393   3.400  0.4177  0.2570  0.5594
  117RES    C4949001   7.478   6.453   3.352  0.2036  0.2773  0.0125
  117RES    C5049002   7.589   6.350   3.343 -0.6260 -0.0132 -1.0210
  117RES    H5149003   6.775   6.569   3.504 -0.6312  0.1904 -4.3591
  117RES    H5249004   6.833   6.442   3.407  0.3894  0.5198 -0.8624
  117RES    H5349005   7.027   6.630   3.541 -1.9533 -0.3294  1.1684
  117RES    H5449006   7.069   6.378   3.380  0.1884  0.8829 -0.9623
  117RES    H5549007   7.130   6.396   3.548 -0.2239 -3.1939 -1.4306
  117RES    H5649008   7.235   6.550   3.308  2.4527 -1.1595 -0.3358
  117RES    H5749009   7.277   6.579   3.476  1.7374 -1.6734  0.9024
  117RES    H5849010   7.306   6.310   3.341  1.2103  0.0937  0.2438
  117RES    H5949011   7.370   6.347   3.496  0.2996 -0.9378  0.0242
  117RES    H6049012   7.518   6.521   3.427  1.4280 -0.7587  0.3108
  117RES    H6149013   7.470   6.510   3.260  0.1909  2.2290  1.1921
  117RES    H6249014   7.676   6.402   3.303 -0.8250 -0.2448 -1.7795
  117RES    H6349015   7.561   6.267   3.278  0.1657 -0.2912 -1.0165
  117RES    H6449016   7.603   6.309   3.443 -1.8032  1.4079 -0.2559
  117RES    C6549017   6.984   6.659   3.341 -0.0469  0.0989  0.7153
  117RES    C6649018   6.877   6.766   3.356  0.2457 -0.6932 -0.0259
  117RES    C6749019   6.860   6.847   3.225  0.2146  0.0934 -0.7915
  117RES    C6849020   6.819   6.767   3.097 -0.1203  0.8444 -0.9348
  117RES    C6949021   6.839   6.862   2.976  0.1378  0.1810  0.0180
  117RES    C7049022   6.807   6.802   2.837  0.2384 -0.4765  0.0403
  117RES    C7149023   6.833   6.884   2.725 -0.3150  0.0098  0.2017
  117RES    H7249024   7.078   6.715   3.337  0.2751 -0.4860  0.0683
  117RES    H7349025   6.979   6.602   3.248  0.5206  0.3859  0.5083
  117RES    H7449026   6.778   6.720   3.364  0.2561 -0.4009  2.1229
  117RES    H7549027   6.784   6.922   3.244 -2.1225 -2.5951  1.0391
  117RES    H7649028   6.956   6.894   3.203  0.7026 -1.5574 -2.3486
  117RES    H7749029   6.880   6.681   3.067  0.0380  1.3923 -2.2068
  117RES    H7849030   6.713   6.743   3.103  0.5781 -1.9595  1.7670
  117RES    H7949031   6.781   6.954   2.989 -0.4655 -0.0842 -0.7542
  117RES    H8049032   6.939   6.904   2.971  0.7043 -1.0287  0.7746
  117RES    H8149033   6.710   6.754   2.836  0.2068 -0.4970  2.1373
  117RES    H8249034   6.879   6.721   2.830  0.7190 -0.4521  3.6408
  117RES    H8349035   6.792   6.984   2.744  0.2663  0.2097  0.4420
  117RES    H8449036   6.942   6.884   2.728 -0.2665 -3.1326  0.0315
  117RES    H8549037   6.792   6.839   2.635  3.1336 -0.9312 -0.9642
  117RES    C8649038   6.903   6.859   3.485 -0.2932 -0.4776 -0.1677
  117RES    C8749039   6.794   6.948   3.534 -0.0109 -0.0215  0.1127
  117RES    C8849040   6.675   6.858   3.595  0.2716 -0.2063  0.5714
  117RES    C8949041   6.534   6.898   3.550 -0.2283  0.6671  0.2833
  117RES    C9049042   6.419   6.809   3.591 -0.6836 -0.1780 -0.2165
  117RES    C9149043   6.283   6.852   3.538  0.0859 -0.0676  0.1372
  117RES    C9249044   6.173   6.757   3.585 -0.0070 -0.0747  0.3120
  117RES    H9349045   6.933   6.801   3.573  0.8718  0.4297  0.0447
  117RES    H9449046   6.994   6.919   3.478  0.8881 -1.7124  3.3360
  117RES    H9549047   6.759   7.001   3.446 -1.3700  1.1974  1.3544
  117RES    H9649048   6.690   6.752   3.571 -4.0009 -0.6108 -0.6986
  117RES    H9749049   6.680   6.856   3.704 -3.0566 -0.3136  0.7807
  117RES    H9849050   6.513   7.002   3.576 -0.5528  0.4132  1.0486
  117RES    H9949051   6.532   6.896   3.441  1.9931 -2.5583  0.2255
  117RES   H10049052   6.414   6.808   3.700 -2.7334  0.6891 -0.2759
  117RES   H10149053   6.423   6.704   3.561 -1.9370 -0.8327  1.8083
  117RES   H10249054   6.270   6.953   3.577  1.0950 -0.6569  2.0731
  117RES   H10349055   6.284   6.849   3.429  0.3065 -2.1959  0.1709
  117RES   H10449056   6.077   6.776   3.537  0.1157 -1.4181 -0.4965
  117RES   H10549057   6.162   6.761   3.694 -1.9444  0.0458  0.1220
  117RES   H10649058   6.176   6.653   3.553  1.1950  0.0778 -0.0939
  117RES   C10749059   6.847   7.055   3.635 -0.0827  0.0396  0.1914
  117RES   C10849060   6.753   7.174   3.657  0.0659  0.4075 -0.0454
  117RES   C10949061   6.768   7.236   3.801 -0.2298  0.9237  0.4813
  117RES   C11049062   6.686   7.175   3.914 -0.0050 -0.0929 -0.6057
  117RES   C11149063   6.537   7.218   3.915  0.2618  0.6817 -0.1344
  117RES   C11249064   6.462   7.212   4.047  0.1360  0.6003  0.0396
  117RES   C11349065   6.477   7.324   4.150  0.0976 -0.1016  0.1763
  117RES   H11449066   6.948   7.083   3.605 -0.2999  0.5174 -0.0848
  117RES   H11549067   6.880   7.013   3.730  1.7973 -0.7962 -0.7786
  117RES   H11649068   6.654   7.129   3.651 -0.2801  1.1992 -0.4932
  117RES   H11749069   6.746   7.343   3.798  1.6276  1.2656 -1.5984
  117RES   H11849070   6.873   7.232   3.829  0.1948  0.5110 -1.1565
  117RES   H11949071   6.697   7.067   3.924  0.9100 -0.3526 -3.9800
  117RES   H12049072   6.730   7.219   4.004 -2.2708 -0.1029  0.5392
  117RES   H12149073   6.490   7.146   3.847 -0.9827  1.6629 -0.3478
  117RES   H12249074   6.518   7.318   3.874  2.0307  1.8645  1.8767
  117RES   H12349075   6.358   7.190   4.025  0.5583 -0.2032 -1.2514
  117RES   H12449076   6.501   7.122   4.095 -0.3537  0.6343  0.4988
  117RES   H12549077   6.562   7.298   4.214 -0.4962 -0.8288  0.6707
  117RES   H12649078   6.479   7.424   4.107  1.8745  0.2288  0.9659
  117RES   H12749079   6.387   7.328   4.211 -1.4989  1.1775 -2.1930
  117RES   C12849080   6.763   7.281   3.550  0.2298  0.1402  0.0726
  117RES   C12949081   6.647   7.377   3.541 -0.5545 -0.1453 -0.1652
  117RES   C13049082   6.509   7.314   3.499 -0.0607  0.1947  0.0260
  117RES   C13149083   6.500   7.253   3.364 -0.1264 -0.3667 -0.1061
  117RES   C13249084   6.351   7.207   3.330  0.1124 -0.4889  1.0651
  117RES   C13349085   6.348   7.094   3.224  0.3144  0.0890  0.1031
  117RES   C13449086   6.396   7.128   3.080 -0.3331  0.1049 -0.1748
  117RES   H13549087   6.855   7.338   3.562  0.7383 -0.5060 -0.7047
  117RES   H13649088   6.773   7.237   3.451  2.1333 -1.4191  0.9311
  117RES   H13749089   6.628   7.412   3.642 -1.9528 -0.4574 -0.3088
  117RES   H13849090   6.437   7.396   3.507 -0.5046 -0.2549  0.6154
  117RES   H13949091   6.486   7.243   3.579  1.6055  0.8815  1.1404
  117RES   H14049092   6.564   7.164   3.364  0.1214 -0.1974  0.8584
  117RES   H14149093   6.533   7.321   3.285  0.5906  1.2425  1.5483
  117RES   H14249094   6.280   7.285   3.300 -0.4606 -1.3849  0.0757
  117RES   H14349095   6.297   7.171   3.418  0.5120 -1.2529  0.9997
  117RES   H14449096   6.246   7.054   3.223 -0.3049  1.6518  0.0782
  117RES   H14549097   6.411   7.011   3.257  0.9879  0.5562  0.0059
  117RES   H14649098   6.498   7.158   3.054 -0.5479  1.6612  0.6817
  117RES   H14749099   6.328   7.200   3.036 -1.0613 -0.5703 -0.1578
  117RES   H14849100   6.381   7.037   3.023  2.1678 -1.6973  1.9151
  117RES   C14949101   6.680   7.509   3.458  0.8346 -0.1944 -0.2718
  117RES   C15049102   6.796   7.592   3.509  0.4216 -0.0443 -1.0356
  117RES   C15149103   6.754   0.004   3.564  0.0253 -0.5654  0.1310
  117RES   C15249104   6.658   7.714   3.676 -0.2306  0.1470 -0.4543
  117RES   C15349105   6.622   0.114   3.751 -0.2605  0.4825  0.5454
  117RES   C15449106   6.534   0.084   3.874 -0.3505  0.3791 -0.5307
  117RES   C15549107   6.618   0.037   4.000  0.3340  0.3352  0.3576
  117RES   H15649108   6.691   7.493   3.351  1.0679  1.8139 -0.5562
  117RES   H15749109   6.591   7.570   3.441  1.1139  0.1730 -0.4143
  117RES   H15849110   6.853   7.533   3.581  0.4617  1.7471  0.4456
  117RES   H15949111   6.844   0.057   3.594  0.0046  0.1002 -0.9542
  117RES   H16049112   6.724   0.066   3.480 -0.7941 -1.3650 -0.1752
  117RES   H16149113   6.696   7.634   3.738  1.4318  0.4556 -1.0442
  117RES   H16249114   6.566   7.677   3.630 -0.5489  1.0079 -0.5307
  117RES   H16349115   6.574   0.195   3.696 -1.6031 -0.0052  0.9689
  117RES   H16449116   6.713   0.162   3.787  0.5727  0.7549 -1.8813
  117RES   H16549117   6.454   0.010   3.865  1.0349 -1.7044  3.1579
  117RES   H16649118   6.476   0.172   3.900  1.4065  1.7336 -1.1105
  117RES   H16749119   6.655   0.116   4.065 -0.0834  1.2651 -0.5227
  117RES   H16849120   6.700   7.701   3.967  0.2465  1.5299 -2.2228
  117RES   H16949121   6.557   7.698   4.062 -0.7131  0.8444 -0.1238
  117RES   C17049122   6.898   7.609   3.397  0.1423 -0.0585 -0.4772
  117RES   C17149123   7.041   7.647   3.442 -0.1274  0.0742  0.0391
  117RES   C17249124   7.120   7.521   3.490 -0.2837  0.8554 -1.0322
  117RES   C17349125   7.248   7.546   3.569 -0.0854 -0.0727  0.4799
  117RES   C17449126   7.312   7.419   3.638  0.7308 -0.4253 -0.2196
  117RES   C17549127   7.423   7.446   3.734 -0.2481  0.0126 -0.2555
  117RES   C17649128   7.467   7.326   3.820 -0.2443 -0.0749  0.7847
  117RES   H17749129   6.858   7.687   3.333 -0.1908 -1.0356 -1.4696
  117RES   H17849130   6.904   7.523   3.331  2.5275 -0.2764 -0.0364
  117RES   H17949131   7.035   7.713   3.529 -0.0085 -1.9845  1.6499
  117RES   H18049132   7.135   7.444   3.414  0.8499  2.0983 -2.0926
  117RES   H18149133   7.065   7.471   3.570  3.1425 -1.3111  0.0468
  117RES   H18249134   7.235   7.621   3.648 -0.5898  0.6007 -0.2378
  117RES   H18349135   7.324   7.582   3.500 -0.1298 -1.5277 -0.3291
  117RES   H18449136   7.345   7.350   3.561 -2.4379  1.1720 -3.1494
  117RES   H18549137   7.237   7.371   3.700 -1.1391 -1.3621 -3.1106
  117RES   H18649138   7.386   7.530   3.791 -1.0033 -0.8597  0.5541
  117RES   H18749139   7.503   7.480   3.667 -0.5717  2.0818  0.3811
  117RES   H18849140   7.561   7.357   3.866  1.1084 -0.9911 -1.2913
  117RES   H18949141   7.483   7.239   3.756  0.7183  0.4438  0.3020
  117RES   H19049142   7.396   7.290   3.894 -0.3368  0.3209  0.8935
  117RES   C19149143   7.126   7.707   3.321  0.8328  0.2892 -0.1253
  117RES   C19249144   7.078   0.124   3.283 -0.0240  1.2423 -0.0513
  117RES   C19349145   7.126   0.221   3.392  0.5842 -0.1127  0.3914
  117RES   C19449146   7.059   0.358   3.383 -0.1799  0.5455 -0.7998
  117RES   C19549147   7.089   0.462   3.494  0.4203  0.5931 -0.4071
  117RES   C19649148   7.026   0.597   3.464  0.0337 -0.9634  0.2720
  117RES   C19749149   7.025   0.687   3.588 -0.6239  0.0166  0.2130
  117RES   H19849150   7.104   7.638   3.239 -2.1417  1.0535 -0.0304
  117RES   H19949151   7.235   7.698   3.327  0.9575  2.5055  1.2855
  117RES   H20049152   6.969   0.129   3.284 -0.1037 -0.0439 -1.1007
  117RES   H20149153   7.231   0.239   3.367  0.2551 -1.4249 -2.1425
  117RES   H20249154   7.112   0.183   3.493  1.5893  0.9389  0.9394
  117RES   H20349155   6.952   0.344   3.394 -0.0509  0.8617  1.2028
  117RES   H20449156   7.073   0.401   3.284  0.4491  0.5643 -0.7058
  117RES   H20549157   7.056   0.420   3.589  1.0101  1.0190 -0.0119
  117RES   H20649158   7.196   0.477   3.502  0.4002  0.7996 -0.5067
  117RES   H20749159   6.930   0.584   3.415  0.1864 -0.0946 -0.2691
  117RES   H20849160   7.089   0.656   3.397  2.0795 -1.1876  1.9310
  117RES   H20949161   7.021   0.794   3.569  0.6176  0.2592  1.3101
  117RES   H21049162   7.116   0.688   3.647 -0.3214  2.2556 -0.2609
  117RES   H21149163   6.953   0.652   3.663 -1.1039  1.9020  0.6450
  117RES   C21249164   7.137   0.162   3.138 -0.4288  0.1840 -0.0572
  117RES   C21349165   7.030   0.115   3.029  1.2356 -0.6410  0.7592
  117RES   C21449166   6.924   0.229   3.003 -0.6661  0.1643  0.2740
  117RES   C21549167   6.815   0.246   3.108  0.1057  0.0782 -0.0472
  117RES   C21649168   6.701   0.340   3.073  0.3118 -0.0751 -0.2217
  117RES   C21749169   6.630   0.387   3.201  0.2915  0.2740 -0.1729
  117RES   C21849170   6.518   0.482   3.177 -0.2357 -0.5501  0.0424
  117RES   H21949171   7.241   0.128   3.141 -0.6193 -0.5723 -1.2869
  117RES   H22049172   7.144   0.268   3.117  1.2674 -0.1183 -1.1597
  117RES   H22149173   6.982   0.022   3.061 -0.9828  0.0542 -0.4674
  117RES   H22249174   6.978   0.322   2.983 -0.0631 -0.4731 -1.1936
  117RES   H22349175   6.875   0.203   2.909  2.5137 -2.7009 -0.6669
  117RES   H22449176   6.851   0.285   3.203 -1.1477 -0.0476  0.5028
  117RES   H22549177   6.769   0.148   3.123 -1.2385  1.0881  2.9080
  117RES   H22649178   6.733   0.430   3.021  0.5272  0.3069  0.5604
  117RES   H22749179   6.635   0.298   2.997  1.6330 -0.1784 -1.3354
  117RES   H22849180   6.591   0.297   3.250 -0.0040 -0.2565 -1.3592
  117RES   H22949181   6.703   0.435   3.266  0.2278 -0.3239  0.3414
  117RES   H23049182   6.556   0.566   3.119  1.9822  0.0018  2.1777
  117RES   H23149183   6.486   0.513   3.277 -0.1093 -0.3196  0.0140
  117RES   H23249184   6.424   0.448   3.134  0.6790 -0.7262 -1.8566
  117RES   C23349185   7.115   0.070   2.907 -0.6238 -0.7039  0.1637
  117RES   C23449186   7.162   0.191   2.811  0.2999 -0.0395 -0.2700
  117RES   C23549187   7.302   0.257   2.842  0.7207 -0.1338 -0.5335
  117RES   C23649188   7.344   0.377   2.763  0.0561  0.2669  0.1000
  117RES   C23749189   7.278   0.510   2.795  0.1859  0.6416 -0.0481
  117RES   C23849190   7.320   0.621   2.700 -0.9785  0.0004 -0.2906
  117RES   C23949191   7.279   0.764   2.738  0.3063  1.1717 -0.1666
  117RES   H24049192   7.066   0.000   2.839  0.5760  0.7444 -2.2766
  117RES   H24149193   7.200   0.012   2.944  0.9786  1.3492 -0.1644
  117RES   H24249194   7.095   0.278   2.812  1.1320  0.6017  1.6748
  117RES   H24349195   7.388   0.192   2.828 -0.1580 -1.8851  1.7413
  117RES   H24449196   7.306   0.286   2.947  1.8387 -2.8037  0.2027
  117RES   H24549197   7.332   0.364   2.655 -2.7011  1.3039  0.2391
  117RES   H24649198   7.452   0.390   2.769  0.7545 -4.3340 -0.3499
  117RES   H24749199   7.287   0.545   2.898 -0.8568 -0.9772  0.6285
  117RES   H24849200   7.169   0.502   2.788  0.0183  0.3240  2.4252
  117RES   H24949201   7.428   0.606   2.693 -0.8987  0.6757 -0.4661
  117RES   H25049202   7.289   0.594   2.600  0.0179 -0.1967 -0.5534
  117RES   H25149203   7.326   0.805   2.827 -0.0867  0.2065  0.4935
  117RES   H25249204   7.303   0.828   2.653 -1.1513  1.0131 -0.7181
  117RES   H25349205   7.173   0.762   2.761  1.0568  0.5449  3.5092
  117RES   C25449206   7.160   0.134   2.669  0.2415 -0.5080 -0.3291
  117RES   C25549207   7.022   0.116   2.602 -0.2649  0.3091  0.6326
  117RES   C25649208   7.022   7.726   2.502  0.3132 -0.4426 -0.5178
  117RES   C25749209   7.126   0.009   2.385  1.1101 -0.1350  0.5363
  117RES   C25849210   7.147   7.617   2.299 -0.0533 -0.1296  0.5143
  117RES   C25949211   7.251   7.650   2.192 -0.8589 -0.0563 -0.1541
  117RES   C26049212   7.289   7.529   2.103  0.2534  0.3701  0.3810
  117RES   H26149213   7.206   0.035   2.668 -1.9000 -1.5314 -0.5056
  117RES   H26249214   7.213   0.202   2.602 -0.4004  0.1593 -0.1514
  117RES   H26349215   6.946   0.093   2.677  0.0870  0.1773  0.9493
  117RES   H26449216   6.928   7.715   2.447 -0.5914  1.9290  0.4988
  117RES   H26549217   7.044   7.636   2.560 -0.5164  0.4044  1.1477
  117RES   H26649218   7.115   0.090   2.312  2.4748 -1.6381 -1.3854
  117RES   H26749219   7.220   0.032   2.434  0.2196 -0.6630  2.5366
  117RES   H26849220   7.064   7.575   2.242  2.2784 -2.3899 -1.3641
  117RES   H26949221   7.168   7.526   2.355 -0.3391 -0.5511 -0.0595
  117RES   H27049222   7.223   0.000   2.120  1.5259  0.9761 -0.0401
  117RES   H27149223   7.347   7.676   2.236  0.0105 -0.9757 -1.4549
  117RES   H27249224   7.364   7.548   2.027 -2.8245 -1.7536 -3.4097
  117RES   H27349225   7.343   7.455   2.163 -0.5422  1.3756  2.3969
  117RES   H27449226   7.204   7.471   2.066  1.0047 -2.6182  3.0699
  117RES   C27549227   6.974   0.252   2.537  0.4072 -0.6841 -0.2947
  117RES   C27649228   6.822   0.263   2.499  0.3631  0.3084 -0.2379
  117RES   C27749229   6.794   0.392   2.416 -0.0949  0.0740  0.0090
  117RES   C27849230   6.852   0.523   2.459 -0.4711 -0.3763  1.1122
  117RES   C27949231   6.796   0.590   2.591  0.8747  0.3253  0.1420
  117RES   C28049232   6.850   0.733   2.624 -0.3551  0.1479  0.4925
  117RES   C28149233   6.810   0.797   2.759  0.0357  0.4200  0.2028
  117RES   H28249234   7.035   0.279   2.451  0.2397  1.0648  0.1100
  117RES   H28349235   6.992   0.327   2.615 -1.4140 -2.2835  1.7491
  117RES   H28449236   6.806   0.200   2.412  2.5453 -1.0749  0.3353
  117RES   H28549237   6.843   0.372   2.321 -0.3196 -1.5479  0.2084
  117RES   H28649238   6.686   0.405   2.404 -0.1251 -1.4046 -1.5247
  117RES   H28749239   6.865   0.589   2.373  2.7342 -0.7208  1.2758
  117RES   H28849240   6.959   0.503   2.465 -0.6402 -1.5821  0.3602
  117RES   H28949241   6.822   0.527   2.676 -0.0919  0.8867  0.8666
  117RES   H29049242   6.688   0.590   2.579  0.9642 -0.8693 -0.6495
  117RES   H29149243   6.959   0.728   2.624 -0.3985 -0.8790  0.4450
  117RES   H29249244   6.824   0.801   2.542 -2.1387 -3.4248 -2.0273
  117RES   H29349245   6.869   0.751   2.838  1.2007 -0.8747 -1.3708
  117RES   H29449246   6.705   0.780   2.782  0.0388 -2.1233 -1.4000
  117RES   H29549247   6.829   0.904   2.747  1.6888  0.0784 -0.4629
  117RES   C29649248   6.713   0.247   2.604  0.5494 -0.6276  0.0951
  117RES   C29749249   6.657   0.101   2.625  0.8561  0.5643 -0.5969
  117RES   C29849250   6.535   0.066   2.533 -0.4139  0.3572  0.0138
  117RES   C29949251   6.563   0.089   2.381 -1.4078  0.4025  0.0905
  117RES   C30049252   6.443   0.071   2.284 -0.1165  0.4782 -0.0938
  117RES   C30149253   6.476   0.103   2.130  0.2813 -0.3787 -0.0459
  117RES   C30249254   6.571   7.722   2.070 -0.0693 -0.4138  0.6567
  117RES   H30349255   6.754   0.281   2.699 -1.5021  1.1587  0.3929
  117RES   H30449256   6.630   0.314   2.582 -0.2073 -0.7644  2.4333
  117RES   H30549257   6.732   0.028   2.594  0.4063 -1.1317  2.2041
  117RES   H30649258   6.517   7.686   2.543  0.9020  0.1849  0.7853
  117RES   H30749259   6.441   0.111   2.564 -0.3162  0.2179  0.5213
  117RES   H30849260   6.654   0.036   2.351 -1.6449  1.0030 -1.7484
  117RES   H30949261   6.591   0.194   2.374  0.1243  0.0668  0.9249
  117RES   H31049262   6.358   0.131   2.316 -1.8157 -2.1086  0.4194
  117RES   H31149263   6.404   7.697   2.302 -0.8308  0.2614 -2.6912
  117RES   H31249264   6.385   0.116   2.071 -0.7689 -0.5144  1.4934
  117RES   H31349265   6.527   0.199   2.130  1.0869 -0.7980 -1.7834
  117RES   H31449266   6.518   7.628   2.057 -3.8661  1.6490  0.4860
  117RES   H31549267   6.615   0.029   1.976 -0.7320 -0.1275  0.4449
  117RES   H31649268   6.653   7.702   2.139  0.6505 -0.7424 -0.2876
  117RES   C31749269   6.615   0.067   2.768  0.6310  0.2597  0.3224
  117RES   C31849270   6.603   7.644   2.825 -0.5285  0.3033 -0.0047
  117RES   C31949271   6.749   7.578   2.853  0.3421 -0.1314  0.0555
  117RES   C32049272   6.733   7.424   2.869 -0.2666  0.2984  0.4206
  117RES   C32149273   6.871   7.355   2.844  0.3471  0.3694 -0.8975
  117RES   C32249274   6.973   7.397   2.956  0.3774  0.9201 -0.9224
  117RES   C32349275   7.096   7.315   2.952 -0.2987 -0.3074  0.0741
  117RES   H32449276   6.519   0.119   2.772  0.6338  0.2796  0.1480
  117RES   H32549277   6.655   0.132   2.845 -0.1569  2.4486 -1.0611
  117RES   H32649278   6.551   7.580   2.753 -0.2341 -1.8063  1.5981
  117RES   H32749279   6.784   7.626   2.945  3.8056 -1.0352 -0.7302
  117RES   H32849280   6.813   7.600   2.767 -0.4962 -0.1030 -0.5615
  117RES   H32949281   6.661   7.382   2.799  0.8263 -0.1569 -0.4502
  117RES   H33049282   6.702   7.390   2.968 -0.7313 -1.6627 -0.3753
  117RES   H33149283   6.909   7.383   2.745 -3.4545  2.8835 -1.7377
  117RES   H33249284   6.850   7.248   2.855 -0.4366  0.4882 -1.1855
  117RES   H33349285   6.926   7.379   3.053  2.5108 -0.4757 -0.1373
  117RES   H33449286   6.985   7.505   2.952 -1.8719  1.2595  0.1294
  117RES   H33549287   7.160   7.351   3.033  0.4877 -0.2388 -0.5748
  117RES   H33649288   7.134   7.327   2.851  0.6100 -0.3873  0.4015
  117RES   H33749289   7.077   7.212   2.981 -1.1695 -0.6765 -1.7286
  117RES   C33849290   6.520   7.634   2.949  0.1348  0.9478 -0.4758
  117RES   C33949291   6.370   7.688   2.932  1.1312 -0.5411  0.0476
  117RES   C34049292   6.303   7.662   3.074 -0.2601 -0.3009 -0.6020
  117RES   C34149293   6.369   0.014   3.190  0.3305  0.0622 -0.2288
  117RES   C34249294   6.284   0.029   3.321  0.2757  0.7242 -0.0498
  117RES   C34349295   6.254   7.628   3.383  0.2465  0.5235 -0.0333
  117RES   C34449296   6.183   7.636   3.517  0.6516 -0.3740 -0.3179
  117RES   H34549297   6.572   7.674   3.036  2.9993  1.1617 -2.2443
  117RES   H34649298   6.501   7.531   2.979  0.0790  0.9974 -0.3392
  117RES   H34749299   6.374   0.063   2.894  0.9339 -0.8801 -0.8850
  117RES   H34849300   6.197   7.685   3.068  0.1689  2.1674  0.9012
  117RES   H34949301   6.309   7.557   3.103 -0.2578  0.0244  0.5992
  117RES   H35049302   6.409   0.105   3.146 -0.8580 -0.1542 -1.7897
  117RES   H35149303   6.463   7.693   3.219  0.2909  0.4180  0.5010
  117RES   H35249304   6.344   0.091   3.389 -0.1225  1.7011 -0.5795
  117RES   H35349305   6.192   0.085   3.309  0.3392  1.4539  2.4049
  117RES   H35449306   6.181   7.578   3.319 -0.7990  0.7611  0.9564
  117RES   H35549307   6.347   7.571   3.383 -1.0265 -1.6247  0.6248
  117RES   H35649308   6.090   7.691   3.503  0.1199 -1.3105 -0.4741
  117RES   H35749309   6.246   7.673   3.598  1.7261  0.1757 -1.3884
  117RES   H35849310   6.147   7.536   3.537 -0.5077  0.1058  0.0209
  117RES   C35949311   6.292   7.595   2.831 -0.4448 -0.1958  0.7804
  117RES   C36049312   6.150   7.624   2.794 -0.5228 -0.3089 -0.0340
  117RES   C36149313   6.133   0.038   2.730 -0.6233  0.5332  0.7057
  117RES   C36249314   5.990   0.093   2.732  0.0562 -0.3065  0.0066
  117RES   C36349315   5.975   0.239   2.717 -0.7479  0.0700  0.2352
  117RES   C36449316   6.056   0.306   2.601  0.2154 -0.1547  0.4822
  117RES   C36549317   6.009   0.256   2.469  0.5220  0.2493  0.2011
  117RES   H36649318   6.296   7.495   2.874  0.9991 -0.3915  0.2439
  117RES   H36749319   6.348   7.599   2.737 -2.2707  0.6707 -0.2978
  117RES   H36849320   6.097   7.628   2.890 -0.4478  0.7638 -0.0271
  117RES   H36949321   6.198   0.109   2.783  0.9740  1.8905 -2.9246
  117RES   H37049322   6.155   0.035   2.624 -4.5960 -1.8572 -0.1404
  117RES   H37149323   5.926   0.050   2.655  1.1127  1.0553 -1.6822
  117RES   H37249324   5.938   0.070   2.825 -1.1391  1.9349 -0.0591
  117RES   H37349325   5.869   0.255   2.696 -0.5253 -0.7210 -1.5847
  117RES   H37449326   5.985   0.280   2.818 -1.8442  0.3741  0.2314
  117RES   H37549327   6.058   0.415   2.613  0.6536  0.1771 -2.1352
  117RES   H37649328   6.162   0.281   2.614  0.4304  1.3013  1.6699
  117RES   H37749329   6.076   0.298   2.394  1.0977 -1.2086 -0.1138
  117RES   H37849330   6.002   0.149   2.448  1.8523  0.2912 -0.5061
  117RES   H37949331   5.906   0.287   2.453  0.4683 -0.2560 -0.4921
  117RES   C38049332   6.075   7.509   2.712  0.5398 -0.3886 -0.5940
  117RES   C38149333   6.128   7.467   2.575  0.0759  0.3527 -0.2151
  117RES   C38249334   6.139   7.312   2.555 -0.2340 -0.3250  0.4259
  117RES   C38349335   6.270   7.253   2.623 -0.1311  0.2403  0.1068
  117RES   C38449336   6.277   7.098   2.593  0.2263 -0.0929  0.3414
  117RES   C38549337   6.356   7.019   2.697  0.3362  0.1866 -0.2748
  117RES   C38649338   6.506   7.039   2.688 -0.1653 -0.5202 -0.2017
  117RES   H38749339   6.079   7.429   2.787 -3.5422  0.3934  0.5569
  117RES   H38849340   5.967   7.518   2.701  0.6703  2.9663  0.4444
  117RES   H38949341   6.228   7.509   2.566 -0.4023  1.6104  0.3074
  117RES   H39049342   6.142   7.294   2.447 -1.3699  0.4140  0.2669
  117RES   H39149343   6.048   7.264   2.589 -0.9580  0.5326 -0.2812
  117RES   H39249344   6.365   7.293   2.586 -0.3382  0.6994  0.0648
  117RES   H39349345   6.262   7.266   2.731 -1.6921 -0.2999  0.0584
  117RES   H39449346   6.175   7.059   2.592  0.3601 -0.4415 -0.8325
  117RES   H39549347   6.307   7.077   2.490 -0.0237 -0.0087  0.2494
  117RES   H39649348   6.334   6.913   2.688 -2.2847  0.5263  1.7207
  117RES   H39749349   6.330   7.043   2.800 -1.3010  1.0872 -0.8828
  117RES   H39849350   6.543   6.967   2.761 -1.1686 -0.5634  0.2825
  117RES   H39949351   6.539   7.138   2.717  1.5920 -1.0015 -0.5315
  117RES   H40049352   6.545   7.024   2.587  3.3658  1.0306  0.8871
  117RES   C40149353   6.050   7.538   2.463 -0.4682  0.1265 -0.0156
  117RES   C40249354   5.911   7.479   2.425 -0.1350 -0.2249 -0.2227
  117RES   C40349355   5.843   7.572   2.324 -0.4700 -0.2811 -0.2551
  117RES   C40449356   5.698   7.522   2.296 -0.1826  0.2822 -0.1690
  117RES   C40549357   5.649   7.602   2.175 -0.2737 -0.2136 -0.0782
  117RES   C40649358   5.510   7.552   2.119 -0.9337  0.3728  0.2914
  117RES   C40749359   5.392   7.578   2.219 -0.1761 -0.0737  0.4432
  117RES   H40849360   6.119   7.532   2.379 -1.9498 -2.2912 -1.1038
  117RES   H40949361   6.052   7.642   2.496 -1.7856  0.2562 -0.3167
  117RES   H41049362   5.860   7.459   2.519  0.1371 -2.6455 -0.5539
  117RES   H41149363   5.894   7.574   2.228 -0.8547  2.4332 -0.4556
  117RES   H41249364   5.837   7.676   2.357  2.9213 -0.0027 -0.3268
  117RES   H41349365   5.635   7.533   2.384 -0.9718 -0.3713 -0.6404
  117RES   H41449366   5.692   7.414   2.282 -0.7176  0.2392  0.4084
  117RES   H41549367   5.661   7.710   2.185 -0.2187 -0.2108 -0.1636
  117RES   H41649368   5.725   7.567   2.105 -2.4545 -4.1796 -0.5533
  117RES   H41749369   5.492   7.595   2.020 -1.5500 -0.2573  0.1323
  117RES   H41849370   5.508   7.446   2.098 -1.9206  0.6388 -0.9937
  117RES   H41949371   5.420   7.600   2.322 -0.4681 -1.9752  0.9548
  117RES   H42049372   5.315   7.501   2.219  0.1318 -0.4044  2.0190
  117RES   H42149373   5.337   7.657   2.168  0.7678 -1.4289 -2.8216
  117RES   H42249374   5.928   7.379   2.383  4.1867 -0.0046  0.7772
  118RES     C149375   1.165   2.349   3.236  1.0815 -0.6120  0.3316
  118RES     C249376   1.011   2.320   3.259 -0.2200  0.2790 -0.3361
  118RES     C349377   0.938   2.458   3.238 -0.6505 -0.5276 -0.1603
  118RES     C449378   0.932   2.493   3.093  0.0525 -0.0496 -0.4832
  118RES     C549379   0.973   2.641   3.058  0.3260  0.0193 -0.1122
  118RES     C649380   0.986   2.675   2.910  0.0060 -0.1142  0.1641
  118RES     C749381   0.860   2.649   2.825 -0.0081 -0.3503  0.9504
  118RES     H849382   1.176   2.417   3.152  1.0669  0.3819  1.1277
  118RES     H949383   1.231   2.266   3.214  0.0282 -1.3063 -0.2757
  118RES    H1049384   0.975   2.244   3.190 -0.5466 -1.4393  1.6736
  118RES    H1149385   0.833   2.442   3.259 -0.9990 -0.7715 -1.9986
  118RES    H1249386   0.977   2.536   3.304 -2.1862  1.3354 -1.4036
  118RES    H1349387   0.990   2.429   3.027 -0.8025 -1.9547  0.5968
  118RES    H1449388   0.835   2.475   3.045  1.0144  0.9138 -2.8986
  118RES    H1549389   1.071   2.658   3.102  1.5986 -0.7109 -2.5410
  118RES    H1649390   0.907   2.712   3.108 -0.5041  1.0013 -2.4840
  118RES    H1749391   1.076   2.627   2.870 -1.4882 -1.5549 -1.5615
  118RES    H1849392   1.016   2.780   2.907  4.0563 -1.1972 -1.7696
  118RES    H1949393   0.844   2.543   2.846  1.5231 -0.9083 -0.6618
  118RES    H2049394   0.893   2.668   2.723 -0.4081 -0.2996  0.8280
  118RES    H2149395   0.773   2.712   2.848  0.1399  0.0110  0.5240
  118RES    H2249396   1.212   2.401   3.319  1.7863 -0.7161 -0.0037
  118RES    C2349397   0.988   2.258   3.400 -0.4846 -0.5107  0.3891
  118RES    C2449398   1.056   2.131   3.449 -0.2857  0.2069 -0.4104
  118RES    C2549399   1.002   2.008   3.369  0.1026 -0.0597  0.6921
  118RES    C2649400   1.076   1.877   3.378  0.5034 -0.7573  0.0591
  118RES    C2749401   1.025   1.772   3.272 -0.3942  0.1170  0.2256
  118RES    C2849402   0.880   1.740   3.282  0.4653 -0.2834  0.4435
  118RES    C2949403   0.828   1.643   3.163  0.3857 -0.2311 -0.7828
  118RES    H3049404   1.024   2.340   3.462  1.6116 -1.2907  0.2361
  118RES    H3149405   0.880   2.250   3.412 -0.4498 -1.3829  0.1509
  118RES    H3249406   1.163   2.132   3.432  0.0426  0.0165  1.5761
  118RES    H3349407   1.013   2.035   3.264  2.0847 -0.4398  0.7752
  118RES    H3449408   0.895   1.995   3.386 -0.0031  0.5001  0.4587
  118RES    H3549409   1.052   1.830   3.473 -2.6301  1.9959  0.6985
  118RES    H3649410   1.183   1.895   3.382  0.9035 -2.8183 -0.7409
  118RES    H3749411   1.086   1.682   3.283  0.0569  0.1402 -1.9158
  118RES    H3849412   1.043   1.806   3.171  0.9649 -0.9932  0.0703
  118RES    H3949413   0.819   1.830   3.283  0.6387 -0.1409 -1.0806
  118RES    H4049414   0.862   1.700   3.382 -0.0690  3.7562  2.0414
  118RES    H4149415   0.875   1.547   3.141  1.9007  0.8069 -2.1463
  118RES    H4249416   0.719   1.636   3.160  0.3861  0.3968 -2.3999
  118RES    H4349417   0.838   1.705   3.074 -0.6161 -0.1130 -0.8276
  118RES    C4449418   1.040   2.099   3.602  0.0669 -0.5440 -0.0099
  118RES    C4549419   1.090   2.214   3.699  0.1769 -0.5243  0.5148
  118RES    C4649420   1.046   2.199   3.847 -0.6103  0.6854  0.3346
  118RES    C4749421   1.114   2.078   3.913 -0.1143  0.0226  0.1544
  118RES    C4849422   1.045   2.041   4.044  0.2996  0.6444  0.1411
  118RES    C4949423   1.100   1.905   4.096 -0.5986  0.1361 -0.2201
  118RES    C5049424   1.023   1.781   4.039 -0.2735 -0.2433 -0.9334
  118RES    H5149425   1.102   2.013   3.627 -0.8038 -0.7306  1.5682
  118RES    H5249426   0.936   2.078   3.627  0.4721  0.2036  2.4403
  118RES    H5349427   1.043   2.309   3.672  2.4891  0.5510  0.1714
  118RES    H5449428   0.938   2.197   3.853 -0.7453  2.5596 -1.1294
  118RES    H5549429   1.085   2.287   3.899  1.9222 -0.1305 -0.1036
  118RES    H5649430   1.109   1.999   3.838 -0.3656 -0.9049  1.1269
  118RES    H5749431   1.221   2.079   3.934  0.2863  0.5584 -1.8295
  118RES    H5849432   0.938   2.039   4.027  0.5482 -0.3925 -1.4297
  118RES    H5949433   1.058   2.125   4.111  3.4337 -0.3726  0.9215
  118RES    H6049434   1.097   1.902   4.205  1.8639  0.6959 -0.1008
  118RES    H6149435   1.206   1.889   4.077 -0.7034 -0.3328 -0.4226
  118RES    H6249436   0.929   1.765   4.092  0.0294 -0.2081 -0.3844
  118RES    H6349437   1.086   1.694   4.054  0.2747  0.4402  0.9090
  118RES    H6449438   0.994   1.781   3.934 -1.0885  1.4974 -0.7337
  118RES    C6549439   1.245   2.231   3.689 -0.1717  0.3682 -0.1477
  118RES    C6649440   1.324   2.337   3.772  0.5449  0.5111 -0.1071
  118RES    C6749441   1.271   2.479   3.752 -0.1116 -0.2541 -0.2838
  118RES    C6849442   1.244   2.541   3.613  0.2149  0.5671  0.5461
  118RES    C6949443   1.358   2.565   3.509  0.7784 -0.2060 -0.0646
  118RES    C7049444   1.488   2.628   3.567  0.1159  0.5572  1.3632
  118RES    C7149445   1.615   2.597   3.485  0.2573  0.0544  0.0721
  118RES    H7249446   1.280   2.130   3.710  0.7399 -0.1183 -3.6268
  118RES    H7349447   1.272   2.249   3.585 -0.9179 -1.4056 -0.6697
  118RES    H7449448   1.307   2.307   3.875 -0.4616 -0.4304 -0.5444
  118RES    H7549449   1.184   2.488   3.816  1.3069 -3.2081  2.1615
  118RES    H7649450   1.339   2.543   3.809  2.4387 -1.7638 -1.5093
  118RES    H7749451   1.172   2.474   3.567  0.9565  0.9681 -1.2132
  118RES    H7849452   1.205   2.642   3.628 -0.9837  0.3914 -1.3502
  118RES    H7949453   1.386   2.465   3.475 -0.5846 -0.9750  0.9992
  118RES    H8049454   1.328   2.617   3.418  0.0583  1.8620  1.3164
  118RES    H8149455   1.518   2.592   3.666 -0.8643  0.4598  1.6332
  118RES    H8249456   1.466   2.734   3.580 -1.3878  0.3386  0.6857
  118RES    H8349457   1.699   2.660   3.516  0.6203  0.2486 -1.2517
  118RES    H8449458   1.645   2.492   3.481 -1.5378 -0.4646 -0.0478
  118RES    H8549459   1.598   2.636   3.384 -5.0905 -1.1224  0.4148
  118RES    C8649460   1.475   2.311   3.757  0.5431  0.1537 -0.3705
  118RES    C8749461   1.560   2.380   3.869  0.6145 -0.1258  0.4090
  118RES    C8849462   1.541   2.309   4.005  0.0658 -0.3844  0.3539
  118RES    C8949463   1.478   2.417   4.097 -0.1573  0.7620 -0.0405
  118RES    C9049464   1.457   2.357   4.239  0.8479  0.2310 -0.2535
  118RES    C9149465   1.403   2.454   4.344 -0.4574  0.4602  0.2038
  118RES    C9249466   1.495   2.571   4.370  0.4084 -0.2844  0.0931
  118RES    H9349467   1.495   2.204   3.756 -1.2064 -0.2021 -0.0532
  118RES    H9449468   1.506   2.352   3.661  0.9454  3.6713  1.1899
  118RES    H9549469   1.522   2.481   3.877  2.4292  0.4451  2.1885
  118RES    H9649470   1.489   2.214   3.999 -0.8223  0.0024  1.8187
  118RES    H9749471   1.638   2.277   4.044  0.3689  1.3464  1.0883
  118RES    H9849472   1.544   2.504   4.101  0.3976  0.3218  0.4298
  118RES    H9949473   1.380   2.446   4.060 -1.4105 -1.0064  1.8373
  118RES   H10049474   1.547   2.313   4.281  0.3760  1.3236  2.0361
  118RES   H10149475   1.390   2.272   4.224  1.8257 -0.4924 -0.5898
  118RES   H10249476   1.308   2.481   4.299 -1.2832 -2.3690  0.1555
  118RES   H10349477   1.391   2.402   4.439  2.4944  2.4348  1.7501
  118RES   H10449478   1.588   2.537   4.416  0.6441 -1.0856 -0.9531
  118RES   H10549479   1.454   2.633   4.449  1.1099  1.3515 -0.8055
  118RES   H10649480   1.516   2.629   4.281  0.6898 -1.7645 -0.8283
  118RES   C10749481   1.708   2.408   3.832  0.1088 -0.4249 -0.2146
  118RES   C10849482   1.792   2.490   3.942  0.3545 -0.2502  0.4067
  118RES   C10949483   1.944   2.453   3.943 -0.5664  0.5448 -0.6177
  118RES   C11049484   2.027   2.490   3.813  0.6557  0.1395 -0.1124
  118RES   C11149485   2.171   2.433   3.809  0.5958  0.5495  0.6229
  118RES   C11249486   2.263   2.494   3.919  0.7133 -0.2661  0.3904
  118RES   C11349487   2.300   2.640   3.897 -0.4102  0.8590  0.8847
  118RES   H11449488   1.716   2.465   3.739  1.1921 -0.1647  0.0306
  118RES   H11549489   1.767   2.316   3.825  0.9351  0.1635 -1.3258
  118RES   H11649490   1.752   2.465   4.039 -3.7072  2.3663 -0.4675
  118RES   H11749491   1.950   2.346   3.964  0.1770  0.7062 -0.0204
  118RES   H11849492   1.975   2.515   4.027 -0.6040  0.1462 -0.3069
  118RES   H11949493   1.983   2.433   3.731  3.1488 -2.5195  0.2992
  118RES   H12049494   2.014   2.597   3.795  0.4858  0.6351  2.6425
  118RES   H12149495   2.201   2.451   3.705  1.6782 -0.2443  0.7871
  118RES   H12249496   2.165   2.326   3.827 -1.4834 -0.3699 -4.6238
  118RES   H12349497   2.219   2.496   4.018 -0.2382 -1.1183 -0.0055
  118RES   H12449498   2.350   2.434   3.944  1.1282  1.6378  3.8869
  118RES   H12549499   2.322   2.664   3.792 -0.6725  1.6726  1.0077
  118RES   H12649500   2.214   2.704   3.917  0.4747  2.1295  0.7569
  118RES   H12749501   2.388   2.663   3.957  1.7466 -0.4293 -1.6828
  118RES   C12849502   1.766   2.646   3.922  0.4085 -0.8061 -0.0544
  118RES   C12949503   1.835   2.753   4.016  0.2894 -0.1436 -0.2160
  118RES   C13049504   1.758   2.755   4.151 -0.2225 -0.0746  0.3066
  118RES   C13149505   1.821   2.825   4.271  0.0228 -0.0078  0.5714
  118RES   C13249506   1.734   2.819   4.404 -0.5232  0.1092 -0.1087
  118RES   C13349507   1.795   2.878   4.526 -0.0614  0.4629 -0.0255
  118RES   C13449508   1.823   3.029   4.514 -1.0155 -0.1908  0.3792
  118RES   H13549509   1.792   2.649   3.816  1.6358  1.3815  0.2788
  118RES   H13649510   1.660   2.670   3.923  0.4919 -0.4447  0.6361
  118RES   H13749511   1.937   2.718   4.035 -0.0045 -0.8773 -0.0033
  118RES   H13849512   1.725   2.653   4.172  1.8445 -0.9488 -0.6042
  118RES   H13949513   1.660   2.799   4.129  0.2304  1.5532  1.4937
  118RES   H14049514   1.856   2.925   4.245 -0.7403 -0.2259 -1.3507
  118RES   H14149515   1.913   2.770   4.291  0.3203  0.3043  0.0736
  118RES   H14249516   1.699   2.716   4.416 -2.3619  0.6069 -1.0543
  118RES   H14349517   1.640   2.866   4.375 -0.7425 -0.5872 -0.5454
  118RES   H14449518   1.878   2.824   4.570  0.2980  0.9745 -0.0749
  118RES   H14549519   1.719   2.864   4.603 -1.6799 -2.5194 -2.0702
  118RES   H14649520   1.846   3.054   4.617  0.7815  0.3460 -0.1352
  118RES   H14749521   1.753   3.091   4.458 -0.9251 -0.2884  0.1572
  118RES   H14849522   1.920   3.026   4.463 -0.1936 -0.2710  1.9242
  118RES   C14949523   1.860   2.883   3.939 -0.0913 -0.2916  0.5731
  118RES   C15049524   1.735   2.955   3.881  0.3164 -0.6845 -1.0626
  118RES   C15149525   1.750   3.021   3.741 -0.4654 -0.3408  1.3786
  118RES   C15249526   1.858   3.135   3.731  0.2272  0.1839 -0.7896
  118RES   C15349527   1.937   3.136   3.596  0.2156  0.4614 -0.2580
  118RES   C15449528   2.037   3.251   3.608  0.7667 -0.3830  0.2505
  118RES   C15549529   2.113   3.270   3.473 -0.5054  0.1386 -0.2720
  118RES   H15649530   1.909   2.950   4.010  2.5123  0.1217 -1.5101
  118RES   H15749531   1.930   2.858   3.859 -0.1164 -0.5105  0.6177
  118RES   H15849532   1.666   2.876   3.854 -0.2531 -0.5228 -0.1053
  118RES   H15949533   1.787   2.941   3.677  0.7078  2.1079 -1.1001
  118RES   H16049534   1.662   3.063   3.693  1.1843 -1.6613 -3.0468
  118RES   H16149535   1.942   3.112   3.798  1.9745  0.9165 -2.6731
  118RES   H16249536   1.809   3.230   3.752  1.8724  1.0593 -0.7884
  118RES   H16349537   1.876   3.142   3.506 -2.8569  0.3638  1.7479
  118RES   H16449538   1.999   3.048   3.578  0.1599  0.6096 -1.1886
  118RES   H16549539   2.106   3.224   3.688 -0.7660 -1.4372  1.2485
  118RES   H16649540   1.987   3.344   3.637  1.6513  0.4446 -0.8244
  118RES   H16749541   2.091   3.360   3.415 -1.2370 -1.4449 -2.5320
  118RES   H16849542   2.101   3.188   3.402 -1.4603 -0.0663  0.1273
  118RES   H16949543   2.222   3.272   3.486 -0.0518 -1.9757 -3.1637
  118RES   C17049544   1.670   3.063   3.982  0.3299  0.4688 -0.2588
  118RES   C17149545   1.548   3.128   3.924 -0.3438  0.2729  0.0662
  118RES   C17249546   1.438   3.021   3.916 -0.0604 -0.2185 -0.0879
  118RES   C17349547   1.391   2.963   4.042 -0.2399  0.0926  0.5925
  118RES   C17449548   1.309   2.840   4.010  0.6538  0.3268  1.0375
  118RES   C17549549   1.250   2.768   4.129  0.3366  0.7247  0.1833
  118RES   C17649550   1.130   2.671   4.102  0.6588  0.3242 -0.3336
  118RES   H17749551   1.743   3.144   3.991  0.5465  0.5922 -2.5942
  118RES   H17849552   1.659   3.027   4.084  1.5515 -1.4720 -0.7963
  118RES   H17949553   1.549   3.174   3.826  0.4507  2.3373  1.0271
  118RES   H18049554   1.476   2.941   3.852 -0.3850  0.4721 -1.1621
  118RES   H18149555   1.350   3.059   3.864 -0.8305 -2.5416 -0.5479
  118RES   H18249556   1.329   3.027   4.105  0.4687 -0.6704  2.0920
  118RES   H18349557   1.471   2.920   4.102 -2.3237 -0.2404  3.2120
  118RES   H18449558   1.370   2.779   3.944 -3.1605 -0.7009 -1.6630
  118RES   H18549559   1.216   2.870   3.962  1.3281  0.1850 -0.3783
  118RES   H18649560   1.210   2.842   4.199  0.3586  1.5910 -0.6972
  118RES   H18749561   1.330   2.719   4.183 -2.5380 -2.1468  2.0131
  118RES   H18849562   1.159   2.597   4.026 -1.5890 -1.0709  0.1180
  118RES   H18949563   1.042   2.730   4.078  1.7492  1.9521 -0.3447
  118RES   H19049564   1.127   2.610   4.192 -0.5619  1.0801  0.1505
  118RES   C19149565   1.518   3.255   4.004  0.5680  0.4986 -0.2380
  118RES   C19249566   1.385   3.332   3.968 -0.1558 -0.4244 -0.1705
  118RES   C19349567   1.362   3.447   4.069 -0.7257 -0.4667 -0.5262
  118RES   C19449568   1.310   3.401   4.205  0.0515 -0.4032  1.0879
  118RES   C19549569   1.303   3.518   4.309  0.7395  0.5571  0.3811
  118RES   C19649570   1.438   3.569   4.343 -0.7698  0.2100 -0.5460
  118RES   C19749571   1.437   3.690   4.439  0.6883 -0.3377 -0.2825
  118RES   H19849572   1.597   3.327   3.987 -1.4746  2.1118 -3.3505
  118RES   H19949573   1.529   3.238   4.111  1.2819  2.3209 -0.0020
  118RES   H20049574   1.298   3.268   3.978 -2.6446  2.8787 -0.1113
  118RES   H20149575   1.285   3.514   4.029 -0.6511 -0.2199 -0.2563
  118RES   H20249576   1.450   3.511   4.076  0.9047 -2.7375  0.2603
  118RES   H20349577   1.385   3.331   4.241  2.6494 -0.3657 -3.8494
  118RES   H20449578   1.219   3.345   4.184  0.8000 -2.1360  2.4021
  118RES   H20549579   1.235   3.592   4.267  0.9493  1.5887  1.8278
  118RES   H20649580   1.258   3.487   4.403  1.0042  1.6543  0.8726
  118RES   H20749581   1.490   3.611   4.256 -0.4662  0.7352 -0.1152
  118RES   H20849582   1.495   3.496   4.400  1.5879  3.0287  0.8629
  118RES   H20949583   1.533   3.725   4.477  0.6632 -1.8442  1.2201
  118RES   H21049584   1.393   3.650   4.530 -0.7467  0.2155 -0.7290
  118RES   H21149585   1.370   3.769   4.408  0.0647 -1.2141 -1.1884
  118RES   C21249586   1.396   3.391   3.826 -0.2596 -0.5584 -0.0250
  118RES   C21349587   1.256   3.425   3.755  0.5142  0.3649  0.2884
  118RES   C21449588   1.269   3.517   3.634 -0.2657 -0.8165  0.0788
  118RES   C21549589   1.371   3.486   3.529  0.1801  0.3162  0.1783
  118RES   C21649590   1.391   3.594   3.421  0.0327 -0.3098 -0.9026
  118RES   C21749591   1.268   3.635   3.350  0.2264 -0.2831 -0.1855
  118RES   C21849592   1.207   3.521   3.269  0.1845 -1.2998 -0.2737
  118RES   H21949593   1.440   3.319   3.757  1.1110  2.7195 -2.6827
  118RES   H22049594   1.475   3.465   3.828 -0.9282  0.2237 -1.4051
  118RES   H22149595   1.194   3.486   3.821 -0.5452 -0.2353 -0.1471
  118RES   H22249596   1.168   3.511   3.593 -0.0629  0.3484 -0.6075
  118RES   H22349597   1.293   3.618   3.669  2.0399 -1.5842  0.8087
  118RES   H22449598   1.349   3.388   3.489  0.2644 -2.0641  5.5203
  118RES   H22549599   1.463   3.474   3.586  0.5937 -0.8881 -0.7431
  118RES   H22649600   1.439   3.685   3.455 -0.0518 -0.6263  0.0916
  118RES   H22749601   1.460   3.552   3.348  2.0191  3.5963 -1.4010
  118RES   H22849602   1.190   3.679   3.412  0.3760  1.0123 -0.8972
  118RES   H22949603   1.291   3.719   3.284  2.9479  1.2838  2.6781
  118RES   H23049604   1.274   3.481   3.193  2.0569 -2.7408  2.0572
  118RES   H23149605   1.122   3.567   3.218  1.1059  0.1109 -0.5642
  118RES   H23249606   1.173   3.437   3.329  1.3886 -0.3840  1.7410
  118RES   C23349607   1.174   3.296   3.725 -0.2124  0.0192  0.2215
  118RES   C23449608   1.030   3.327   3.684 -0.4019  0.3917  0.4773
  118RES   C23549609   1.008   3.308   3.529  0.2143  0.3700  0.9027
  118RES   C23649610   0.909   3.404   3.450 -0.2319  0.0767 -0.6435
  118RES   C23749611   0.846   3.352   3.324  0.2441  0.1990  0.0218
  118RES   C23849612   0.754   3.467   3.272 -0.2373  0.5042 -0.4288
  118RES   C23949613   0.684   3.435   3.135  0.1976  0.4895  0.1671
  118RES   H24049614   1.180   3.231   3.812 -3.3162  0.6664  0.9899
  118RES   H24149615   1.228   3.236   3.652 -2.3751 -1.3020 -0.3614
  118RES   H24249616   0.998   3.429   3.707 -0.2859  1.2509 -2.8135
  118RES   H24349617   0.984   3.204   3.505  1.5213  0.6460 -1.7288
  118RES   H24449618   1.105   3.316   3.479  1.2085 -1.0226  2.5310
  118RES   H24549619   0.970   3.493   3.432 -0.8669  0.8063  0.6923
  118RES   H24649620   0.830   3.448   3.511  1.4856  1.8760  0.3600
  118RES   H24749621   0.784   3.263   3.340 -0.1108  0.1217 -1.6126
  118RES   H24849622   0.917   3.311   3.251  0.0098 -1.0682  0.4933
  118RES   H24949623   0.675   3.486   3.345  0.7155 -0.0779  0.7712
  118RES   H25049624   0.820   3.550   3.247  0.4971 -0.8711 -3.3875
  118RES   H25149625   0.635   3.338   3.146  0.6774  0.2893  0.5386
  118RES   H25249626   0.622   3.517   3.097 -2.1772 -1.3427 -0.0114
  118RES   H25349627   0.762   3.424   3.060 -0.6266  0.7265 -0.7440
  118RES   C25449628   0.927   3.234   3.757 -0.6043 -0.1547  1.0576
  118RES   C25549629   0.868   3.289   3.885  0.2103 -0.5082  0.4468
  118RES   C25649630   0.801   3.171   3.964  0.3907 -0.5719  1.0303
  118RES   C25749631   0.901   3.080   4.047  0.3344 -0.2900 -0.1950
  118RES   C25849632   0.977   3.152   4.153 -0.5247 -0.8470 -0.1542
  118RES   C25949633   0.882   3.191   4.266  0.0789 -0.1395  0.6053
  118RES   C26049634   0.954   3.253   4.382  0.1128  0.6034  0.0668
  118RES   H26149635   0.977   3.138   3.772  2.7780  1.2756 -0.6061
  118RES   H26249636   0.842   3.221   3.691  0.6102 -1.8040 -0.2213
  118RES   H26349637   0.954   3.331   3.938  0.6303  1.8268 -1.9608
  118RES   H26449638   0.744   3.108   3.896 -0.4763 -1.6143  2.6969
  118RES   H26549639   0.728   3.212   4.035  1.8557  1.5390  1.3602
  118RES   H26649640   0.848   2.990   4.078 -1.4224  0.3114 -1.3368
  118RES   H26749641   0.977   3.042   3.979  2.0072  1.1096  0.8292
  118RES   H26849642   1.043   3.232   4.118 -0.9492 -0.3450  0.1728
  118RES   H26949643   1.052   3.079   4.182 -0.7202 -0.7084  0.7099
  118RES   H27049644   0.804   3.265   4.246 -0.7437 -0.1395  3.5991
  118RES   H27149645   0.834   3.100   4.304 -1.5300  1.1394  1.7124
  118RES   H27249646   1.025   3.332   4.358  1.5360  0.0696  2.4429
  118RES   H27349647   0.882   3.302   4.448  1.1744  0.7951  1.0970
  118RES   H27449648   1.022   3.182   4.428 -0.5176 -1.0659 -1.5299
  118RES   C27549649   0.756   3.397   3.859 -0.7905 -0.2993 -0.3172
  118RES   C27649650   0.769   3.539   3.936  0.1191  0.2051 -0.1022
  118RES   C27749651   0.880   3.628   3.880  0.1281 -0.2747 -0.6566
  118RES   C27849652   0.838   3.700   3.748  1.0980  0.7628 -0.3486
  118RES   C27949653   0.945   3.786   3.682 -0.0402 -0.1405  0.3179
  118RES   C28049654   0.912   3.823   3.536  0.5194 -0.4560  0.1665
  118RES   C28149655   1.009   3.917   3.456 -0.5232 -0.2835  0.1014
  118RES   H28249656   0.663   3.348   3.890 -0.7294 -0.3498 -0.2131
  118RES   H28349657   0.758   3.423   3.754 -0.1681  0.3723 -0.1434
  118RES   H28449658   0.680   3.597   3.914 -0.8211 -1.3669 -0.5536
  118RES   H28549659   0.901   3.707   3.952 -0.3202 -0.7593  0.0145
  118RES   H28649660   0.976   3.578   3.868  1.2515  1.7881 -0.5402
  118RES   H28749661   0.745   3.750   3.777 -0.0030 -0.8101 -1.0804
  118RES   H28849662   0.801   3.626   3.677 -1.5613  0.8430  0.8744
  118RES   H28949663   1.046   3.745   3.691 -0.0237  0.1359  1.4469
  118RES   H29049664   0.960   3.879   3.737  0.6714 -0.5883  0.8947
  118RES   H29149665   0.902   3.734   3.473 -0.4562 -0.2048 -0.0389
  118RES   H29249666   0.814   3.869   3.527  1.2795  0.9350 -1.2601
  118RES   H29349667   0.987   4.022   3.472 -0.9500 -0.5282  1.1868
  118RES   H29449668   0.996   3.892   3.351 -0.0224 -1.3277  0.2742
  118RES   H29549669   1.113   3.895   3.480  0.2650  0.8351 -2.1861
  118RES   C29649670   0.772   3.514   4.091  0.2464  0.0848 -0.6063
  118RES   C29749671   0.745   3.631   4.188  0.3063 -0.3290  0.2435
  118RES   C29849672   0.763   3.592   4.335  0.2387 -0.1472  1.2231
  118RES   C29949673   0.903   3.623   4.385 -0.2898 -0.0879 -0.1168
  118RES   C30049674   0.931   3.769   4.398  0.3782  0.4459 -0.3673
  118RES   C30149675   0.856   3.830   4.515  0.4382 -0.3557  0.0242
  118RES   C30249676   0.895   3.980   4.534  0.4722  1.0912 -0.7651
  118RES   H30349677   0.707   3.429   4.109 -1.4424  1.3601 -0.6212
  118RES   H30449678   0.869   3.472   4.117 -0.3485 -0.0661  1.4305
  118RES   H30549679   0.807   3.714   4.155 -0.4208  0.8505  1.7687
  118RES   H30649680   0.695   3.648   4.399 -0.5392 -0.5217  0.7393
  118RES   H30749681   0.733   3.489   4.352  0.9640 -0.6089 -0.2385
  118RES   H30849682   0.972   3.579   4.313  1.6990  2.8049 -0.0213
  118RES   H30949683   0.919   3.581   4.485  1.0814 -0.5859 -0.5322
  118RES   H31049684   0.907   3.820   4.304  0.9815 -0.5426 -1.0672
  118RES   H31149685   1.036   3.792   4.418  0.2443 -1.9370  3.4598
  118RES   H31249686   0.748   3.818   4.510  0.6249 -2.5357  0.4733
  118RES   H31349687   0.893   3.791   4.610  1.2086  0.7742  0.1954
  118RES   H31449688   1.002   3.989   4.550  0.4034 -0.7332  0.9463
  118RES   H31549689   0.859   4.043   4.453  2.2070  0.6930 -1.8750
  118RES   H31649690   0.836   4.009   4.622 -0.1670  0.4964 -0.9899
  118RES   C31749691   0.592   3.665   4.167  0.7456  0.5145  0.4084
  118RES   C31849692   0.538   3.785   4.248  0.0192  0.4778 -0.1864
  118RES   C31949693   0.614   3.919   4.203 -0.2851  0.8469 -0.7268
  118RES   C32049694   0.618   3.949   4.053 -0.6440 -0.1260  0.2410
  118RES   C32149695   0.721   4.058   4.008  0.2044  0.3139  0.1116
  118RES   C32249696   0.733   4.077   3.854  0.1859  0.1009 -0.3607
  118RES   C32349697   0.859   4.165   3.823  0.4334  0.2094  0.0066
  118RES   H32449698   0.535   3.578   4.197  1.0061  0.6108  1.1934
  118RES   H32549699   0.562   3.694   4.066 -0.0052  0.2419  0.5550
  118RES   H32649700   0.549   3.777   4.356 -2.7717  0.0606  0.1181
  118RES   H32749701   0.719   3.907   4.230  0.2595  1.3946 -2.5221
  118RES   H32849702   0.570   4.003   4.257 -0.6937  0.0885  0.1453
  118RES   H32949703   0.520   3.987   4.028 -0.6572 -0.1126  0.3118
  118RES   H33049704   0.643   3.865   3.988 -1.3043  0.8991 -1.3413
  118RES   H33149705   0.812   4.016   4.052 -0.6943 -1.5799  0.1954
  118RES   H33249706   0.703   4.152   4.060 -1.0995 -0.2311  0.6690
  118RES   H33349707   0.646   4.125   3.810 -0.5289 -1.1550 -0.3504
  118RES   H33449708   0.730   3.981   3.802 -1.1847 -0.2222  0.2858
  118RES   H33549709   0.938   4.094   3.799  0.8329  0.6139  0.1434
  118RES   H33649710   0.884   4.239   3.899 -0.7652  1.0068 -0.3501
  118RES   H33749711   0.842   4.222   3.732 -2.7960 -0.8071 -0.1010
  118RES   C33849712   0.383   3.792   4.235 -0.2087 -0.4007 -0.0508
  118RES   C33949713   0.322   3.901   4.324  0.1068 -0.6866 -0.6794
  118RES   C34049714   0.350   3.879   4.475  0.0986  0.5557 -0.1034
  118RES   C34149715   0.336   4.012   4.553 -0.2980 -0.1378 -0.1048
  118RES   C34249716   0.420   4.011   4.685 -0.4604 -0.2695 -0.5239
  118RES   C34349717   0.369   4.142   4.764 -0.2485  0.2754  0.2576
  118RES   C34449718   0.428   4.276   4.706  0.1406  0.0770 -0.3921
  118RES   H34549719   0.345   3.695   4.263 -0.0467 -0.7990 -1.1777
  118RES   H34649720   0.352   3.805   4.131  1.6407  1.0853 -0.4607
  118RES   H34749721   0.363   3.999   4.300 -1.0113 -0.2048 -0.6429
  118RES   H34849722   0.284   3.800   4.512  0.8881 -0.6037 -1.1311
  118RES   H34949723   0.446   3.843   4.511 -1.0735 -0.5107  2.0613
  118RES   H35049724   0.233   4.034   4.581  0.5020  1.4861  1.6915
  118RES   H35149725   0.372   4.096   4.493 -3.1913  1.8107  0.7924
  118RES   H35249726   0.387   3.919   4.734  2.1218 -0.8543  0.1955
  118RES   H35349727   0.527   4.008   4.665 -0.4070 -1.3197 -0.1283
  118RES   H35449728   0.261   4.140   4.768 -0.2260 -2.7590  0.4754
  118RES   H35549729   0.400   4.135   4.868 -1.7626  1.2476  0.7773
  118RES   H35649730   0.533   4.275   4.675 -0.0918  2.0586 -1.2884
  118RES   H35749731   0.415   4.364   4.769  0.6459  1.1938 -1.8153
  118RES   H35849732   0.373   4.304   4.616 -0.9665  1.7252  0.7835
  118RES   C35949733   0.163   3.905   4.298 -0.2898 -0.0672  0.7072
  118RES   C36049734   0.117   4.001   4.185  0.3289  0.0197 -0.3953
  118RES   C36149735   0.032   3.927   4.087 -0.1460 -0.5247 -0.2966
  118RES   C36249736   7.725   3.981   3.949  0.3949 -0.8584 -0.0282
  118RES   C36349737   0.124   4.016   3.863 -0.1777  0.0866  0.6157
  118RES   C36449738   0.085   4.091   3.737  0.4252  0.1923  0.8698
  118RES   C36549739   0.192   4.116   3.632  0.0918  0.0365 -0.0266
  118RES   H36649740   0.112   3.921   4.393 -0.8452 -0.6417  0.5136
  118RES   H36749741   0.132   3.803   4.275  0.2689  0.1170 -0.8952
  118RES   H36849742   0.208   4.041   4.142 -0.1292  2.2758  0.6358
  118RES   H36949743   0.076   3.829   4.072 -0.9793 -1.3300  2.3205
  118RES   H37049744   7.664   3.903   4.135 -0.1295  0.8535  0.4448
  118RES   H37149745   7.657   3.913   3.897 -0.2045  0.3254 -0.8311
  118RES   H37249746   7.673   4.077   3.962 -0.0403 -1.0719 -0.1639
  118RES   H37349747   0.190   4.081   3.920 -0.0521  0.2005  0.3357
  118RES   H37449748   0.168   3.919   3.838 -0.9451 -0.3559  0.9734
  118RES   H37549749   0.003   4.050   3.678  0.9938 -3.6692  2.6222
  118RES   H37649750   0.055   4.191   3.769  2.2738  1.4255 -1.1397
  118RES   H37749751   0.277   4.164   3.680 -0.3537  0.2952  0.5102
  118RES   H37849752   0.217   4.031   3.568 -1.2996 -0.7841  0.4948
  118RES   H37949753   0.154   4.195   3.568 -2.0974 -1.2322 -0.3644
  118RES   C38049754   0.034   4.114   4.242 -0.4842  0.3906 -0.3545
  118RES   C38149755   0.121   4.233   4.282  0.2490 -0.3588  0.2803
  118RES   C38249756   0.172   4.300   4.147 -0.5299 -1.0241  0.3820
  118RES   C38349757   0.325   4.292   4.125 -0.4181  0.2037  0.0563
  118RES   C38449758   0.374   4.355   3.995 -0.0954 -0.6073 -0.3647
  118RES   C38549759   0.357   4.509   4.002 -0.0608 -0.1400 -0.3649
  118RES   C38649760   0.402   4.590   3.878  0.6373  0.3293  0.1361
  118RES   H38749761   7.688   4.155   4.171  1.0020  2.8458 -0.5101
  118RES   H38849762   7.694   4.088   4.324 -1.2062  2.3880 -0.2579
  118RES   H38949763   0.207   4.204   4.343 -0.0304 -0.3968  0.6552
  118RES   H39049764   0.135   4.403   4.142  1.5108 -0.2157  1.3096
  118RES   H39149765   0.129   4.247   4.063  1.9812 -0.8566 -1.0322
  118RES   H39249766   0.392   4.319   4.207 -0.8116  0.7308  0.2013
  118RES   H39349767   0.352   4.187   4.113  0.1464  0.3055  0.3906
  118RES   H39449768   0.479   4.331   3.974  0.8035  2.3253  0.6356
  118RES   H39549769   0.316   4.315   3.912  0.3435  0.4332 -1.1923
  118RES   H39649770   0.417   4.543   4.086 -0.1902  0.6335 -0.5800
  118RES   H39749771   0.251   4.532   4.017  0.3844  0.9658  1.1420
  118RES   H39849772   0.320   4.581   3.806  2.6984 -0.0899 -2.2548
  118RES   H39949773   0.496   4.549   3.840  0.2900 -1.3996  1.0885
  118RES   H40049774   0.422   4.694   3.901  2.5301  0.1434 -0.5959
  118RES   C40149775   0.050   4.331   4.375 -1.2474 -0.8655  0.0718
  118RES   C40249776   0.136   4.446   4.426  0.1993  0.2833  0.4505
  118RES   C40349777   0.058   4.537   4.529  0.6776 -0.3415  0.5034
  118RES   C40449778   0.148   4.651   4.578 -0.3815  0.3752 -0.7266
  118RES   C40549779   0.281   4.606   4.649  0.0601 -0.6479 -0.0493
  118RES   C40649780   0.357   4.732   4.703 -0.5216 -0.2432  0.0414
  118RES   C40749781   0.415   4.830   4.600  0.0640 -0.2711 -0.0642
  118RES   H40849782   0.014   4.284   4.467 -0.6541  0.2013  0.8749
  118RES   H40949783   7.689   4.363   4.318  0.1560  1.7961 -0.6928
  118RES   H41049784   0.167   4.514   4.346  0.1462 -0.3438 -0.1031
  118RES   H41149785   0.031   4.469   4.610 -1.7431 -0.3524 -0.2779
  118RES   H41249786   7.688   4.582   4.505  1.6368  0.7213 -1.5193
  118RES   H41349787   0.096   4.719   4.646 -0.0667  0.0927 -0.2055
  118RES   H41449788   0.162   4.720   4.495  2.1487  1.0511  0.2343
  118RES   H41549789   0.245   4.540   4.728  0.5161 -2.5455 -1.3667
  118RES   H41649790   0.338   4.546   4.578 -0.0824  1.2842 -1.8320
  118RES   H41749791   0.298   4.801   4.764  2.3587 -0.4942  3.2688
  118RES   H41849792   0.426   4.696   4.780 -1.0075 -1.3863 -0.0480
  118RES   H41949793   0.333   4.867   4.539  0.3187  2.1085  0.9683
  118RES   H42049794   0.481   4.776   4.533 -1.6665  0.0546 -2.0624
  118RES   H42149795   0.456   4.919   4.647  1.3197 -0.1015 -1.4542
  118RES   H42249796   0.219   4.389   4.466 -1.2489 -0.3273  2.6506
   7.72666   7.72666   7.72666
