;
; Gromacs include topology (itp) file.
; For Molecular Group XYZ
; Force field scheme: opls2005
; Produced from DL_FIELD v4.11
;


[ moleculetype ]
; name    nrexcl
XYZ    3

[ atoms ]
; nr   type   resnr   residu    atom    cgnr    charge    mass
    1        CT    1  MOL      C1     1   0.1400000   12.0115
    2        CT    1  MOL      C2     2  -0.1800000   12.0115
    3        OS    1  MOL      O3     3  -0.4000000   15.9994
    4        HC    1  MOL      H4     4   0.0300000    1.0080
    5        HC    1  MOL      H5     5   0.0600000    1.0080
    6        HC    1  MOL      H6     6   0.0600000    1.0080
    7        HC    1  MOL      H7     7   0.0600000    1.0080
    8        HC    1  MOL      H8     8   0.0300000    1.0080
    9        CO    1  MOL      C9     9   0.3000000   12.0115
   10        CT    1  MOL     C10    10  -0.1800000   12.0115
   11        OS    1  MOL     O11    11  -0.4000000   15.9994
   12        HC    1  MOL     H12    12   0.1000000    1.0080
   13        HC    1  MOL     H13    13   0.0600000    1.0080
   14        HC    1  MOL     H14    14   0.0600000    1.0080
   15        HC    1  MOL     H15    15   0.0600000    1.0080
   16        CO    1  MOL     C16    16   0.3000000   12.0115
   17        CT    1  MOL     C17    17  -0.1800000   12.0115
   18        OS    1  MOL     O18    18  -0.4000000   15.9994
   19        HC    1  MOL     H19    19   0.1000000    1.0080
   20        HC    1  MOL     H20    20   0.0600000    1.0080
   21        HC    1  MOL     H21    21   0.0600000    1.0080
   22        HC    1  MOL     H22    22   0.0600000    1.0080
   23        CO    1  MOL     C23    23   0.3000000   12.0115
   24        CT    1  MOL     C24    24  -0.1800000   12.0115
   25        OS    1  MOL     O25    25  -0.4000000   15.9994
   26        HC    1  MOL     H26    26   0.1000000    1.0080
   27        HC    1  MOL     H27    27   0.0600000    1.0080
   28        HC    1  MOL     H28    28   0.0600000    1.0080
   29        HC    1  MOL     H29    29   0.0600000    1.0080
   30        CO    1  MOL     C30    30   0.3000000   12.0115
   31        CT    1  MOL     C31    31  -0.1800000   12.0115
   32        OS    1  MOL     O32    32  -0.4000000   15.9994
   33        HC    1  MOL     H33    33   0.1000000    1.0080
   34        HC    1  MOL     H34    34   0.0600000    1.0080
   35        HC    1  MOL     H35    35   0.0600000    1.0080
   36        HC    1  MOL     H36    36   0.0600000    1.0080
   37        CO    1  MOL     C37    37   0.3000000   12.0115
   38        CT    1  MOL     C38    38  -0.1800000   12.0115
   39        OS    1  MOL     O39    39  -0.4000000   15.9994
   40        HC    1  MOL     H40    40   0.1000000    1.0080
   41        HC    1  MOL     H41    41   0.0600000    1.0080
   42        HC    1  MOL     H42    42   0.0600000    1.0080
   43        HC    1  MOL     H43    43   0.0600000    1.0080
   44        CO    1  MOL     C44    44   0.3000000   12.0115
   45        CT    1  MOL     C45    45  -0.1800000   12.0115
   46        OS    1  MOL     O46    46  -0.4000000   15.9994
   47        HC    1  MOL     H47    47   0.1000000    1.0080
   48        HC    1  MOL     H48    48   0.0600000    1.0080
   49        HC    1  MOL     H49    49   0.0600000    1.0080
   50        HC    1  MOL     H50    50   0.0600000    1.0080
   51        CO    1  MOL     C51    51   0.3000000   12.0115
   52        CT    1  MOL     C52    52  -0.1800000   12.0115
   53        OS    1  MOL     O53    53  -0.4000000   15.9994
   54        HC    1  MOL     H54    54   0.1000000    1.0080
   55        HC    1  MOL     H55    55   0.0600000    1.0080
   56        HC    1  MOL     H56    56   0.0600000    1.0080
   57        HC    1  MOL     H57    57   0.0600000    1.0080
   58        CO    1  MOL     C58    58   0.3000000   12.0115
   59        CT    1  MOL     C59    59  -0.1800000   12.0115
   60        OS    1  MOL     O60    60  -0.4000000   15.9994
   61        HC    1  MOL     H61    61   0.1000000    1.0080
   62        HC    1  MOL     H62    62   0.0600000    1.0080
   63        HC    1  MOL     H63    63   0.0600000    1.0080
   64        HC    1  MOL     H64    64   0.0600000    1.0080
   65        CO    1  MOL     C65    65   0.3000000   12.0115
   66        CT    1  MOL     C66    66  -0.1800000   12.0115
   67        OS    1  MOL     O67    67  -0.4000000   15.9994
   68        HC    1  MOL     H68    68   0.1000000    1.0080
   69        HC    1  MOL     H69    69   0.0600000    1.0080
   70        HC    1  MOL     H70    70   0.0600000    1.0080
   71        HC    1  MOL     H71    71   0.0600000    1.0080
   72        CO    1  MOL     C72    72   0.3000000   12.0115
   73        CT    1  MOL     C73    73  -0.1800000   12.0115
   74        OS    1  MOL     O74    74  -0.4000000   15.9994
   75        HC    1  MOL     H75    75   0.1000000    1.0080
   76        HC    1  MOL     H76    76   0.0600000    1.0080
   77        HC    1  MOL     H77    77   0.0600000    1.0080
   78        HC    1  MOL     H78    78   0.0600000    1.0080
   79        CO    1  MOL     C79    79   0.3000000   12.0115
   80        CT    1  MOL     C80    80  -0.1800000   12.0115
   81        OS    1  MOL     O81    81  -0.4000000   15.9994
   82        HC    1  MOL     H82    82   0.1000000    1.0080
   83        HC    1  MOL     H83    83   0.0600000    1.0080
   84        HC    1  MOL     H84    84   0.0600000    1.0080
   85        HC    1  MOL     H85    85   0.0600000    1.0080
   86        CO    1  MOL     C86    86   0.3000000   12.0115
   87        CT    1  MOL     C87    87  -0.1800000   12.0115
   88        OS    1  MOL     O88    88  -0.4000000   15.9994
   89        HC    1  MOL     H89    89   0.1000000    1.0080
   90        HC    1  MOL     H90    90   0.0600000    1.0080
   91        HC    1  MOL     H91    91   0.0600000    1.0080
   92        HC    1  MOL     H92    92   0.0600000    1.0080
   93        CO    1  MOL     C93    93   0.3000000   12.0115
   94        CT    1  MOL     C94    94  -0.1800000   12.0115
   95        OS    1  MOL     O95    95  -0.4000000   15.9994
   96        HC    1  MOL     H96    96   0.1000000    1.0080
   97        HC    1  MOL     H97    97   0.0600000    1.0080
   98        HC    1  MOL     H98    98   0.0600000    1.0080
   99        HC    1  MOL     H99    99   0.0600000    1.0080
  100        CO    1  MOL    C100   100   0.3000000   12.0115
  101        CT    1  MOL    C101   101  -0.1800000   12.0115
  102        OS    1  MOL    O102   102  -0.4000000   15.9994
  103        HC    1  MOL    H103   103   0.1000000    1.0080
  104        HC    1  MOL    H104   104   0.0600000    1.0080
  105        HC    1  MOL    H105   105   0.0600000    1.0080
  106        HC    1  MOL    H106   106   0.0600000    1.0080
  107        CO    1  MOL    C107   107   0.3000000   12.0115
  108        CT    1  MOL    C108   108  -0.1800000   12.0115
  109        OS    1  MOL    O109   109  -0.4000000   15.9994
  110        HC    1  MOL    H110   110   0.1000000    1.0080
  111        HC    1  MOL    H111   111   0.0600000    1.0080
  112        HC    1  MOL    H112   112   0.0600000    1.0080
  113        HC    1  MOL    H113   113   0.0600000    1.0080
  114        CO    1  MOL    C114   114   0.3000000   12.0115
  115        CT    1  MOL    C115   115  -0.1800000   12.0115
  116        OS    1  MOL    O116   116  -0.4000000   15.9994
  117        HC    1  MOL    H117   117   0.1000000    1.0080
  118        HC    1  MOL    H118   118   0.0600000    1.0080
  119        HC    1  MOL    H119   119   0.0600000    1.0080
  120        HC    1  MOL    H120   120   0.0600000    1.0080
  121        CO    1  MOL    C121   121   0.3000000   12.0115
  122        CT    1  MOL    C122   122  -0.1800000   12.0115
  123        OS    1  MOL    O123   123  -0.4000000   15.9994
  124        HC    1  MOL    H124   124   0.1000000    1.0080
  125        HC    1  MOL    H125   125   0.0600000    1.0080
  126        HC    1  MOL    H126   126   0.0600000    1.0080
  127        HC    1  MOL    H127   127   0.0600000    1.0080
  128        CO    1  MOL    C128   128   0.3000000   12.0115
  129        CT    1  MOL    C129   129  -0.1800000   12.0115
  130        OS    1  MOL    O130   130  -0.4000000   15.9994
  131        HC    1  MOL    H131   131   0.1000000    1.0080
  132        HC    1  MOL    H132   132   0.0600000    1.0080
  133        HC    1  MOL    H133   133   0.0600000    1.0080
  134        HC    1  MOL    H134   134   0.0600000    1.0080
  135        CO    1  MOL    C135   135   0.2647000   12.0115
  136        CT    1  MOL    C136   136  -0.1800000   12.0115
  137       OAL    1  MOL    O137   137  -0.5827000   15.9994
  138        HC    1  MOL    H138   138   0.1000000    1.0080
  139        HC    1  MOL    H139   139   0.0600000    1.0080
  140        HC    1  MOL    H140   140   0.0600000    1.0080
  141        HC    1  MOL    H141   141   0.0600000    1.0080
  142        HO    1  MOL    H142   142   0.4180000    1.0080

[ bonds ]
      1      2   1      0.1529 224262.4000
      1      3   1      0.1410 267776.0000
      1      4   1      0.1090 284512.0000
      1      8   1      0.1090 284512.0000
      2      5   1      0.1090 284512.0000
      2      6   1      0.1090 284512.0000
      2      7   1      0.1090 284512.0000
      3      9   1      0.1380 267776.0000
      9     10   1      0.1527 209200.0000
      9     11   1      0.1380 267776.0000
      9     12   1      0.1090 284512.0000
     10     13   1      0.1090 284512.0000
     10     14   1      0.1090 284512.0000
     10     15   1      0.1090 284512.0000
     11     16   1      0.1380 267776.0000
     16     17   1      0.1527 209200.0000
     16     18   1      0.1380 267776.0000
     16     19   1      0.1090 284512.0000
     17     20   1      0.1090 284512.0000
     17     21   1      0.1090 284512.0000
     17     22   1      0.1090 284512.0000
     18     23   1      0.1380 267776.0000
     23     24   1      0.1527 209200.0000
     23     25   1      0.1380 267776.0000
     23     26   1      0.1090 284512.0000
     24     27   1      0.1090 284512.0000
     24     28   1      0.1090 284512.0000
     24     29   1      0.1090 284512.0000
     25     30   1      0.1380 267776.0000
     30     31   1      0.1527 209200.0000
     30     32   1      0.1380 267776.0000
     30     33   1      0.1090 284512.0000
     31     34   1      0.1090 284512.0000
     31     35   1      0.1090 284512.0000
     31     36   1      0.1090 284512.0000
     32     37   1      0.1380 267776.0000
     37     38   1      0.1527 209200.0000
     37     39   1      0.1380 267776.0000
     37     40   1      0.1090 284512.0000
     38     41   1      0.1090 284512.0000
     38     42   1      0.1090 284512.0000
     38     43   1      0.1090 284512.0000
     39     44   1      0.1380 267776.0000
     44     45   1      0.1527 209200.0000
     44     46   1      0.1380 267776.0000
     44     47   1      0.1090 284512.0000
     45     48   1      0.1090 284512.0000
     45     49   1      0.1090 284512.0000
     45     50   1      0.1090 284512.0000
     46     51   1      0.1380 267776.0000
     51     52   1      0.1527 209200.0000
     51     53   1      0.1380 267776.0000
     51     54   1      0.1090 284512.0000
     52     55   1      0.1090 284512.0000
     52     56   1      0.1090 284512.0000
     52     57   1      0.1090 284512.0000
     53     58   1      0.1380 267776.0000
     58     59   1      0.1527 209200.0000
     58     60   1      0.1380 267776.0000
     58     61   1      0.1090 284512.0000
     59     62   1      0.1090 284512.0000
     59     63   1      0.1090 284512.0000
     59     64   1      0.1090 284512.0000
     60     65   1      0.1380 267776.0000
     65     66   1      0.1527 209200.0000
     65     67   1      0.1380 267776.0000
     65     68   1      0.1090 284512.0000
     66     69   1      0.1090 284512.0000
     66     70   1      0.1090 284512.0000
     66     71   1      0.1090 284512.0000
     67     72   1      0.1380 267776.0000
     72     73   1      0.1527 209200.0000
     72     74   1      0.1380 267776.0000
     72     75   1      0.1090 284512.0000
     73     76   1      0.1090 284512.0000
     73     77   1      0.1090 284512.0000
     73     78   1      0.1090 284512.0000
     74     79   1      0.1380 267776.0000
     79     80   1      0.1527 209200.0000
     79     81   1      0.1380 267776.0000
     79     82   1      0.1090 284512.0000
     80     83   1      0.1090 284512.0000
     80     84   1      0.1090 284512.0000
     80     85   1      0.1090 284512.0000
     81     86   1      0.1380 267776.0000
     86     87   1      0.1527 209200.0000
     86     88   1      0.1380 267776.0000
     86     89   1      0.1090 284512.0000
     87     90   1      0.1090 284512.0000
     87     91   1      0.1090 284512.0000
     87     92   1      0.1090 284512.0000
     88     93   1      0.1380 267776.0000
     93     94   1      0.1527 209200.0000
     93     95   1      0.1380 267776.0000
     93     96   1      0.1090 284512.0000
     94     97   1      0.1090 284512.0000
     94     98   1      0.1090 284512.0000
     94     99   1      0.1090 284512.0000
     95    100   1      0.1380 267776.0000
    100    101   1      0.1527 209200.0000
    100    102   1      0.1380 267776.0000
    100    103   1      0.1090 284512.0000
    101    104   1      0.1090 284512.0000
    101    105   1      0.1090 284512.0000
    101    106   1      0.1090 284512.0000
    102    107   1      0.1380 267776.0000
    107    108   1      0.1527 209200.0000
    107    109   1      0.1380 267776.0000
    107    110   1      0.1090 284512.0000
    108    111   1      0.1090 284512.0000
    108    112   1      0.1090 284512.0000
    108    113   1      0.1090 284512.0000
    109    114   1      0.1380 267776.0000
    114    115   1      0.1527 209200.0000
    114    116   1      0.1380 267776.0000
    114    117   1      0.1090 284512.0000
    115    118   1      0.1090 284512.0000
    115    119   1      0.1090 284512.0000
    115    120   1      0.1090 284512.0000
    116    121   1      0.1380 267776.0000
    121    122   1      0.1527 209200.0000
    121    123   1      0.1380 267776.0000
    121    124   1      0.1090 284512.0000
    122    125   1      0.1090 284512.0000
    122    126   1      0.1090 284512.0000
    122    127   1      0.1090 284512.0000
    123    128   1      0.1380 267776.0000
    128    129   1      0.1527 209200.0000
    128    130   1      0.1380 267776.0000
    128    131   1      0.1090 284512.0000
    129    132   1      0.1090 284512.0000
    129    133   1      0.1090 284512.0000
    129    134   1      0.1090 284512.0000
    130    135   1      0.1380 267776.0000
    135    136   1      0.1527 209200.0000
    135    137   1      0.1407 317984.0000
    135    138   1      0.1090 284512.0000
    136    139   1      0.1090 284512.0000
    136    140   1      0.1090 284512.0000
    136    141   1      0.1090 284512.0000
    137    142   1      0.0945 462750.4000

[ pairs ]
; ai   aj   funct   fudge_QQ  charge_i   charge_j   c6    c12
      3      5   2   0.50000    -0.4000000    0.0600000   2.066619e-04  7.875431e-08
      3      6   2   0.50000    -0.4000000    0.0600000   2.066619e-04  7.875431e-08
      3      7   2   0.50000    -0.4000000    0.0600000   2.066619e-04  7.875431e-08
      4      5   2   0.50000     0.0300000    0.0600000   6.128906e-05  1.496315e-08
      4      6   2   0.50000     0.0300000    0.0600000   6.128906e-05  1.496315e-08
      4      7   2   0.50000     0.0300000    0.0600000   6.128906e-05  1.496315e-08
      8      5   2   0.50000     0.0300000    0.0600000   6.128906e-05  1.496315e-08
      8      6   2   0.50000     0.0300000    0.0600000   6.128906e-05  1.496315e-08
      8      7   2   0.50000     0.0300000    0.0600000   6.128906e-05  1.496315e-08
      2      9   2   0.50000    -0.1800000    0.3000000   1.015252e-03  1.866303e-06
      4      9   2   0.50000     0.0300000    0.3000000   2.494471e-04  1.671101e-07
      8      9   2   0.50000     0.0300000    0.3000000   2.494471e-04  1.671101e-07
      1     10   2   0.50000     0.1400000   -0.1800000   1.015252e-03  1.866303e-06
      1     11   2   0.50000     0.1400000   -0.4000000   8.411158e-04  8.795366e-07
      1     12   2   0.50000     0.1400000    0.1000000   2.494471e-04  1.671101e-07
      3     13   2   0.50000    -0.4000000    0.0600000   2.066619e-04  7.875431e-08
      3     14   2   0.50000    -0.4000000    0.0600000   2.066619e-04  7.875431e-08
      3     15   2   0.50000    -0.4000000    0.0600000   2.066619e-04  7.875431e-08
     11     13   2   0.50000    -0.4000000    0.0600000   2.066619e-04  7.875431e-08
     11     14   2   0.50000    -0.4000000    0.0600000   2.066619e-04  7.875431e-08
     11     15   2   0.50000    -0.4000000    0.0600000   2.066619e-04  7.875431e-08
     12     13   2   0.50000     0.1000000    0.0600000   6.128906e-05  1.496315e-08
     12     14   2   0.50000     0.1000000    0.0600000   6.128906e-05  1.496315e-08
     12     15   2   0.50000     0.1000000    0.0600000   6.128906e-05  1.496315e-08
      3     16   2   0.50000    -0.4000000    0.3000000   8.411158e-04  8.795366e-07
     10     16   2   0.50000    -0.1800000    0.3000000   1.015252e-03  1.866303e-06
     12     16   2   0.50000     0.1000000    0.3000000   2.494471e-04  1.671101e-07
      9     17   2   0.50000     0.3000000   -0.1800000   1.015252e-03  1.866303e-06
      9     18   2   0.50000     0.3000000   -0.4000000   8.411158e-04  8.795366e-07
      9     19   2   0.50000     0.3000000    0.1000000   2.494471e-04  1.671101e-07
     11     20   2   0.50000    -0.4000000    0.0600000   2.066619e-04  7.875431e-08
     11     21   2   0.50000    -0.4000000    0.0600000   2.066619e-04  7.875431e-08
     11     22   2   0.50000    -0.4000000    0.0600000   2.066619e-04  7.875431e-08
     18     20   2   0.50000    -0.4000000    0.0600000   2.066619e-04  7.875431e-08
     18     21   2   0.50000    -0.4000000    0.0600000   2.066619e-04  7.875431e-08
     18     22   2   0.50000    -0.4000000    0.0600000   2.066619e-04  7.875431e-08
     19     20   2   0.50000     0.1000000    0.0600000   6.128906e-05  1.496315e-08
     19     21   2   0.50000     0.1000000    0.0600000   6.128906e-05  1.496315e-08
     19     22   2   0.50000     0.1000000    0.0600000   6.128906e-05  1.496315e-08
     11     23   2   0.50000    -0.4000000    0.3000000   8.411158e-04  8.795366e-07
     17     23   2   0.50000    -0.1800000    0.3000000   1.015252e-03  1.866303e-06
     19     23   2   0.50000     0.1000000    0.3000000   2.494471e-04  1.671101e-07
     16     24   2   0.50000     0.3000000   -0.1800000   1.015252e-03  1.866303e-06
     16     25   2   0.50000     0.3000000   -0.4000000   8.411158e-04  8.795366e-07
     16     26   2   0.50000     0.3000000    0.1000000   2.494471e-04  1.671101e-07
     18     27   2   0.50000    -0.4000000    0.0600000   2.066619e-04  7.875431e-08
     18     28   2   0.50000    -0.4000000    0.0600000   2.066619e-04  7.875431e-08
     18     29   2   0.50000    -0.4000000    0.0600000   2.066619e-04  7.875431e-08
     25     27   2   0.50000    -0.4000000    0.0600000   2.066619e-04  7.875431e-08
     25     28   2   0.50000    -0.4000000    0.0600000   2.066619e-04  7.875431e-08
     25     29   2   0.50000    -0.4000000    0.0600000   2.066619e-04  7.875431e-08
     26     27   2   0.50000     0.1000000    0.0600000   6.128906e-05  1.496315e-08
     26     28   2   0.50000     0.1000000    0.0600000   6.128906e-05  1.496315e-08
     26     29   2   0.50000     0.1000000    0.0600000   6.128906e-05  1.496315e-08
     18     30   2   0.50000    -0.4000000    0.3000000   8.411158e-04  8.795366e-07
     24     30   2   0.50000    -0.1800000    0.3000000   1.015252e-03  1.866303e-06
     26     30   2   0.50000     0.1000000    0.3000000   2.494471e-04  1.671101e-07
     23     31   2   0.50000     0.3000000   -0.1800000   1.015252e-03  1.866303e-06
     23     32   2   0.50000     0.3000000   -0.4000000   8.411158e-04  8.795366e-07
     23     33   2   0.50000     0.3000000    0.1000000   2.494471e-04  1.671101e-07
     25     34   2   0.50000    -0.4000000    0.0600000   2.066619e-04  7.875431e-08
     25     35   2   0.50000    -0.4000000    0.0600000   2.066619e-04  7.875431e-08
     25     36   2   0.50000    -0.4000000    0.0600000   2.066619e-04  7.875431e-08
     32     34   2   0.50000    -0.4000000    0.0600000   2.066619e-04  7.875431e-08
     32     35   2   0.50000    -0.4000000    0.0600000   2.066619e-04  7.875431e-08
     32     36   2   0.50000    -0.4000000    0.0600000   2.066619e-04  7.875431e-08
     33     34   2   0.50000     0.1000000    0.0600000   6.128906e-05  1.496315e-08
     33     35   2   0.50000     0.1000000    0.0600000   6.128906e-05  1.496315e-08
     33     36   2   0.50000     0.1000000    0.0600000   6.128906e-05  1.496315e-08
     25     37   2   0.50000    -0.4000000    0.3000000   8.411158e-04  8.795366e-07
     31     37   2   0.50000    -0.1800000    0.3000000   1.015252e-03  1.866303e-06
     33     37   2   0.50000     0.1000000    0.3000000   2.494471e-04  1.671101e-07
     30     38   2   0.50000     0.3000000   -0.1800000   1.015252e-03  1.866303e-06
     30     39   2   0.50000     0.3000000   -0.4000000   8.411158e-04  8.795366e-07
     30     40   2   0.50000     0.3000000    0.1000000   2.494471e-04  1.671101e-07
     32     41   2   0.50000    -0.4000000    0.0600000   2.066619e-04  7.875431e-08
     32     42   2   0.50000    -0.4000000    0.0600000   2.066619e-04  7.875431e-08
     32     43   2   0.50000    -0.4000000    0.0600000   2.066619e-04  7.875431e-08
     39     41   2   0.50000    -0.4000000    0.0600000   2.066619e-04  7.875431e-08
     39     42   2   0.50000    -0.4000000    0.0600000   2.066619e-04  7.875431e-08
     39     43   2   0.50000    -0.4000000    0.0600000   2.066619e-04  7.875431e-08
     40     41   2   0.50000     0.1000000    0.0600000   6.128906e-05  1.496315e-08
     40     42   2   0.50000     0.1000000    0.0600000   6.128906e-05  1.496315e-08
     40     43   2   0.50000     0.1000000    0.0600000   6.128906e-05  1.496315e-08
     32     44   2   0.50000    -0.4000000    0.3000000   8.411158e-04  8.795366e-07
     38     44   2   0.50000    -0.1800000    0.3000000   1.015252e-03  1.866303e-06
     40     44   2   0.50000     0.1000000    0.3000000   2.494471e-04  1.671101e-07
     37     45   2   0.50000     0.3000000   -0.1800000   1.015252e-03  1.866303e-06
     37     46   2   0.50000     0.3000000   -0.4000000   8.411158e-04  8.795366e-07
     37     47   2   0.50000     0.3000000    0.1000000   2.494471e-04  1.671101e-07
     39     48   2   0.50000    -0.4000000    0.0600000   2.066619e-04  7.875431e-08
     39     49   2   0.50000    -0.4000000    0.0600000   2.066619e-04  7.875431e-08
     39     50   2   0.50000    -0.4000000    0.0600000   2.066619e-04  7.875431e-08
     46     48   2   0.50000    -0.4000000    0.0600000   2.066619e-04  7.875431e-08
     46     49   2   0.50000    -0.4000000    0.0600000   2.066619e-04  7.875431e-08
     46     50   2   0.50000    -0.4000000    0.0600000   2.066619e-04  7.875431e-08
     47     48   2   0.50000     0.1000000    0.0600000   6.128906e-05  1.496315e-08
     47     49   2   0.50000     0.1000000    0.0600000   6.128906e-05  1.496315e-08
     47     50   2   0.50000     0.1000000    0.0600000   6.128906e-05  1.496315e-08
     39     51   2   0.50000    -0.4000000    0.3000000   8.411158e-04  8.795366e-07
     45     51   2   0.50000    -0.1800000    0.3000000   1.015252e-03  1.866303e-06
     47     51   2   0.50000     0.1000000    0.3000000   2.494471e-04  1.671101e-07
     44     52   2   0.50000     0.3000000   -0.1800000   1.015252e-03  1.866303e-06
     44     53   2   0.50000     0.3000000   -0.4000000   8.411158e-04  8.795366e-07
     44     54   2   0.50000     0.3000000    0.1000000   2.494471e-04  1.671101e-07
     46     55   2   0.50000    -0.4000000    0.0600000   2.066619e-04  7.875431e-08
     46     56   2   0.50000    -0.4000000    0.0600000   2.066619e-04  7.875431e-08
     46     57   2   0.50000    -0.4000000    0.0600000   2.066619e-04  7.875431e-08
     53     55   2   0.50000    -0.4000000    0.0600000   2.066619e-04  7.875431e-08
     53     56   2   0.50000    -0.4000000    0.0600000   2.066619e-04  7.875431e-08
     53     57   2   0.50000    -0.4000000    0.0600000   2.066619e-04  7.875431e-08
     54     55   2   0.50000     0.1000000    0.0600000   6.128906e-05  1.496315e-08
     54     56   2   0.50000     0.1000000    0.0600000   6.128906e-05  1.496315e-08
     54     57   2   0.50000     0.1000000    0.0600000   6.128906e-05  1.496315e-08
     46     58   2   0.50000    -0.4000000    0.3000000   8.411158e-04  8.795366e-07
     52     58   2   0.50000    -0.1800000    0.3000000   1.015252e-03  1.866303e-06
     54     58   2   0.50000     0.1000000    0.3000000   2.494471e-04  1.671101e-07
     51     59   2   0.50000     0.3000000   -0.1800000   1.015252e-03  1.866303e-06
     51     60   2   0.50000     0.3000000   -0.4000000   8.411158e-04  8.795366e-07
     51     61   2   0.50000     0.3000000    0.1000000   2.494471e-04  1.671101e-07
     53     62   2   0.50000    -0.4000000    0.0600000   2.066619e-04  7.875431e-08
     53     63   2   0.50000    -0.4000000    0.0600000   2.066619e-04  7.875431e-08
     53     64   2   0.50000    -0.4000000    0.0600000   2.066619e-04  7.875431e-08
     60     62   2   0.50000    -0.4000000    0.0600000   2.066619e-04  7.875431e-08
     60     63   2   0.50000    -0.4000000    0.0600000   2.066619e-04  7.875431e-08
     60     64   2   0.50000    -0.4000000    0.0600000   2.066619e-04  7.875431e-08
     61     62   2   0.50000     0.1000000    0.0600000   6.128906e-05  1.496315e-08
     61     63   2   0.50000     0.1000000    0.0600000   6.128906e-05  1.496315e-08
     61     64   2   0.50000     0.1000000    0.0600000   6.128906e-05  1.496315e-08
     53     65   2   0.50000    -0.4000000    0.3000000   8.411158e-04  8.795366e-07
     59     65   2   0.50000    -0.1800000    0.3000000   1.015252e-03  1.866303e-06
     61     65   2   0.50000     0.1000000    0.3000000   2.494471e-04  1.671101e-07
     58     66   2   0.50000     0.3000000   -0.1800000   1.015252e-03  1.866303e-06
     58     67   2   0.50000     0.3000000   -0.4000000   8.411158e-04  8.795366e-07
     58     68   2   0.50000     0.3000000    0.1000000   2.494471e-04  1.671101e-07
     60     69   2   0.50000    -0.4000000    0.0600000   2.066619e-04  7.875431e-08
     60     70   2   0.50000    -0.4000000    0.0600000   2.066619e-04  7.875431e-08
     60     71   2   0.50000    -0.4000000    0.0600000   2.066619e-04  7.875431e-08
     67     69   2   0.50000    -0.4000000    0.0600000   2.066619e-04  7.875431e-08
     67     70   2   0.50000    -0.4000000    0.0600000   2.066619e-04  7.875431e-08
     67     71   2   0.50000    -0.4000000    0.0600000   2.066619e-04  7.875431e-08
     68     69   2   0.50000     0.1000000    0.0600000   6.128906e-05  1.496315e-08
     68     70   2   0.50000     0.1000000    0.0600000   6.128906e-05  1.496315e-08
     68     71   2   0.50000     0.1000000    0.0600000   6.128906e-05  1.496315e-08
     60     72   2   0.50000    -0.4000000    0.3000000   8.411158e-04  8.795366e-07
     66     72   2   0.50000    -0.1800000    0.3000000   1.015252e-03  1.866303e-06
     68     72   2   0.50000     0.1000000    0.3000000   2.494471e-04  1.671101e-07
     65     73   2   0.50000     0.3000000   -0.1800000   1.015252e-03  1.866303e-06
     65     74   2   0.50000     0.3000000   -0.4000000   8.411158e-04  8.795366e-07
     65     75   2   0.50000     0.3000000    0.1000000   2.494471e-04  1.671101e-07
     67     76   2   0.50000    -0.4000000    0.0600000   2.066619e-04  7.875431e-08
     67     77   2   0.50000    -0.4000000    0.0600000   2.066619e-04  7.875431e-08
     67     78   2   0.50000    -0.4000000    0.0600000   2.066619e-04  7.875431e-08
     74     76   2   0.50000    -0.4000000    0.0600000   2.066619e-04  7.875431e-08
     74     77   2   0.50000    -0.4000000    0.0600000   2.066619e-04  7.875431e-08
     74     78   2   0.50000    -0.4000000    0.0600000   2.066619e-04  7.875431e-08
     75     76   2   0.50000     0.1000000    0.0600000   6.128906e-05  1.496315e-08
     75     77   2   0.50000     0.1000000    0.0600000   6.128906e-05  1.496315e-08
     75     78   2   0.50000     0.1000000    0.0600000   6.128906e-05  1.496315e-08
     67     79   2   0.50000    -0.4000000    0.3000000   8.411158e-04  8.795366e-07
     73     79   2   0.50000    -0.1800000    0.3000000   1.015252e-03  1.866303e-06
     75     79   2   0.50000     0.1000000    0.3000000   2.494471e-04  1.671101e-07
     72     80   2   0.50000     0.3000000   -0.1800000   1.015252e-03  1.866303e-06
     72     81   2   0.50000     0.3000000   -0.4000000   8.411158e-04  8.795366e-07
     72     82   2   0.50000     0.3000000    0.1000000   2.494471e-04  1.671101e-07
     74     83   2   0.50000    -0.4000000    0.0600000   2.066619e-04  7.875431e-08
     74     84   2   0.50000    -0.4000000    0.0600000   2.066619e-04  7.875431e-08
     74     85   2   0.50000    -0.4000000    0.0600000   2.066619e-04  7.875431e-08
     81     83   2   0.50000    -0.4000000    0.0600000   2.066619e-04  7.875431e-08
     81     84   2   0.50000    -0.4000000    0.0600000   2.066619e-04  7.875431e-08
     81     85   2   0.50000    -0.4000000    0.0600000   2.066619e-04  7.875431e-08
     82     83   2   0.50000     0.1000000    0.0600000   6.128906e-05  1.496315e-08
     82     84   2   0.50000     0.1000000    0.0600000   6.128906e-05  1.496315e-08
     82     85   2   0.50000     0.1000000    0.0600000   6.128906e-05  1.496315e-08
     74     86   2   0.50000    -0.4000000    0.3000000   8.411158e-04  8.795366e-07
     80     86   2   0.50000    -0.1800000    0.3000000   1.015252e-03  1.866303e-06
     82     86   2   0.50000     0.1000000    0.3000000   2.494471e-04  1.671101e-07
     79     87   2   0.50000     0.3000000   -0.1800000   1.015252e-03  1.866303e-06
     79     88   2   0.50000     0.3000000   -0.4000000   8.411158e-04  8.795366e-07
     79     89   2   0.50000     0.3000000    0.1000000   2.494471e-04  1.671101e-07
     81     90   2   0.50000    -0.4000000    0.0600000   2.066619e-04  7.875431e-08
     81     91   2   0.50000    -0.4000000    0.0600000   2.066619e-04  7.875431e-08
     81     92   2   0.50000    -0.4000000    0.0600000   2.066619e-04  7.875431e-08
     88     90   2   0.50000    -0.4000000    0.0600000   2.066619e-04  7.875431e-08
     88     91   2   0.50000    -0.4000000    0.0600000   2.066619e-04  7.875431e-08
     88     92   2   0.50000    -0.4000000    0.0600000   2.066619e-04  7.875431e-08
     89     90   2   0.50000     0.1000000    0.0600000   6.128906e-05  1.496315e-08
     89     91   2   0.50000     0.1000000    0.0600000   6.128906e-05  1.496315e-08
     89     92   2   0.50000     0.1000000    0.0600000   6.128906e-05  1.496315e-08
     81     93   2   0.50000    -0.4000000    0.3000000   8.411158e-04  8.795366e-07
     87     93   2   0.50000    -0.1800000    0.3000000   1.015252e-03  1.866303e-06
     89     93   2   0.50000     0.1000000    0.3000000   2.494471e-04  1.671101e-07
     86     94   2   0.50000     0.3000000   -0.1800000   1.015252e-03  1.866303e-06
     86     95   2   0.50000     0.3000000   -0.4000000   8.411158e-04  8.795366e-07
     86     96   2   0.50000     0.3000000    0.1000000   2.494471e-04  1.671101e-07
     88     97   2   0.50000    -0.4000000    0.0600000   2.066619e-04  7.875431e-08
     88     98   2   0.50000    -0.4000000    0.0600000   2.066619e-04  7.875431e-08
     88     99   2   0.50000    -0.4000000    0.0600000   2.066619e-04  7.875431e-08
     95     97   2   0.50000    -0.4000000    0.0600000   2.066619e-04  7.875431e-08
     95     98   2   0.50000    -0.4000000    0.0600000   2.066619e-04  7.875431e-08
     95     99   2   0.50000    -0.4000000    0.0600000   2.066619e-04  7.875431e-08
     96     97   2   0.50000     0.1000000    0.0600000   6.128906e-05  1.496315e-08
     96     98   2   0.50000     0.1000000    0.0600000   6.128906e-05  1.496315e-08
     96     99   2   0.50000     0.1000000    0.0600000   6.128906e-05  1.496315e-08
     88    100   2   0.50000    -0.4000000    0.3000000   8.411158e-04  8.795366e-07
     94    100   2   0.50000    -0.1800000    0.3000000   1.015252e-03  1.866303e-06
     96    100   2   0.50000     0.1000000    0.3000000   2.494471e-04  1.671101e-07
     93    101   2   0.50000     0.3000000   -0.1800000   1.015252e-03  1.866303e-06
     93    102   2   0.50000     0.3000000   -0.4000000   8.411158e-04  8.795366e-07
     93    103   2   0.50000     0.3000000    0.1000000   2.494471e-04  1.671101e-07
     95    104   2   0.50000    -0.4000000    0.0600000   2.066619e-04  7.875431e-08
     95    105   2   0.50000    -0.4000000    0.0600000   2.066619e-04  7.875431e-08
     95    106   2   0.50000    -0.4000000    0.0600000   2.066619e-04  7.875431e-08
    102    104   2   0.50000    -0.4000000    0.0600000   2.066619e-04  7.875431e-08
    102    105   2   0.50000    -0.4000000    0.0600000   2.066619e-04  7.875431e-08
    102    106   2   0.50000    -0.4000000    0.0600000   2.066619e-04  7.875431e-08
    103    104   2   0.50000     0.1000000    0.0600000   6.128906e-05  1.496315e-08
    103    105   2   0.50000     0.1000000    0.0600000   6.128906e-05  1.496315e-08
    103    106   2   0.50000     0.1000000    0.0600000   6.128906e-05  1.496315e-08
     95    107   2   0.50000    -0.4000000    0.3000000   8.411158e-04  8.795366e-07
    101    107   2   0.50000    -0.1800000    0.3000000   1.015252e-03  1.866303e-06
    103    107   2   0.50000     0.1000000    0.3000000   2.494471e-04  1.671101e-07
    100    108   2   0.50000     0.3000000   -0.1800000   1.015252e-03  1.866303e-06
    100    109   2   0.50000     0.3000000   -0.4000000   8.411158e-04  8.795366e-07
    100    110   2   0.50000     0.3000000    0.1000000   2.494471e-04  1.671101e-07
    102    111   2   0.50000    -0.4000000    0.0600000   2.066619e-04  7.875431e-08
    102    112   2   0.50000    -0.4000000    0.0600000   2.066619e-04  7.875431e-08
    102    113   2   0.50000    -0.4000000    0.0600000   2.066619e-04  7.875431e-08
    109    111   2   0.50000    -0.4000000    0.0600000   2.066619e-04  7.875431e-08
    109    112   2   0.50000    -0.4000000    0.0600000   2.066619e-04  7.875431e-08
    109    113   2   0.50000    -0.4000000    0.0600000   2.066619e-04  7.875431e-08
    110    111   2   0.50000     0.1000000    0.0600000   6.128906e-05  1.496315e-08
    110    112   2   0.50000     0.1000000    0.0600000   6.128906e-05  1.496315e-08
    110    113   2   0.50000     0.1000000    0.0600000   6.128906e-05  1.496315e-08
    102    114   2   0.50000    -0.4000000    0.3000000   8.411158e-04  8.795366e-07
    108    114   2   0.50000    -0.1800000    0.3000000   1.015252e-03  1.866303e-06
    110    114   2   0.50000     0.1000000    0.3000000   2.494471e-04  1.671101e-07
    107    115   2   0.50000     0.3000000   -0.1800000   1.015252e-03  1.866303e-06
    107    116   2   0.50000     0.3000000   -0.4000000   8.411158e-04  8.795366e-07
    107    117   2   0.50000     0.3000000    0.1000000   2.494471e-04  1.671101e-07
    109    118   2   0.50000    -0.4000000    0.0600000   2.066619e-04  7.875431e-08
    109    119   2   0.50000    -0.4000000    0.0600000   2.066619e-04  7.875431e-08
    109    120   2   0.50000    -0.4000000    0.0600000   2.066619e-04  7.875431e-08
    116    118   2   0.50000    -0.4000000    0.0600000   2.066619e-04  7.875431e-08
    116    119   2   0.50000    -0.4000000    0.0600000   2.066619e-04  7.875431e-08
    116    120   2   0.50000    -0.4000000    0.0600000   2.066619e-04  7.875431e-08
    117    118   2   0.50000     0.1000000    0.0600000   6.128906e-05  1.496315e-08
    117    119   2   0.50000     0.1000000    0.0600000   6.128906e-05  1.496315e-08
    117    120   2   0.50000     0.1000000    0.0600000   6.128906e-05  1.496315e-08
    109    121   2   0.50000    -0.4000000    0.3000000   8.411158e-04  8.795366e-07
    115    121   2   0.50000    -0.1800000    0.3000000   1.015252e-03  1.866303e-06
    117    121   2   0.50000     0.1000000    0.3000000   2.494471e-04  1.671101e-07
    114    122   2   0.50000     0.3000000   -0.1800000   1.015252e-03  1.866303e-06
    114    123   2   0.50000     0.3000000   -0.4000000   8.411158e-04  8.795366e-07
    114    124   2   0.50000     0.3000000    0.1000000   2.494471e-04  1.671101e-07
    116    125   2   0.50000    -0.4000000    0.0600000   2.066619e-04  7.875431e-08
    116    126   2   0.50000    -0.4000000    0.0600000   2.066619e-04  7.875431e-08
    116    127   2   0.50000    -0.4000000    0.0600000   2.066619e-04  7.875431e-08
    123    125   2   0.50000    -0.4000000    0.0600000   2.066619e-04  7.875431e-08
    123    126   2   0.50000    -0.4000000    0.0600000   2.066619e-04  7.875431e-08
    123    127   2   0.50000    -0.4000000    0.0600000   2.066619e-04  7.875431e-08
    124    125   2   0.50000     0.1000000    0.0600000   6.128906e-05  1.496315e-08
    124    126   2   0.50000     0.1000000    0.0600000   6.128906e-05  1.496315e-08
    124    127   2   0.50000     0.1000000    0.0600000   6.128906e-05  1.496315e-08
    116    128   2   0.50000    -0.4000000    0.3000000   8.411158e-04  8.795366e-07
    122    128   2   0.50000    -0.1800000    0.3000000   1.015252e-03  1.866303e-06
    124    128   2   0.50000     0.1000000    0.3000000   2.494471e-04  1.671101e-07
    121    129   2   0.50000     0.3000000   -0.1800000   1.015252e-03  1.866303e-06
    121    130   2   0.50000     0.3000000   -0.4000000   8.411158e-04  8.795366e-07
    121    131   2   0.50000     0.3000000    0.1000000   2.494471e-04  1.671101e-07
    123    132   2   0.50000    -0.4000000    0.0600000   2.066619e-04  7.875431e-08
    123    133   2   0.50000    -0.4000000    0.0600000   2.066619e-04  7.875431e-08
    123    134   2   0.50000    -0.4000000    0.0600000   2.066619e-04  7.875431e-08
    130    132   2   0.50000    -0.4000000    0.0600000   2.066619e-04  7.875431e-08
    130    133   2   0.50000    -0.4000000    0.0600000   2.066619e-04  7.875431e-08
    130    134   2   0.50000    -0.4000000    0.0600000   2.066619e-04  7.875431e-08
    131    132   2   0.50000     0.1000000    0.0600000   6.128906e-05  1.496315e-08
    131    133   2   0.50000     0.1000000    0.0600000   6.128906e-05  1.496315e-08
    131    134   2   0.50000     0.1000000    0.0600000   6.128906e-05  1.496315e-08
    123    135   2   0.50000    -0.4000000    0.2647000   8.411158e-04  8.795366e-07
    129    135   2   0.50000    -0.1800000    0.2647000   1.015252e-03  1.866303e-06
    131    135   2   0.50000     0.1000000    0.2647000   2.494471e-04  1.671101e-07
    128    136   2   0.50000     0.3000000   -0.1800000   1.015252e-03  1.866303e-06
    128    137   2   0.50000     0.3000000   -0.5827000   1.154213e-03  1.502983e-06
    128    138   2   0.50000     0.3000000    0.1000000   2.494471e-04  1.671101e-07
    130    139   2   0.50000    -0.4000000    0.0600000   2.066619e-04  7.875431e-08
    130    140   2   0.50000    -0.4000000    0.0600000   2.066619e-04  7.875431e-08
    130    141   2   0.50000    -0.4000000    0.0600000   2.066619e-04  7.875431e-08
    137    139   2   0.50000    -0.5827000    0.0600000   2.835898e-04  1.345781e-07
    137    140   2   0.50000    -0.5827000    0.0600000   2.835898e-04  1.345781e-07
    137    141   2   0.50000    -0.5827000    0.0600000   2.835898e-04  1.345781e-07
    138    139   2   0.50000     0.1000000    0.0600000   6.128906e-05  1.496315e-08
    138    140   2   0.50000     0.1000000    0.0600000   6.128906e-05  1.496315e-08
    138    141   2   0.50000     0.1000000    0.0600000   6.128906e-05  1.496315e-08
    130    142   2   0.50000    -0.4000000    0.4180000   1.653295e-06  5.040276e-12
    136    142   2   0.50000    -0.1800000    0.4180000   1.995577e-06  1.069504e-11
    138    142   2   0.50000     0.1000000    0.4180000   4.903125e-07  9.576416e-13

[ angles ]
; ai  aj  ak
      2      1      3   1    109.5000    418.4000
      2      1      4   1    110.7000    313.8000
      2      1      8   1    110.7000    313.8000
      3      1      4   1    109.5000    292.8800
      3      1      8   1    109.5000    292.8800
      4      1      8   1    107.8000    276.1440
      1      2      5   1    110.7000    313.8000
      1      2      6   1    110.7000    313.8000
      1      2      7   1    110.7000    313.8000
      5      2      6   1    107.8000    276.1440
      5      2      7   1    107.8000    276.1440
      6      2      7   1    107.8000    276.1440
      1      3      9   1    109.5000    502.0800
      3      9     10   1    108.5670    753.1200
      3      9     11   1    111.5500    774.8768
      3      9     12   1    109.5000    292.8800
     10      9     11   1    108.5670    753.1200
     10      9     12   1    112.0110    376.5600
     11      9     12   1    109.5000    292.8800
      9     10     13   1    108.7200    376.5600
      9     10     14   1    108.7200    376.5600
      9     10     15   1    108.7200    376.5600
     13     10     14   1    107.8000    276.1440
     13     10     15   1    107.8000    276.1440
     14     10     15   1    107.8000    276.1440
      9     11     16   1    109.5880    836.8000
     11     16     17   1    108.5670    753.1200
     11     16     18   1    111.5500    774.8768
     11     16     19   1    109.5000    292.8800
     17     16     18   1    108.5670    753.1200
     17     16     19   1    112.0110    376.5600
     18     16     19   1    109.5000    292.8800
     16     17     20   1    108.7200    376.5600
     16     17     21   1    108.7200    376.5600
     16     17     22   1    108.7200    376.5600
     20     17     21   1    107.8000    276.1440
     20     17     22   1    107.8000    276.1440
     21     17     22   1    107.8000    276.1440
     16     18     23   1    109.5880    836.8000
     18     23     24   1    108.5670    753.1200
     18     23     25   1    111.5500    774.8768
     18     23     26   1    109.5000    292.8800
     24     23     25   1    108.5670    753.1200
     24     23     26   1    112.0110    376.5600
     25     23     26   1    109.5000    292.8800
     23     24     27   1    108.7200    376.5600
     23     24     28   1    108.7200    376.5600
     23     24     29   1    108.7200    376.5600
     27     24     28   1    107.8000    276.1440
     27     24     29   1    107.8000    276.1440
     28     24     29   1    107.8000    276.1440
     23     25     30   1    109.5880    836.8000
     25     30     31   1    108.5670    753.1200
     25     30     32   1    111.5500    774.8768
     25     30     33   1    109.5000    292.8800
     31     30     32   1    108.5670    753.1200
     31     30     33   1    112.0110    376.5600
     32     30     33   1    109.5000    292.8800
     30     31     34   1    108.7200    376.5600
     30     31     35   1    108.7200    376.5600
     30     31     36   1    108.7200    376.5600
     34     31     35   1    107.8000    276.1440
     34     31     36   1    107.8000    276.1440
     35     31     36   1    107.8000    276.1440
     30     32     37   1    109.5880    836.8000
     32     37     38   1    108.5670    753.1200
     32     37     39   1    111.5500    774.8768
     32     37     40   1    109.5000    292.8800
     38     37     39   1    108.5670    753.1200
     38     37     40   1    112.0110    376.5600
     39     37     40   1    109.5000    292.8800
     37     38     41   1    108.7200    376.5600
     37     38     42   1    108.7200    376.5600
     37     38     43   1    108.7200    376.5600
     41     38     42   1    107.8000    276.1440
     41     38     43   1    107.8000    276.1440
     42     38     43   1    107.8000    276.1440
     37     39     44   1    109.5880    836.8000
     39     44     45   1    108.5670    753.1200
     39     44     46   1    111.5500    774.8768
     39     44     47   1    109.5000    292.8800
     45     44     46   1    108.5670    753.1200
     45     44     47   1    112.0110    376.5600
     46     44     47   1    109.5000    292.8800
     44     45     48   1    108.7200    376.5600
     44     45     49   1    108.7200    376.5600
     44     45     50   1    108.7200    376.5600
     48     45     49   1    107.8000    276.1440
     48     45     50   1    107.8000    276.1440
     49     45     50   1    107.8000    276.1440
     44     46     51   1    109.5880    836.8000
     46     51     52   1    108.5670    753.1200
     46     51     53   1    111.5500    774.8768
     46     51     54   1    109.5000    292.8800
     52     51     53   1    108.5670    753.1200
     52     51     54   1    112.0110    376.5600
     53     51     54   1    109.5000    292.8800
     51     52     55   1    108.7200    376.5600
     51     52     56   1    108.7200    376.5600
     51     52     57   1    108.7200    376.5600
     55     52     56   1    107.8000    276.1440
     55     52     57   1    107.8000    276.1440
     56     52     57   1    107.8000    276.1440
     51     53     58   1    109.5880    836.8000
     53     58     59   1    108.5670    753.1200
     53     58     60   1    111.5500    774.8768
     53     58     61   1    109.5000    292.8800
     59     58     60   1    108.5670    753.1200
     59     58     61   1    112.0110    376.5600
     60     58     61   1    109.5000    292.8800
     58     59     62   1    108.7200    376.5600
     58     59     63   1    108.7200    376.5600
     58     59     64   1    108.7200    376.5600
     62     59     63   1    107.8000    276.1440
     62     59     64   1    107.8000    276.1440
     63     59     64   1    107.8000    276.1440
     58     60     65   1    109.5880    836.8000
     60     65     66   1    108.5670    753.1200
     60     65     67   1    111.5500    774.8768
     60     65     68   1    109.5000    292.8800
     66     65     67   1    108.5670    753.1200
     66     65     68   1    112.0110    376.5600
     67     65     68   1    109.5000    292.8800
     65     66     69   1    108.7200    376.5600
     65     66     70   1    108.7200    376.5600
     65     66     71   1    108.7200    376.5600
     69     66     70   1    107.8000    276.1440
     69     66     71   1    107.8000    276.1440
     70     66     71   1    107.8000    276.1440
     65     67     72   1    109.5880    836.8000
     67     72     73   1    108.5670    753.1200
     67     72     74   1    111.5500    774.8768
     67     72     75   1    109.5000    292.8800
     73     72     74   1    108.5670    753.1200
     73     72     75   1    112.0110    376.5600
     74     72     75   1    109.5000    292.8800
     72     73     76   1    108.7200    376.5600
     72     73     77   1    108.7200    376.5600
     72     73     78   1    108.7200    376.5600
     76     73     77   1    107.8000    276.1440
     76     73     78   1    107.8000    276.1440
     77     73     78   1    107.8000    276.1440
     72     74     79   1    109.5880    836.8000
     74     79     80   1    108.5670    753.1200
     74     79     81   1    111.5500    774.8768
     74     79     82   1    109.5000    292.8800
     80     79     81   1    108.5670    753.1200
     80     79     82   1    112.0110    376.5600
     81     79     82   1    109.5000    292.8800
     79     80     83   1    108.7200    376.5600
     79     80     84   1    108.7200    376.5600
     79     80     85   1    108.7200    376.5600
     83     80     84   1    107.8000    276.1440
     83     80     85   1    107.8000    276.1440
     84     80     85   1    107.8000    276.1440
     79     81     86   1    109.5880    836.8000
     81     86     87   1    108.5670    753.1200
     81     86     88   1    111.5500    774.8768
     81     86     89   1    109.5000    292.8800
     87     86     88   1    108.5670    753.1200
     87     86     89   1    112.0110    376.5600
     88     86     89   1    109.5000    292.8800
     86     87     90   1    108.7200    376.5600
     86     87     91   1    108.7200    376.5600
     86     87     92   1    108.7200    376.5600
     90     87     91   1    107.8000    276.1440
     90     87     92   1    107.8000    276.1440
     91     87     92   1    107.8000    276.1440
     86     88     93   1    109.5880    836.8000
     88     93     94   1    108.5670    753.1200
     88     93     95   1    111.5500    774.8768
     88     93     96   1    109.5000    292.8800
     94     93     95   1    108.5670    753.1200
     94     93     96   1    112.0110    376.5600
     95     93     96   1    109.5000    292.8800
     93     94     97   1    108.7200    376.5600
     93     94     98   1    108.7200    376.5600
     93     94     99   1    108.7200    376.5600
     97     94     98   1    107.8000    276.1440
     97     94     99   1    107.8000    276.1440
     98     94     99   1    107.8000    276.1440
     93     95    100   1    109.5880    836.8000
     95    100    101   1    108.5670    753.1200
     95    100    102   1    111.5500    774.8768
     95    100    103   1    109.5000    292.8800
    101    100    102   1    108.5670    753.1200
    101    100    103   1    112.0110    376.5600
    102    100    103   1    109.5000    292.8800
    100    101    104   1    108.7200    376.5600
    100    101    105   1    108.7200    376.5600
    100    101    106   1    108.7200    376.5600
    104    101    105   1    107.8000    276.1440
    104    101    106   1    107.8000    276.1440
    105    101    106   1    107.8000    276.1440
    100    102    107   1    109.5880    836.8000
    102    107    108   1    108.5670    753.1200
    102    107    109   1    111.5500    774.8768
    102    107    110   1    109.5000    292.8800
    108    107    109   1    108.5670    753.1200
    108    107    110   1    112.0110    376.5600
    109    107    110   1    109.5000    292.8800
    107    108    111   1    108.7200    376.5600
    107    108    112   1    108.7200    376.5600
    107    108    113   1    108.7200    376.5600
    111    108    112   1    107.8000    276.1440
    111    108    113   1    107.8000    276.1440
    112    108    113   1    107.8000    276.1440
    107    109    114   1    109.5880    836.8000
    109    114    115   1    108.5670    753.1200
    109    114    116   1    111.5500    774.8768
    109    114    117   1    109.5000    292.8800
    115    114    116   1    108.5670    753.1200
    115    114    117   1    112.0110    376.5600
    116    114    117   1    109.5000    292.8800
    114    115    118   1    108.7200    376.5600
    114    115    119   1    108.7200    376.5600
    114    115    120   1    108.7200    376.5600
    118    115    119   1    107.8000    276.1440
    118    115    120   1    107.8000    276.1440
    119    115    120   1    107.8000    276.1440
    114    116    121   1    109.5880    836.8000
    116    121    122   1    108.5670    753.1200
    116    121    123   1    111.5500    774.8768
    116    121    124   1    109.5000    292.8800
    122    121    123   1    108.5670    753.1200
    122    121    124   1    112.0110    376.5600
    123    121    124   1    109.5000    292.8800
    121    122    125   1    108.7200    376.5600
    121    122    126   1    108.7200    376.5600
    121    122    127   1    108.7200    376.5600
    125    122    126   1    107.8000    276.1440
    125    122    127   1    107.8000    276.1440
    126    122    127   1    107.8000    276.1440
    121    123    128   1    109.5880    836.8000
    123    128    129   1    108.5670    753.1200
    123    128    130   1    111.5500    774.8768
    123    128    131   1    109.5000    292.8800
    129    128    130   1    108.5670    753.1200
    129    128    131   1    112.0110    376.5600
    130    128    131   1    109.5000    292.8800
    128    129    132   1    108.7200    376.5600
    128    129    133   1    108.7200    376.5600
    128    129    134   1    108.7200    376.5600
    132    129    133   1    107.8000    276.1440
    132    129    134   1    107.8000    276.1440
    133    129    134   1    107.8000    276.1440
    128    130    135   1    109.5880    836.8000
    130    135    136   1    108.5670    753.1200
    130    135    137   1    112.0800    920.4800
    130    135    138   1    109.5000    292.8800
    136    135    137   1    110.1910    753.1200
    136    135    138   1    112.0110    376.5600
    137    135    138   1    108.0250    502.0800
    135    136    139   1    108.7200    376.5600
    135    136    140   1    108.7200    376.5600
    135    136    141   1    108.7200    376.5600
    139    136    140   1    107.8000    276.1440
    139    136    141   1    107.8000    276.1440
    140    136    141   1    107.8000    276.1440
    135    137    142   1    107.9200    585.7600

[ dihedrals ]
; Proper dihedrals
      3      1      2      5   5     0.00000     0.00000     1.95811  0.0
      3      1      2      6   5     0.00000     0.00000     1.95811  0.0
      3      1      2      7   5     0.00000     0.00000     1.95811  0.0
      4      1      2      5   5     0.00000     0.00000     1.25520  0.0
      4      1      2      6   5     0.00000     0.00000     1.25520  0.0
      4      1      2      7   5     0.00000     0.00000     1.25520  0.0
      8      1      2      5   5     0.00000     0.00000     1.25520  0.0
      8      1      2      6   5     0.00000     0.00000     1.25520  0.0
      8      1      2      7   5     0.00000     0.00000     1.25520  0.0
      2      1      3      9   5     0.52300    -0.09205     2.34722  0.0
      4      1      3      9   5     0.00000     0.00000     3.10034  0.0
      8      1      3      9   5     0.00000     0.00000     3.10034  0.0
      1      3      9     10   5     0.52300    -0.09205     2.34722  0.0
      1      3      9     11   5    -4.46433    -6.55633     2.82420  0.0
      1      3      9     12   5     0.00000     0.00000     3.10034  0.0
      3      9     10     13   5     0.00000     0.00000     1.95811  0.0
      3      9     10     14   5     0.00000     0.00000     1.95811  0.0
      3      9     10     15   5     0.00000     0.00000     1.95811  0.0
     11      9     10     13   5     0.00000     0.00000     1.95811  0.0
     11      9     10     14   5     0.00000     0.00000     1.95811  0.0
     11      9     10     15   5     0.00000     0.00000     1.95811  0.0
     12      9     10     13   5     0.00000     0.00000     1.25520  0.0
     12      9     10     14   5     0.00000     0.00000     1.25520  0.0
     12      9     10     15   5     0.00000     0.00000     1.25520  0.0
      3      9     11     16   5    -4.46433    -6.55633     2.82420  0.0
     10      9     11     16   5     0.52300    -0.09205     2.34722  0.0
     12      9     11     16   5     0.00000     0.00000     3.10034  0.0
      9     11     16     17   5     0.52300    -0.09205     2.34722  0.0
      9     11     16     18   5    -4.46433    -6.55633     2.82420  0.0
      9     11     16     19   5     0.00000     0.00000     3.10034  0.0
     11     16     17     20   5     0.00000     0.00000     1.95811  0.0
     11     16     17     21   5     0.00000     0.00000     1.95811  0.0
     11     16     17     22   5     0.00000     0.00000     1.95811  0.0
     18     16     17     20   5     0.00000     0.00000     1.95811  0.0
     18     16     17     21   5     0.00000     0.00000     1.95811  0.0
     18     16     17     22   5     0.00000     0.00000     1.95811  0.0
     19     16     17     20   5     0.00000     0.00000     1.25520  0.0
     19     16     17     21   5     0.00000     0.00000     1.25520  0.0
     19     16     17     22   5     0.00000     0.00000     1.25520  0.0
     11     16     18     23   5    -4.46433    -6.55633     2.82420  0.0
     17     16     18     23   5     0.52300    -0.09205     2.34722  0.0
     19     16     18     23   5     0.00000     0.00000     3.10034  0.0
     16     18     23     24   5     0.52300    -0.09205     2.34722  0.0
     16     18     23     25   5    -4.46433    -6.55633     2.82420  0.0
     16     18     23     26   5     0.00000     0.00000     3.10034  0.0
     18     23     24     27   5     0.00000     0.00000     1.95811  0.0
     18     23     24     28   5     0.00000     0.00000     1.95811  0.0
     18     23     24     29   5     0.00000     0.00000     1.95811  0.0
     25     23     24     27   5     0.00000     0.00000     1.95811  0.0
     25     23     24     28   5     0.00000     0.00000     1.95811  0.0
     25     23     24     29   5     0.00000     0.00000     1.95811  0.0
     26     23     24     27   5     0.00000     0.00000     1.25520  0.0
     26     23     24     28   5     0.00000     0.00000     1.25520  0.0
     26     23     24     29   5     0.00000     0.00000     1.25520  0.0
     18     23     25     30   5    -4.46433    -6.55633     2.82420  0.0
     24     23     25     30   5     0.52300    -0.09205     2.34722  0.0
     26     23     25     30   5     0.00000     0.00000     3.10034  0.0
     23     25     30     31   5     0.52300    -0.09205     2.34722  0.0
     23     25     30     32   5    -4.46433    -6.55633     2.82420  0.0
     23     25     30     33   5     0.00000     0.00000     3.10034  0.0
     25     30     31     34   5     0.00000     0.00000     1.95811  0.0
     25     30     31     35   5     0.00000     0.00000     1.95811  0.0
     25     30     31     36   5     0.00000     0.00000     1.95811  0.0
     32     30     31     34   5     0.00000     0.00000     1.95811  0.0
     32     30     31     35   5     0.00000     0.00000     1.95811  0.0
     32     30     31     36   5     0.00000     0.00000     1.95811  0.0
     33     30     31     34   5     0.00000     0.00000     1.25520  0.0
     33     30     31     35   5     0.00000     0.00000     1.25520  0.0
     33     30     31     36   5     0.00000     0.00000     1.25520  0.0
     25     30     32     37   5    -4.46433    -6.55633     2.82420  0.0
     31     30     32     37   5     0.52300    -0.09205     2.34722  0.0
     33     30     32     37   5     0.00000     0.00000     3.10034  0.0
     30     32     37     38   5     0.52300    -0.09205     2.34722  0.0
     30     32     37     39   5    -4.46433    -6.55633     2.82420  0.0
     30     32     37     40   5     0.00000     0.00000     3.10034  0.0
     32     37     38     41   5     0.00000     0.00000     1.95811  0.0
     32     37     38     42   5     0.00000     0.00000     1.95811  0.0
     32     37     38     43   5     0.00000     0.00000     1.95811  0.0
     39     37     38     41   5     0.00000     0.00000     1.95811  0.0
     39     37     38     42   5     0.00000     0.00000     1.95811  0.0
     39     37     38     43   5     0.00000     0.00000     1.95811  0.0
     40     37     38     41   5     0.00000     0.00000     1.25520  0.0
     40     37     38     42   5     0.00000     0.00000     1.25520  0.0
     40     37     38     43   5     0.00000     0.00000     1.25520  0.0
     32     37     39     44   5    -4.46433    -6.55633     2.82420  0.0
     38     37     39     44   5     0.52300    -0.09205     2.34722  0.0
     40     37     39     44   5     0.00000     0.00000     3.10034  0.0
     37     39     44     45   5     0.52300    -0.09205     2.34722  0.0
     37     39     44     46   5    -4.46433    -6.55633     2.82420  0.0
     37     39     44     47   5     0.00000     0.00000     3.10034  0.0
     39     44     45     48   5     0.00000     0.00000     1.95811  0.0
     39     44     45     49   5     0.00000     0.00000     1.95811  0.0
     39     44     45     50   5     0.00000     0.00000     1.95811  0.0
     46     44     45     48   5     0.00000     0.00000     1.95811  0.0
     46     44     45     49   5     0.00000     0.00000     1.95811  0.0
     46     44     45     50   5     0.00000     0.00000     1.95811  0.0
     47     44     45     48   5     0.00000     0.00000     1.25520  0.0
     47     44     45     49   5     0.00000     0.00000     1.25520  0.0
     47     44     45     50   5     0.00000     0.00000     1.25520  0.0
     39     44     46     51   5    -4.46433    -6.55633     2.82420  0.0
     45     44     46     51   5     0.52300    -0.09205     2.34722  0.0
     47     44     46     51   5     0.00000     0.00000     3.10034  0.0
     44     46     51     52   5     0.52300    -0.09205     2.34722  0.0
     44     46     51     53   5    -4.46433    -6.55633     2.82420  0.0
     44     46     51     54   5     0.00000     0.00000     3.10034  0.0
     46     51     52     55   5     0.00000     0.00000     1.95811  0.0
     46     51     52     56   5     0.00000     0.00000     1.95811  0.0
     46     51     52     57   5     0.00000     0.00000     1.95811  0.0
     53     51     52     55   5     0.00000     0.00000     1.95811  0.0
     53     51     52     56   5     0.00000     0.00000     1.95811  0.0
     53     51     52     57   5     0.00000     0.00000     1.95811  0.0
     54     51     52     55   5     0.00000     0.00000     1.25520  0.0
     54     51     52     56   5     0.00000     0.00000     1.25520  0.0
     54     51     52     57   5     0.00000     0.00000     1.25520  0.0
     46     51     53     58   5    -4.46433    -6.55633     2.82420  0.0
     52     51     53     58   5     0.52300    -0.09205     2.34722  0.0
     54     51     53     58   5     0.00000     0.00000     3.10034  0.0
     51     53     58     59   5     0.52300    -0.09205     2.34722  0.0
     51     53     58     60   5    -4.46433    -6.55633     2.82420  0.0
     51     53     58     61   5     0.00000     0.00000     3.10034  0.0
     53     58     59     62   5     0.00000     0.00000     1.95811  0.0
     53     58     59     63   5     0.00000     0.00000     1.95811  0.0
     53     58     59     64   5     0.00000     0.00000     1.95811  0.0
     60     58     59     62   5     0.00000     0.00000     1.95811  0.0
     60     58     59     63   5     0.00000     0.00000     1.95811  0.0
     60     58     59     64   5     0.00000     0.00000     1.95811  0.0
     61     58     59     62   5     0.00000     0.00000     1.25520  0.0
     61     58     59     63   5     0.00000     0.00000     1.25520  0.0
     61     58     59     64   5     0.00000     0.00000     1.25520  0.0
     53     58     60     65   5    -4.46433    -6.55633     2.82420  0.0
     59     58     60     65   5     0.52300    -0.09205     2.34722  0.0
     61     58     60     65   5     0.00000     0.00000     3.10034  0.0
     58     60     65     66   5     0.52300    -0.09205     2.34722  0.0
     58     60     65     67   5    -4.46433    -6.55633     2.82420  0.0
     58     60     65     68   5     0.00000     0.00000     3.10034  0.0
     60     65     66     69   5     0.00000     0.00000     1.95811  0.0
     60     65     66     70   5     0.00000     0.00000     1.95811  0.0
     60     65     66     71   5     0.00000     0.00000     1.95811  0.0
     67     65     66     69   5     0.00000     0.00000     1.95811  0.0
     67     65     66     70   5     0.00000     0.00000     1.95811  0.0
     67     65     66     71   5     0.00000     0.00000     1.95811  0.0
     68     65     66     69   5     0.00000     0.00000     1.25520  0.0
     68     65     66     70   5     0.00000     0.00000     1.25520  0.0
     68     65     66     71   5     0.00000     0.00000     1.25520  0.0
     60     65     67     72   5    -4.46433    -6.55633     2.82420  0.0
     66     65     67     72   5     0.52300    -0.09205     2.34722  0.0
     68     65     67     72   5     0.00000     0.00000     3.10034  0.0
     65     67     72     73   5     0.52300    -0.09205     2.34722  0.0
     65     67     72     74   5    -4.46433    -6.55633     2.82420  0.0
     65     67     72     75   5     0.00000     0.00000     3.10034  0.0
     67     72     73     76   5     0.00000     0.00000     1.95811  0.0
     67     72     73     77   5     0.00000     0.00000     1.95811  0.0
     67     72     73     78   5     0.00000     0.00000     1.95811  0.0
     74     72     73     76   5     0.00000     0.00000     1.95811  0.0
     74     72     73     77   5     0.00000     0.00000     1.95811  0.0
     74     72     73     78   5     0.00000     0.00000     1.95811  0.0
     75     72     73     76   5     0.00000     0.00000     1.25520  0.0
     75     72     73     77   5     0.00000     0.00000     1.25520  0.0
     75     72     73     78   5     0.00000     0.00000     1.25520  0.0
     67     72     74     79   5    -4.46433    -6.55633     2.82420  0.0
     73     72     74     79   5     0.52300    -0.09205     2.34722  0.0
     75     72     74     79   5     0.00000     0.00000     3.10034  0.0
     72     74     79     80   5     0.52300    -0.09205     2.34722  0.0
     72     74     79     81   5    -4.46433    -6.55633     2.82420  0.0
     72     74     79     82   5     0.00000     0.00000     3.10034  0.0
     74     79     80     83   5     0.00000     0.00000     1.95811  0.0
     74     79     80     84   5     0.00000     0.00000     1.95811  0.0
     74     79     80     85   5     0.00000     0.00000     1.95811  0.0
     81     79     80     83   5     0.00000     0.00000     1.95811  0.0
     81     79     80     84   5     0.00000     0.00000     1.95811  0.0
     81     79     80     85   5     0.00000     0.00000     1.95811  0.0
     82     79     80     83   5     0.00000     0.00000     1.25520  0.0
     82     79     80     84   5     0.00000     0.00000     1.25520  0.0
     82     79     80     85   5     0.00000     0.00000     1.25520  0.0
     74     79     81     86   5    -4.46433    -6.55633     2.82420  0.0
     80     79     81     86   5     0.52300    -0.09205     2.34722  0.0
     82     79     81     86   5     0.00000     0.00000     3.10034  0.0
     79     81     86     87   5     0.52300    -0.09205     2.34722  0.0
     79     81     86     88   5    -4.46433    -6.55633     2.82420  0.0
     79     81     86     89   5     0.00000     0.00000     3.10034  0.0
     81     86     87     90   5     0.00000     0.00000     1.95811  0.0
     81     86     87     91   5     0.00000     0.00000     1.95811  0.0
     81     86     87     92   5     0.00000     0.00000     1.95811  0.0
     88     86     87     90   5     0.00000     0.00000     1.95811  0.0
     88     86     87     91   5     0.00000     0.00000     1.95811  0.0
     88     86     87     92   5     0.00000     0.00000     1.95811  0.0
     89     86     87     90   5     0.00000     0.00000     1.25520  0.0
     89     86     87     91   5     0.00000     0.00000     1.25520  0.0
     89     86     87     92   5     0.00000     0.00000     1.25520  0.0
     81     86     88     93   5    -4.46433    -6.55633     2.82420  0.0
     87     86     88     93   5     0.52300    -0.09205     2.34722  0.0
     89     86     88     93   5     0.00000     0.00000     3.10034  0.0
     86     88     93     94   5     0.52300    -0.09205     2.34722  0.0
     86     88     93     95   5    -4.46433    -6.55633     2.82420  0.0
     86     88     93     96   5     0.00000     0.00000     3.10034  0.0
     88     93     94     97   5     0.00000     0.00000     1.95811  0.0
     88     93     94     98   5     0.00000     0.00000     1.95811  0.0
     88     93     94     99   5     0.00000     0.00000     1.95811  0.0
     95     93     94     97   5     0.00000     0.00000     1.95811  0.0
     95     93     94     98   5     0.00000     0.00000     1.95811  0.0
     95     93     94     99   5     0.00000     0.00000     1.95811  0.0
     96     93     94     97   5     0.00000     0.00000     1.25520  0.0
     96     93     94     98   5     0.00000     0.00000     1.25520  0.0
     96     93     94     99   5     0.00000     0.00000     1.25520  0.0
     88     93     95    100   5    -4.46433    -6.55633     2.82420  0.0
     94     93     95    100   5     0.52300    -0.09205     2.34722  0.0
     96     93     95    100   5     0.00000     0.00000     3.10034  0.0
     93     95    100    101   5     0.52300    -0.09205     2.34722  0.0
     93     95    100    102   5    -4.46433    -6.55633     2.82420  0.0
     93     95    100    103   5     0.00000     0.00000     3.10034  0.0
     95    100    101    104   5     0.00000     0.00000     1.95811  0.0
     95    100    101    105   5     0.00000     0.00000     1.95811  0.0
     95    100    101    106   5     0.00000     0.00000     1.95811  0.0
    102    100    101    104   5     0.00000     0.00000     1.95811  0.0
    102    100    101    105   5     0.00000     0.00000     1.95811  0.0
    102    100    101    106   5     0.00000     0.00000     1.95811  0.0
    103    100    101    104   5     0.00000     0.00000     1.25520  0.0
    103    100    101    105   5     0.00000     0.00000     1.25520  0.0
    103    100    101    106   5     0.00000     0.00000     1.25520  0.0
     95    100    102    107   5    -4.46433    -6.55633     2.82420  0.0
    101    100    102    107   5     0.52300    -0.09205     2.34722  0.0
    103    100    102    107   5     0.00000     0.00000     3.10034  0.0
    100    102    107    108   5     0.52300    -0.09205     2.34722  0.0
    100    102    107    109   5    -4.46433    -6.55633     2.82420  0.0
    100    102    107    110   5     0.00000     0.00000     3.10034  0.0
    102    107    108    111   5     0.00000     0.00000     1.95811  0.0
    102    107    108    112   5     0.00000     0.00000     1.95811  0.0
    102    107    108    113   5     0.00000     0.00000     1.95811  0.0
    109    107    108    111   5     0.00000     0.00000     1.95811  0.0
    109    107    108    112   5     0.00000     0.00000     1.95811  0.0
    109    107    108    113   5     0.00000     0.00000     1.95811  0.0
    110    107    108    111   5     0.00000     0.00000     1.25520  0.0
    110    107    108    112   5     0.00000     0.00000     1.25520  0.0
    110    107    108    113   5     0.00000     0.00000     1.25520  0.0
    102    107    109    114   5    -4.46433    -6.55633     2.82420  0.0
    108    107    109    114   5     0.52300    -0.09205     2.34722  0.0
    110    107    109    114   5     0.00000     0.00000     3.10034  0.0
    107    109    114    115   5     0.52300    -0.09205     2.34722  0.0
    107    109    114    116   5    -4.46433    -6.55633     2.82420  0.0
    107    109    114    117   5     0.00000     0.00000     3.10034  0.0
    109    114    115    118   5     0.00000     0.00000     1.95811  0.0
    109    114    115    119   5     0.00000     0.00000     1.95811  0.0
    109    114    115    120   5     0.00000     0.00000     1.95811  0.0
    116    114    115    118   5     0.00000     0.00000     1.95811  0.0
    116    114    115    119   5     0.00000     0.00000     1.95811  0.0
    116    114    115    120   5     0.00000     0.00000     1.95811  0.0
    117    114    115    118   5     0.00000     0.00000     1.25520  0.0
    117    114    115    119   5     0.00000     0.00000     1.25520  0.0
    117    114    115    120   5     0.00000     0.00000     1.25520  0.0
    109    114    116    121   5    -4.46433    -6.55633     2.82420  0.0
    115    114    116    121   5     0.52300    -0.09205     2.34722  0.0
    117    114    116    121   5     0.00000     0.00000     3.10034  0.0
    114    116    121    122   5     0.52300    -0.09205     2.34722  0.0
    114    116    121    123   5    -4.46433    -6.55633     2.82420  0.0
    114    116    121    124   5     0.00000     0.00000     3.10034  0.0
    116    121    122    125   5     0.00000     0.00000     1.95811  0.0
    116    121    122    126   5     0.00000     0.00000     1.95811  0.0
    116    121    122    127   5     0.00000     0.00000     1.95811  0.0
    123    121    122    125   5     0.00000     0.00000     1.95811  0.0
    123    121    122    126   5     0.00000     0.00000     1.95811  0.0
    123    121    122    127   5     0.00000     0.00000     1.95811  0.0
    124    121    122    125   5     0.00000     0.00000     1.25520  0.0
    124    121    122    126   5     0.00000     0.00000     1.25520  0.0
    124    121    122    127   5     0.00000     0.00000     1.25520  0.0
    116    121    123    128   5    -4.46433    -6.55633     2.82420  0.0
    122    121    123    128   5     0.52300    -0.09205     2.34722  0.0
    124    121    123    128   5     0.00000     0.00000     3.10034  0.0
    121    123    128    129   5     0.52300    -0.09205     2.34722  0.0
    121    123    128    130   5    -4.46433    -6.55633     2.82420  0.0
    121    123    128    131   5     0.00000     0.00000     3.10034  0.0
    123    128    129    132   5     0.00000     0.00000     1.95811  0.0
    123    128    129    133   5     0.00000     0.00000     1.95811  0.0
    123    128    129    134   5     0.00000     0.00000     1.95811  0.0
    130    128    129    132   5     0.00000     0.00000     1.95811  0.0
    130    128    129    133   5     0.00000     0.00000     1.95811  0.0
    130    128    129    134   5     0.00000     0.00000     1.95811  0.0
    131    128    129    132   5     0.00000     0.00000     1.25520  0.0
    131    128    129    133   5     0.00000     0.00000     1.25520  0.0
    131    128    129    134   5     0.00000     0.00000     1.25520  0.0
    123    128    130    135   5    -4.46433    -6.55633     2.82420  0.0
    129    128    130    135   5     0.52300    -0.09205     2.34722  0.0
    131    128    130    135   5     0.00000     0.00000     3.10034  0.0
    128    130    135    136   5     0.52300    -0.09205     2.34722  0.0
    128    130    135    137   5     0.00000     0.00000     3.13800  0.0
    128    130    135    138   5     0.00000     0.00000     3.10034  0.0
    130    135    136    139   5     0.00000     0.00000     1.95811  0.0
    130    135    136    140   5     0.00000     0.00000     1.95811  0.0
    130    135    136    141   5     0.00000     0.00000     1.95811  0.0
    137    135    136    139   5     0.00000     0.00000     1.95811  0.0
    137    135    136    140   5     0.00000     0.00000     1.95811  0.0
    137    135    136    141   5     0.00000     0.00000     1.95811  0.0
    138    135    136    139   5     0.00000     0.00000     1.25520  0.0
    138    135    136    140   5     0.00000     0.00000     1.25520  0.0
    138    135    136    141   5     0.00000     0.00000     1.25520  0.0
    130    135    137    142   5    -4.18400    -6.18814     1.43511  0.0
    136    135    137    142   5    -0.97069    -0.79078     1.77820  0.0
    138    135    137    142   5     0.00000     0.00000     1.62758  0.0
